                               Psi4 1.4a3.dev225

  ==> Input File <==

--------------------------------------------------------------------------
#psi4
#
memory 32 gb

molecule  {
0 1
  O       -2.2261580     0.9189870    -0.1609950
  N        0.4211910     1.5299470     0.0903790
  C        0.0817250     0.2107030     0.0159890
  C        2.4145630    -0.5010270    -0.0428790
  C       -1.3460660    -0.1139160     0.0206840
  C        1.0420520    -0.8182650    -0.0594370
  C        2.7641530     0.8636850     0.0360660
  C       -2.0477590    -1.2949740     0.1722820
  C        3.4684270    -1.5756500    -0.0824610
  C        1.8943390     1.6885203     0.0846000
  C       -3.4286880    -0.9658200     0.0768380
  C       -3.4828100     0.3886030    -0.1245500
  H        0.7225460    -1.8551450    -0.1446860
  H        3.8080070     1.1710760     0.0438400
  H       -1.6259220    -2.2752860     0.3500510
  H        3.8398640    -1.7937090     0.9244500
  H        3.0687740    -2.5034170    -0.5007000
  H        4.3228250    -1.2652800    -0.6906580
  H        1.9977040     2.8869120     0.1452960
  H       -4.2730300    -1.6376780     0.1527080
  H       -4.2894270     1.0948070    -0.2563320
units angstrom
no_reorient  #important for SAPT in psi4, default
symmetry c1  #important for SAPT in psi4, default
}

set PROPERTIES_ORIGIN ["COM"]
properties('MP2/aug-cc-pvtz', properties = ['dipole'])
--------------------------------------------------------------------------

    Molecular point group: c1
  Charge       = 0
  Multiplicity = 1
  Basis Set: AUG-CC-PVTZ
    Blend: AUG-CC-PVTZ
  Basis Set: (AUG-CC-PVTZ AUX)
    Blend: AUG-CC-PVTZ-JKFIT

    Orbital Energies [Eh]
    ---------------------

    Doubly Occupied:

       1A    -20.623098     2A    -15.566977     3A    -11.297502
       4A    -11.295727     5A    -11.294377     6A    -11.277122
       7A    -11.261626     8A    -11.242194     9A    -11.241878
      10A    -11.241461    11A    -11.235176    12A    -11.214820
      13A     -1.455115    14A     -1.232041    15A     -1.115519
      16A     -1.089631    17A     -1.063496    18A     -1.004603
      19A     -0.970255    20A     -0.856654    21A     -0.834494
      22A     -0.799782    23A     -0.764831    24A     -0.723460
      25A     -0.685583    26A     -0.671823    27A     -0.635177
      28A     -0.625038    29A     -0.595718    30A     -0.594114
      31A     -0.581696    32A     -0.568162    33A     -0.559056
      34A     -0.544606    35A     -0.540616    36A     -0.527419
      37A     -0.468626    38A     -0.430350    39A     -0.413564
      40A     -0.393924    41A     -0.347817    42A     -0.299591

  @DF-RHF Final Energy:  -513.31450372612426

   => Energetics <=

    Nuclear Repulsion Energy =            630.4892565637493362
    One-Electron Energy =               -1947.2380816208235501
    Two-Electron Energy =                 803.4343213309498424
    Total Energy =                       -513.3145037261242578
  Basis Set: (AUG-CC-PVTZ AUX)
    Blend: AUG-CC-PVTZ-RI
    Molecular point group: c1

    Geometry (in Angstrom), charge = 0, multiplicity = 1:

       Center              X                  Y                   Z               Mass
    ------------   -----------------  -----------------  -----------------  -----------------
         O           -2.189950815509     0.890827227126    -0.160242010185    15.994914619570
         N            0.457398184491     1.501787227126     0.091131989815    14.003074004430
         C            0.117932184491     0.182543227126     0.016741989815    12.000000000000
         C            2.450770184491    -0.529186772874    -0.042126010185    12.000000000000
         C           -1.309858815509    -0.142075772874     0.021436989815    12.000000000000
         C            1.078259184491    -0.846424772874    -0.058684010185    12.000000000000
         C            2.800360184491     0.835525227126     0.036818989815    12.000000000000
         C           -2.011551815509    -1.323133772874     0.173034989815    12.000000000000
         C            3.504634184491    -1.603809772874    -0.081708010185    12.000000000000
         C            1.930546184491     1.660360527126     0.085352989815    12.000000000000
         C           -3.392480815509    -0.993979772874     0.077590989815    12.000000000000
         C           -3.446602815509     0.360443227126    -0.123797010185    12.000000000000
         H            0.758753184491    -1.883304772874    -0.143933010185     1.007825032230
         H            3.844214184491     1.142916227126     0.044592989815     1.007825032230
         H           -1.589714815509    -2.303445772874     0.350803989815     1.007825032230
         H            3.876071184491    -1.821868772874     0.925202989815     1.007825032230
         H            3.104981184491    -2.531576772874    -0.499947010185     1.007825032230
         H            4.359032184491    -1.293439772874    -0.689905010185     1.007825032230
         H            2.033911184491     2.858752227126     0.146048989815     1.007825032230
         H           -4.236822815509    -1.665837772874     0.153460989815     1.007825032230
         H           -4.253219815509     1.066647227126    -0.255579010185     1.007825032230

  Basis Set: AUG-CC-PVTZ
    Blend: AUG-CC-PVTZ
  Basis Set: (AUG-CC-PVTZ AUX)
    Blend: AUG-CC-PVTZ-JKFIT
	 Reference Energy          =    -513.3145037261242578 [Eh]
	 Singles Energy            =      -0.0000000000000000 [Eh]
	 Same-Spin Energy          =      -0.5588347681768805 [Eh]
	 Opposite-Spin Energy      =      -1.7170996396626601 [Eh]
	 Correlation Energy        =      -2.2759344078395407 [Eh]
	 Total Energy              =    -515.5904381339637439 [Eh]

	 ================> DF-SCS-MP2 Energies <==================
	-----------------------------------------------------------
	 SCS Same-Spin Scale       =       0.3333333333333333 [-]
	 SCS Opposite-Spin Scale   =       1.2000000000000000 [-]
	 SCS Same-Spin Energy      =      -0.1862782560589601 [Eh]
	 SCS Opposite-Spin Energy  =      -2.0605195675951919 [Eh]
	 SCS Correlation Energy    =      -2.2467978236541519 [Eh]
	 SCS Total Energy          =    -515.5613015497783636 [Eh]
	-----------------------------------------------------------

  Dipole Moment: [D]
     X:     1.3641      Y:    -2.6678      Z:    -0.0174     Total:     2.9964

*** Psi4 exiting successfully. Buy a developer a beer!
