                               Psi4 1.4a3.dev225

  ==> Input File <==

--------------------------------------------------------------------------
#psi4
#
memory 32 gb

molecule  {
0 1
  O       -2.2261580     0.9189870    -0.1609950
  N        0.4211910     1.5299470     0.0903790
  C        0.0817250     0.2107030     0.0159890
  C        2.4145630    -0.5010270    -0.0428790
  C       -1.3460660    -0.1139160     0.0206840
  C        1.0420520    -0.8182650    -0.0594370
  C        2.7765411     0.9120452     0.0388635
  C       -2.0477590    -1.2949740     0.1722820
  C        3.4684270    -1.5756500    -0.0824610
  C        1.7493340     1.8260270     0.0926910
  C       -3.4286880    -0.9658200     0.0768380
  C       -3.4828100     0.3886030    -0.1245500
  H        0.7225460    -1.8551450    -0.1446860
  H        3.8080070     1.1710760     0.0438400
  H       -1.6259220    -2.2752860     0.3500510
  H        3.8398640    -1.7937090     0.9244500
  H        3.0687740    -2.5034170    -0.5007000
  H        4.3228250    -1.2652800    -0.6906580
  H        1.9977040     2.8869120     0.1452960
  H       -4.2730300    -1.6376780     0.1527080
  H       -4.2894270     1.0948070    -0.2563320
units angstrom
no_reorient  #important for SAPT in psi4, default
symmetry c1  #important for SAPT in psi4, default
}

set PROPERTIES_ORIGIN ["COM"]
properties('MP2/aug-cc-pvtz', properties = ['dipole'])
--------------------------------------------------------------------------

    Molecular point group: c1
  Charge       = 0
  Multiplicity = 1
  Basis Set: AUG-CC-PVTZ
    Blend: AUG-CC-PVTZ
  Basis Set: (AUG-CC-PVTZ AUX)
    Blend: AUG-CC-PVTZ-JKFIT

    Orbital Energies [Eh]
    ---------------------

    Doubly Occupied:

       1A    -20.622487     2A    -15.562140     3A    -11.297817
       4A    -11.295842     5A    -11.294328     6A    -11.277525
       7A    -11.274076     8A    -11.242297     9A    -11.240358
      10A    -11.240247    11A    -11.237929    12A    -11.234567
      13A     -1.454540    14A     -1.242883    15A     -1.098811
      16A     -1.088446    17A     -1.059343    18A     -0.987055
      19A     -0.968534    20A     -0.863064    21A     -0.833551
      22A     -0.800070    23A     -0.765613    24A     -0.727865
      25A     -0.677226    26A     -0.667506    27A     -0.639728
      28A     -0.634216    29A     -0.600644    30A     -0.590224
      31A     -0.581454    32A     -0.566911    33A     -0.561736
      34A     -0.547117    35A     -0.539819    36A     -0.524983
      37A     -0.503361    38A     -0.418278    39A     -0.403164
      40A     -0.375025    41A     -0.360418    42A     -0.289538

  @DF-RHF Final Energy:  -513.37384278955847

   => Energetics <=

    Nuclear Repulsion Energy =            628.3443888182731598
    One-Electron Energy =               -1943.0549896838638233
    Two-Electron Energy =                 801.3367580760320834
    Total Energy =                       -513.3738427895584664
  Basis Set: (AUG-CC-PVTZ AUX)
    Blend: AUG-CC-PVTZ-RI
    Molecular point group: c1

    Geometry (in Angstrom), charge = 0, multiplicity = 1:

       Center              X                  Y                   Z               Mass
    ------------   -----------------  -----------------  -----------------  -----------------
         O           -2.179946297573     0.876805569745    -0.161063430333    15.994914619570
         N            0.467402702427     1.487765569745     0.090310569667    14.003074004430
         C            0.127936702427     0.168521569745     0.015920569667    12.000000000000
         C            2.460774702427    -0.543208430255    -0.042947430333    12.000000000000
         C           -1.299854297573    -0.156097430255     0.020615569667    12.000000000000
         C            1.088263702427    -0.860446430255    -0.059505430333    12.000000000000
         C            2.822752802427     0.869863769745     0.038795069667    12.000000000000
         C           -2.001547297573    -1.337155430255     0.172213569667    12.000000000000
         C            3.514638702427    -1.617831430255    -0.082529430333    12.000000000000
         C            1.795545702427     1.783845569745     0.092622569667    12.000000000000
         C           -3.382476297573    -1.008001430255     0.076769569667    12.000000000000
         C           -3.436598297573     0.346421569745    -0.124618430333    12.000000000000
         H            0.768757702427    -1.897326430255    -0.144754430333     1.007825032230
         H            3.854218702427     1.128894569745     0.043771569667     1.007825032230
         H           -1.579710297573    -2.317467430255     0.349982569667     1.007825032230
         H            3.886075702427    -1.835890430255     0.924381569667     1.007825032230
         H            3.114985702427    -2.545598430255    -0.500768430333     1.007825032230
         H            4.369036702427    -1.307461430255    -0.690726430333     1.007825032230
         H            2.043915702427     2.844730569745     0.145227569667     1.007825032230
         H           -4.226818297573    -1.679859430255     0.152639569667     1.007825032230
         H           -4.243215297573     1.052625569745    -0.256400430333     1.007825032230

  Basis Set: AUG-CC-PVTZ
    Blend: AUG-CC-PVTZ
  Basis Set: (AUG-CC-PVTZ AUX)
    Blend: AUG-CC-PVTZ-JKFIT
	 Reference Energy          =    -513.3738427895584664 [Eh]
	 Singles Energy            =      -0.0000000000000000 [Eh]
	 Same-Spin Energy          =      -0.5588159887427813 [Eh]
	 Opposite-Spin Energy      =      -1.7136033844100149 [Eh]
	 Correlation Energy        =      -2.2724193731527960 [Eh]
	 Total Energy              =    -515.6462621627113094 [Eh]

	 ================> DF-SCS-MP2 Energies <==================
	-----------------------------------------------------------
	 SCS Same-Spin Scale       =       0.3333333333333333 [-]
	 SCS Opposite-Spin Scale   =       1.2000000000000000 [-]
	 SCS Same-Spin Energy      =      -0.1862719962475937 [Eh]
	 SCS Opposite-Spin Energy  =      -2.0563240612920177 [Eh]
	 SCS Correlation Energy    =      -2.2425960575396116 [Eh]
	 SCS Total Energy          =    -515.6164388470980384 [Eh]
	-----------------------------------------------------------

  Dipole Moment: [D]
     X:     1.4650      Y:    -2.4274      Z:    -0.0061     Total:     2.8352

*** Psi4 exiting successfully. Buy a developer a beer!
