                               Psi4 1.4a3.dev225

  ==> Input File <==

--------------------------------------------------------------------------
#psi4
#
memory 32 gb

molecule  {
0 1
  O       -2.2261580     0.9189870    -0.1609950
  N        0.4211910     1.5299470     0.0903790
  C        0.0817250     0.2107030     0.0159890
  C        2.4145630    -0.5010270    -0.0428790
  C       -1.3460660    -0.1139160     0.0206840
  C        1.0420520    -0.8182650    -0.0594370
  C        2.7641530     0.8636850     0.0360660
  C       -2.0477590    -1.2949740     0.1722820
  C        3.4684270    -1.5756500    -0.0824610
  C        1.7493340     1.8260270     0.0926910
  C       -3.4286880    -0.9658200     0.0768380
  C       -3.2986152     0.4663445    -0.1298920
  H        0.7225460    -1.8551450    -0.1446860
  H        3.8080070     1.1710760     0.0438400
  H       -1.6259220    -2.2752860     0.3500510
  H        3.8398640    -1.7937090     0.9244500
  H        3.0687740    -2.5034170    -0.5007000
  H        4.3228250    -1.2652800    -0.6906580
  H        1.9977040     2.8869120     0.1452960
  H       -4.2730300    -1.6376780     0.1527080
  H       -4.2894270     1.0948070    -0.2563320
units angstrom
no_reorient  #important for SAPT in psi4, default
symmetry c1  #important for SAPT in psi4, default
}

set PROPERTIES_ORIGIN ["COM"]
properties('MP2/aug-cc-pvtz', properties = ['dipole'])
--------------------------------------------------------------------------

    Molecular point group: c1
  Charge       = 0
  Multiplicity = 1
  Basis Set: AUG-CC-PVTZ
    Blend: AUG-CC-PVTZ
  Basis Set: (AUG-CC-PVTZ AUX)
    Blend: AUG-CC-PVTZ-JKFIT

    Orbital Energies [Eh]
    ---------------------

    Doubly Occupied:

       1A    -20.657513     2A    -15.558463     3A    -11.315100
       4A    -11.293842     5A    -11.286172     6A    -11.276629
       7A    -11.269299     8A    -11.248408     9A    -11.237274
      10A    -11.236771    11A    -11.232424    12A    -11.227674
      13A     -1.568330    14A     -1.242046    15A     -1.102388
      16A     -1.100730    17A     -1.053213    18A     -0.990108
      19A     -0.966752    20A     -0.855040    21A     -0.843511
      22A     -0.817861    23A     -0.783785    24A     -0.731187
      25A     -0.698987    26A     -0.673167    27A     -0.664826
      28A     -0.650553    29A     -0.611061    30A     -0.596150
      31A     -0.588633    32A     -0.569212    33A     -0.555118
      34A     -0.544911    35A     -0.526606    36A     -0.506812
      37A     -0.494527    38A     -0.416096    39A     -0.412756
      40A     -0.368043    41A     -0.357889    42A     -0.275074

  @DF-RHF Final Energy:  -513.32833743644596

   => Energetics <=

    Nuclear Repulsion Energy =            633.0281571457696828
    One-Electron Energy =               -1951.9031167584485047
    Two-Electron Energy =                 805.5466221762328587
    Total Energy =                       -513.3283374364459632
  Basis Set: (AUG-CC-PVTZ AUX)
    Blend: AUG-CC-PVTZ-RI
    Molecular point group: c1

    Geometry (in Angstrom), charge = 0, multiplicity = 1:

       Center              X                  Y                   Z               Mass
    ------------   -----------------  -----------------  -----------------  -----------------
         O           -2.192907264174     0.874589066850    -0.160449392652    15.994914619570
         N            0.454441735826     1.485549066850     0.090924607348    14.003074004430
         C            0.114975735826     0.166305066850     0.016534607348    12.000000000000
         C            2.447813735826    -0.545424933150    -0.042333392652    12.000000000000
         C           -1.312815264174    -0.158313933150     0.021229607348    12.000000000000
         C            1.075302735826    -0.862662933150    -0.058891392652    12.000000000000
         C            2.797403735826     0.819287066850     0.036611607348    12.000000000000
         C           -2.014508264174    -1.339371933150     0.172827607348    12.000000000000
         C            3.501677735826    -1.620047933150    -0.081915392652    12.000000000000
         C            1.782584735826     1.781629066850     0.093236607348    12.000000000000
         C           -3.395437264174    -1.010217933150     0.077383607348    12.000000000000
         C           -3.265364464174     0.421946566850    -0.129346392652    12.000000000000
         H            0.755796735826    -1.899542933150    -0.144140392652     1.007825032230
         H            3.841257735826     1.126678066850     0.044385607348     1.007825032230
         H           -1.592671264174    -2.319683933150     0.350596607348     1.007825032230
         H            3.873114735826    -1.838106933150     0.924995607348     1.007825032230
         H            3.102024735826    -2.547814933150    -0.500154392652     1.007825032230
         H            4.356075735826    -1.309677933150    -0.690112392652     1.007825032230
         H            2.030954735826     2.842514066850     0.145841607348     1.007825032230
         H           -4.239779264174    -1.682075933150     0.153253607348     1.007825032230
         H           -4.256176264174     1.050409066850    -0.255786392652     1.007825032230

  Basis Set: AUG-CC-PVTZ
    Blend: AUG-CC-PVTZ
  Basis Set: (AUG-CC-PVTZ AUX)
    Blend: AUG-CC-PVTZ-JKFIT
	 Reference Energy          =    -513.3283374364459632 [Eh]
	 Singles Energy            =      -0.0000000000000000 [Eh]
	 Same-Spin Energy          =      -0.5591261490023598 [Eh]
	 Opposite-Spin Energy      =      -1.7100298753854082 [Eh]
	 Correlation Energy        =      -2.2691560243877680 [Eh]
	 Total Energy              =    -515.5974934608336753 [Eh]

	 ================> DF-SCS-MP2 Energies <==================
	-----------------------------------------------------------
	 SCS Same-Spin Scale       =       0.3333333333333333 [-]
	 SCS Opposite-Spin Scale   =       1.2000000000000000 [-]
	 SCS Same-Spin Energy      =      -0.1863753830007866 [Eh]
	 SCS Opposite-Spin Energy  =      -2.0520358504624898 [Eh]
	 SCS Correlation Energy    =      -2.2384112334632764 [Eh]
	 SCS Total Energy          =    -515.5667486699092024 [Eh]
	-----------------------------------------------------------

  Dipole Moment: [D]
     X:     1.4668      Y:    -2.1496      Z:    -0.0406     Total:     2.6027

*** Psi4 exiting successfully. Buy a developer a beer!
