                               Psi4 1.4a3.dev225

  ==> Input File <==

--------------------------------------------------------------------------
#psi4
#
memory 32 gb

molecule  {
0 1
  O       -2.2261580     0.9189870    -0.1609950
  N        0.4211910     1.5299470     0.0903790
  C        0.0817250     0.2107030     0.0159890
  C        2.4145630    -0.5010270    -0.0428790
  C       -1.3460660    -0.1139160     0.0206840
  C        1.0420520    -0.8182650    -0.0594370
  C        2.7889293     0.9604054     0.0416610
  C       -2.0477590    -1.2949740     0.1722820
  C        3.4684270    -1.5756500    -0.0824610
  C        1.7493340     1.8260270     0.0926910
  C       -3.4286880    -0.9658200     0.0768380
  C       -3.4828100     0.3886030    -0.1245500
  H        0.7225460    -1.8551450    -0.1446860
  H        3.8080070     1.1710760     0.0438400
  H       -1.6259220    -2.2752860     0.3500510
  H        3.8398640    -1.7937090     0.9244500
  H        3.0687740    -2.5034170    -0.5007000
  H        4.3228250    -1.2652800    -0.6906580
  H        1.9977040     2.8869120     0.1452960
  H       -4.2730300    -1.6376780     0.1527080
  H       -4.2894270     1.0948070    -0.2563320
units angstrom
no_reorient  #important for SAPT in psi4, default
symmetry c1  #important for SAPT in psi4, default
}

set PROPERTIES_ORIGIN ["COM"]
properties('MP2/aug-cc-pvtz', properties = ['dipole'])
--------------------------------------------------------------------------

    Molecular point group: c1
  Charge       = 0
  Multiplicity = 1
  Basis Set: AUG-CC-PVTZ
    Blend: AUG-CC-PVTZ
  Basis Set: (AUG-CC-PVTZ AUX)
    Blend: AUG-CC-PVTZ-JKFIT

    Orbital Energies [Eh]
    ---------------------

    Doubly Occupied:

       1A    -20.623082     2A    -15.560631     3A    -11.298388
       4A    -11.297196     5A    -11.295393     6A    -11.282150
       7A    -11.269681     8A    -11.242025     9A    -11.241524
      10A    -11.241080    11A    -11.237362    12A    -11.235240
      13A     -1.455150    14A     -1.241669    15A     -1.094721
      16A     -1.088528    17A     -1.060968    18A     -0.989904
      19A     -0.968893    20A     -0.863745    21A     -0.830660
      22A     -0.799698    23A     -0.766270    24A     -0.728012
      25A     -0.682799    26A     -0.666001    27A     -0.639738
      28A     -0.634797    29A     -0.601542    30A     -0.589881
      31A     -0.583874    32A     -0.567793    33A     -0.563551
      34A     -0.547023    35A     -0.539063    36A     -0.524662
      37A     -0.494511    38A     -0.418323    39A     -0.403931
      40A     -0.375960    41A     -0.357418    42A     -0.291163

  @DF-RHF Final Energy:  -513.36537140639086

   => Energetics <=

    Nuclear Repulsion Energy =            627.7827745134986799
    One-Electron Energy =               -1941.9082886756636981
    Two-Electron Energy =                 800.7601427557741545
    Total Energy =                       -513.3653714063908637
  Basis Set: (AUG-CC-PVTZ AUX)
    Blend: AUG-CC-PVTZ-RI
    Molecular point group: c1

    Geometry (in Angstrom), charge = 0, multiplicity = 1:

       Center              X                  Y                   Z               Mass
    ------------   -----------------  -----------------  -----------------  -----------------
         O           -2.180880853946     0.873157313088    -0.161274471602    15.994914619570
         N            0.466468146054     1.484117313088     0.090099528398    14.003074004430
         C            0.127002146054     0.164873313088     0.015709528398    12.000000000000
         C            2.459840146054    -0.546856686912    -0.043158471602    12.000000000000
         C           -1.300788853946    -0.159745686912     0.020404528398    12.000000000000
         C            1.087329146054    -0.864094686912    -0.059716471602    12.000000000000
         C            2.834206446054     0.914575713088     0.041381528398    12.000000000000
         C           -2.002481853946    -1.340803686912     0.172002528398    12.000000000000
         C            3.513704146054    -1.621479686912    -0.082740471602    12.000000000000
         C            1.794611146054     1.780197313088     0.092411528398    12.000000000000
         C           -3.383410853946    -1.011649686912     0.076558528398    12.000000000000
         C           -3.437532853946     0.342773313088    -0.124829471602    12.000000000000
         H            0.767823146054    -1.900974686912    -0.144965471602     1.007825032230
         H            3.853284146054     1.125246313088     0.043560528398     1.007825032230
         H           -1.580644853946    -2.321115686912     0.349771528398     1.007825032230
         H            3.885141146054    -1.839538686912     0.924170528398     1.007825032230
         H            3.114051146054    -2.549246686912    -0.500979471602     1.007825032230
         H            4.368102146054    -1.311109686912    -0.690937471602     1.007825032230
         H            2.042981146054     2.841082313088     0.145016528398     1.007825032230
         H           -4.227752853946    -1.683507686912     0.152428528398     1.007825032230
         H           -4.244149853946     1.048977313088    -0.256611471602     1.007825032230

  Basis Set: AUG-CC-PVTZ
    Blend: AUG-CC-PVTZ
  Basis Set: (AUG-CC-PVTZ AUX)
    Blend: AUG-CC-PVTZ-JKFIT
	 Reference Energy          =    -513.3653714063908637 [Eh]
	 Singles Energy            =      -0.0000000000000000 [Eh]
	 Same-Spin Energy          =      -0.5585112488127827 [Eh]
	 Opposite-Spin Energy      =      -1.7137960369578003 [Eh]
	 Correlation Energy        =      -2.2723072857705828 [Eh]
	 Total Energy              =    -515.6376786921614439 [Eh]

	 ================> DF-SCS-MP2 Energies <==================
	-----------------------------------------------------------
	 SCS Same-Spin Scale       =       0.3333333333333333 [-]
	 SCS Opposite-Spin Scale   =       1.2000000000000000 [-]
	 SCS Same-Spin Energy      =      -0.1861704162709276 [Eh]
	 SCS Opposite-Spin Energy  =      -2.0565552443493602 [Eh]
	 SCS Correlation Energy    =      -2.2427256606202879 [Eh]
	 SCS Total Energy          =    -515.6080970670111583 [Eh]
	-----------------------------------------------------------

  Dipole Moment: [D]
     X:     1.4365      Y:    -2.4799      Z:    -0.0074     Total:     2.8659

*** Psi4 exiting successfully. Buy a developer a beer!
