                               Psi4 1.4a3.dev225

  ==> Input File <==

--------------------------------------------------------------------------
#psi4
#
memory 32 gb

molecule  {
0 1
  O       -2.2261580     0.9189870    -0.1609950
  N        0.4211910     1.5299470     0.0903790
  C        0.0817250     0.2107030     0.0159890
  C        2.4145630    -0.5010270    -0.0428790
  C       -1.3460660    -0.1139160     0.0206840
  C        1.0284255    -0.8036645    -0.0583667
  C        2.7641530     0.8636850     0.0360660
  C       -2.0477590    -1.2949740     0.1722820
  C        3.4684270    -1.5756500    -0.0824610
  C        1.7493340     1.8260270     0.0926910
  C       -3.4286880    -0.9658200     0.0768380
  C       -3.4828100     0.3886030    -0.1245500
  H        0.7225460    -1.8551450    -0.1446860
  H        3.8080070     1.1710760     0.0438400
  H       -1.6259220    -2.2752860     0.3500510
  H        3.8398640    -1.7937090     0.9244500
  H        3.0687740    -2.5034170    -0.5007000
  H        4.3228250    -1.2652800    -0.6906580
  H        1.9977040     2.8869120     0.1452960
  H       -4.2730300    -1.6376780     0.1527080
  H       -4.2894270     1.0948070    -0.2563320
units angstrom
no_reorient  #important for SAPT in psi4, default
symmetry c1  #important for SAPT in psi4, default
}

set PROPERTIES_ORIGIN ["COM"]
properties('MP2/aug-cc-pvtz', properties = ['dipole'])
--------------------------------------------------------------------------

    Molecular point group: c1
  Charge       = 0
  Multiplicity = 1
  Basis Set: AUG-CC-PVTZ
    Blend: AUG-CC-PVTZ
  Basis Set: (AUG-CC-PVTZ AUX)
    Blend: AUG-CC-PVTZ-JKFIT

    Orbital Energies [Eh]
    ---------------------

    Doubly Occupied:

       1A    -20.621426     2A    -15.563463     3A    -11.296743
       4A    -11.292539     5A    -11.291762     6A    -11.279065
       7A    -11.273533     8A    -11.242419     9A    -11.240517
      10A    -11.238796    11A    -11.238126    12A    -11.233366
      13A     -1.453438    14A     -1.245008    15A     -1.103334
      16A     -1.087531    17A     -1.058893    18A     -0.984324
      19A     -0.969588    20A     -0.861698    21A     -0.837131
      22A     -0.799658    23A     -0.764766    24A     -0.728530
      25A     -0.672279    26A     -0.669396    27A     -0.638388
      28A     -0.633161    29A     -0.600234    30A     -0.591163
      31A     -0.578284    32A     -0.565710    33A     -0.559242
      34A     -0.548634    35A     -0.540336    36A     -0.526456
      37A     -0.507403    38A     -0.418301    39A     -0.402206
      40A     -0.376156    41A     -0.361985    42A     -0.288342

  @DF-RHF Final Energy:  -513.37675155508543

   => Energetics <=

    Nuclear Repulsion Energy =            629.1725508444014849
    One-Electron Energy =               -1944.7319452618773994
    Two-Electron Energy =                 802.1826428623904803
    Total Energy =                       -513.3767515550854341
  Basis Set: (AUG-CC-PVTZ AUX)
    Blend: AUG-CC-PVTZ-RI
    Molecular point group: c1

    Geometry (in Angstrom), charge = 0, multiplicity = 1:

       Center              X                  Y                   Z               Mass
    ------------   -----------------  -----------------  -----------------  -----------------
         O           -2.177983775962     0.879352375802    -0.160933131680    15.994914619570
         N            0.469365224038     1.490312375802     0.090440868320    14.003074004430
         C            0.129899224038     0.171068375802     0.016050868320    12.000000000000
         C            2.462737224038    -0.540661624198    -0.042817131680    12.000000000000
         C           -1.297891775962    -0.153550624198     0.020745868320    12.000000000000
         C            1.076599724038    -0.843299124198    -0.058304831680    12.000000000000
         C            2.812327224038     0.824050375802     0.036127868320    12.000000000000
         C           -1.999584775962    -1.334608624198     0.172343868320    12.000000000000
         C            3.516601224038    -1.615284624198    -0.082399131680    12.000000000000
         C            1.797508224038     1.786392375802     0.092752868320    12.000000000000
         C           -3.380513775962    -1.005454624198     0.076899868320    12.000000000000
         C           -3.434635775962     0.348968375802    -0.124488131680    12.000000000000
         H            0.770720224038    -1.894779624198    -0.144624131680     1.007825032230
         H            3.856181224038     1.131441375802     0.043901868320     1.007825032230
         H           -1.577747775962    -2.314920624198     0.350112868320     1.007825032230
         H            3.888038224038    -1.833343624198     0.924511868320     1.007825032230
         H            3.116948224038    -2.543051624198    -0.500638131680     1.007825032230
         H            4.370999224038    -1.304914624198    -0.690596131680     1.007825032230
         H            2.045878224038     2.847277375802     0.145357868320     1.007825032230
         H           -4.224855775962    -1.677312624198     0.152769868320     1.007825032230
         H           -4.241252775962     1.055172375802    -0.256270131680     1.007825032230

  Basis Set: AUG-CC-PVTZ
    Blend: AUG-CC-PVTZ
  Basis Set: (AUG-CC-PVTZ AUX)
    Blend: AUG-CC-PVTZ-JKFIT
	 Reference Energy          =    -513.3767515550854341 [Eh]
	 Singles Energy            =      -0.0000000000000000 [Eh]
	 Same-Spin Energy          =      -0.5591073573003182 [Eh]
	 Opposite-Spin Energy      =      -1.7136704951443553 [Eh]
	 Correlation Energy        =      -2.2727778524446736 [Eh]
	 Total Energy              =    -515.6495294075300535 [Eh]

	 ================> DF-SCS-MP2 Energies <==================
	-----------------------------------------------------------
	 SCS Same-Spin Scale       =       0.3333333333333333 [-]
	 SCS Opposite-Spin Scale   =       1.2000000000000000 [-]
	 SCS Same-Spin Energy      =      -0.1863691191001061 [Eh]
	 SCS Opposite-Spin Energy  =      -2.0564045941732263 [Eh]
	 SCS Correlation Energy    =      -2.2427737132733325 [Eh]
	 SCS Total Energy          =    -515.6195252683587569 [Eh]
	-----------------------------------------------------------

  Dipole Moment: [D]
     X:     1.5310      Y:    -2.3723      Z:    -0.0044     Total:     2.8234

*** Psi4 exiting successfully. Buy a developer a beer!
