                               Psi4 1.4a3.dev225

  ==> Input File <==

--------------------------------------------------------------------------
#psi4
#
memory 32 gb

molecule  {
0 1
  O       -2.2261580     0.9189870    -0.1609950
  N        0.4211910     1.5299470     0.0903790
  C        0.0817250     0.2107030     0.0159890
  C        2.4145630    -0.5010270    -0.0428790
  C       -1.3460660    -0.1139160     0.0206840
  C        1.0420520    -0.8182650    -0.0594370
  C        2.7641530     0.8636850     0.0360660
  C       -2.0477590    -1.2949740     0.1722820
  C        3.4684270    -1.5756500    -0.0824610
  C        1.7493340     1.8260270     0.0926910
  C       -3.4286880    -0.9658200     0.0768380
  C       -3.4828100     0.3886030    -0.1245500
  H        0.7225460    -1.8551450    -0.1446860
  H        3.8080070     1.1710760     0.0438400
  H       -1.6259220    -2.2752860     0.3500510
  H        3.8398640    -1.7937090     0.9244500
  H        3.0687740    -2.5034170    -0.5007000
  H        4.3228250    -1.2652800    -0.6906580
  H        1.9977040     2.8869120     0.1452960
  H       -4.2730300    -1.6376780     0.1527080
  H       -4.3267652     1.1274971    -0.2624322
units angstrom
no_reorient  #important for SAPT in psi4, default
symmetry c1  #important for SAPT in psi4, default
}

set PROPERTIES_ORIGIN ["COM"]
properties('MP2/aug-cc-pvtz', properties = ['dipole'])
--------------------------------------------------------------------------

    Molecular point group: c1
  Charge       = 0
  Multiplicity = 1
  Basis Set: AUG-CC-PVTZ
    Blend: AUG-CC-PVTZ
  Basis Set: (AUG-CC-PVTZ AUX)
    Blend: AUG-CC-PVTZ-JKFIT

    Orbital Energies [Eh]
    ---------------------

    Doubly Occupied:

       1A    -20.622330     2A    -15.563745     3A    -11.298628
       4A    -11.297397     5A    -11.294527     6A    -11.278765
       7A    -11.271887     8A    -11.242556     9A    -11.239512
      10A    -11.239207    11A    -11.238495    12A    -11.234146
      13A     -1.454240    14A     -1.244215    15A     -1.104314
      16A     -1.088085    17A     -1.057450    18A     -0.982980
      19A     -0.967924    20A     -0.862512    21A     -0.835013
      22A     -0.799134    23A     -0.764462    24A     -0.724191
      25A     -0.672643    26A     -0.667864    27A     -0.637790
      28A     -0.633809    29A     -0.597811    30A     -0.590640
      31A     -0.578065    32A     -0.566161    33A     -0.558655
      34A     -0.546982    35A     -0.538994    36A     -0.525374
      37A     -0.509873    38A     -0.417693    39A     -0.402697
      40A     -0.376033    41A     -0.362566    42A     -0.287968

  @DF-RHF Final Energy:  -513.37463999546424

   => Energetics <=

    Nuclear Repulsion Energy =            628.6727445928222551
    One-Electron Energy =               -1943.7400995914840678
    Two-Electron Energy =                 801.6927150031975771
    Total Energy =                       -513.3746399954642357
  Basis Set: (AUG-CC-PVTZ AUX)
    Blend: AUG-CC-PVTZ-RI
    Molecular point group: c1

    Geometry (in Angstrom), charge = 0, multiplicity = 1:

       Center              X                  Y                   Z               Mass
    ------------   -----------------  -----------------  -----------------  -----------------
         O           -2.178775181523     0.880246708595    -0.160813739440    15.994914619570
         N            0.468573818477     1.491206708595     0.090560260560    14.003074004430
         C            0.129107818477     0.171962708595     0.016170260560    12.000000000000
         C            2.461945818477    -0.539767291405    -0.042697739440    12.000000000000
         C           -1.298683181523    -0.152656291405     0.020865260560    12.000000000000
         C            1.089434818477    -0.857005291405    -0.059255739440    12.000000000000
         C            2.811535818477     0.824944708595     0.036247260560    12.000000000000
         C           -2.000376181523    -1.333714291405     0.172463260560    12.000000000000
         C            3.515809818477    -1.614390291405    -0.082279739440    12.000000000000
         C            1.796716818477     1.787286708595     0.092872260560    12.000000000000
         C           -3.381305181523    -1.004560291405     0.077019260560    12.000000000000
         C           -3.435427181523     0.349862708595    -0.124368739440    12.000000000000
         H            0.769928818477    -1.893885291405    -0.144504739440     1.007825032230
         H            3.855389818477     1.132335708595     0.044021260560     1.007825032230
         H           -1.578539181523    -2.314026291405     0.350232260560     1.007825032230
         H            3.887246818477    -1.832449291405     0.924631260560     1.007825032230
         H            3.116156818477    -2.542157291405    -0.500518739440     1.007825032230
         H            4.370207818477    -1.304020291405    -0.690476739440     1.007825032230
         H            2.045086818477     2.848171708595     0.145477260560     1.007825032230
         H           -4.225647181523    -1.676418291405     0.152889260560     1.007825032230
         H           -4.279382381523     1.088756808595    -0.262250939440     1.007825032230

  Basis Set: AUG-CC-PVTZ
    Blend: AUG-CC-PVTZ
  Basis Set: (AUG-CC-PVTZ AUX)
    Blend: AUG-CC-PVTZ-JKFIT
	 Reference Energy          =    -513.3746399954642357 [Eh]
	 Singles Energy            =      -0.0000000000000000 [Eh]
	 Same-Spin Energy          =      -0.5591954122631224 [Eh]
	 Opposite-Spin Energy      =      -1.7140710497230205 [Eh]
	 Correlation Energy        =      -2.2732664619861431 [Eh]
	 Total Energy              =    -515.6479064574504037 [Eh]

	 ================> DF-SCS-MP2 Energies <==================
	-----------------------------------------------------------
	 SCS Same-Spin Scale       =       0.3333333333333333 [-]
	 SCS Opposite-Spin Scale   =       1.2000000000000000 [-]
	 SCS Same-Spin Energy      =      -0.1863984707543741 [Eh]
	 SCS Opposite-Spin Energy  =      -2.0568852596676246 [Eh]
	 SCS Correlation Energy    =      -2.2432837304219988 [Eh]
	 SCS Total Energy          =    -515.6179237258862713 [Eh]
	-----------------------------------------------------------

  Dipole Moment: [D]
     X:     1.4828      Y:    -2.3673      Z:    -0.0054     Total:     2.7933

*** Psi4 exiting successfully. Buy a developer a beer!
