                               Psi4 1.4a3.dev225

  ==> Input File <==

--------------------------------------------------------------------------
#psi4
#
memory 32 gb

molecule  {
0 1
  O       -2.2261580     0.9189870    -0.1609950
  N        0.4211910     1.5299470     0.0903790
  C        0.0817250     0.2107030     0.0159890
  C        2.4866311    -0.4370333    -0.0009785
  C       -1.3460660    -0.1139160     0.0206840
  C        1.0420520    -0.8182650    -0.0594370
  C        2.7641530     0.8636850     0.0360660
  C       -2.0477590    -1.2949740     0.1722820
  C        3.4684270    -1.5756500    -0.0824610
  C        1.7493340     1.8260270     0.0926910
  C       -3.4286880    -0.9658200     0.0768380
  C       -3.4828100     0.3886030    -0.1245500
  H        0.7225460    -1.8551450    -0.1446860
  H        3.8080070     1.1710760     0.0438400
  H       -1.6259220    -2.2752860     0.3500510
  H        3.8398640    -1.7937090     0.9244500
  H        3.0687740    -2.5034170    -0.5007000
  H        4.3228250    -1.2652800    -0.6906580
  H        1.9977040     2.8869120     0.1452960
  H       -4.2730300    -1.6376780     0.1527080
  H       -4.2894270     1.0948070    -0.2563320
units angstrom
no_reorient  #important for SAPT in psi4, default
symmetry c1  #important for SAPT in psi4, default
}

set PROPERTIES_ORIGIN ["COM"]
properties('MP2/aug-cc-pvtz', properties = ['dipole'])
--------------------------------------------------------------------------

    Molecular point group: c1
  Charge       = 0
  Multiplicity = 1
  Basis Set: AUG-CC-PVTZ
    Blend: AUG-CC-PVTZ
  Basis Set: (AUG-CC-PVTZ AUX)
    Blend: AUG-CC-PVTZ-JKFIT

    Orbital Energies [Eh]
    ---------------------

    Doubly Occupied:

       1A    -20.620295     2A    -15.565050     3A    -11.295469
       4A    -11.290770     5A    -11.290624     6A    -11.283990
       7A    -11.271866     8A    -11.248360     9A    -11.240444
      10A    -11.236085    11A    -11.232420    12A    -11.232182
      13A     -1.452258    14A     -1.244874    15A     -1.108736
      16A     -1.086147    17A     -1.056018    18A     -0.985549
      19A     -0.965775    20A     -0.864567    21A     -0.836900
      22A     -0.799393    23A     -0.762387    24A     -0.725425
      25A     -0.675675    26A     -0.667945    27A     -0.640780
      28A     -0.632048    29A     -0.598994    30A     -0.592093
      31A     -0.577964    32A     -0.566287    33A     -0.561514
      34A     -0.550237    35A     -0.538371    36A     -0.525405
      37A     -0.500120    38A     -0.418394    39A     -0.402360
      40A     -0.383722    41A     -0.355456    42A     -0.286736

  @DF-RHF Final Energy:  -513.36495481982888

   => Energetics <=

    Nuclear Repulsion Energy =            628.6432091055405635
    One-Electron Energy =               -1943.6769661193525280
    Two-Electron Energy =                 801.6688021939830833
    Total Energy =                       -513.3649548198288812
  Basis Set: (AUG-CC-PVTZ AUX)
    Blend: AUG-CC-PVTZ-RI
    Molecular point group: c1

    Geometry (in Angstrom), charge = 0, multiplicity = 1:

       Center              X                  Y                   Z               Mass
    ------------   -----------------  -----------------  -----------------  -----------------
         O           -2.184448511321     0.875626190412    -0.164013330872    15.994914619570
         N            0.462900488679     1.486586190412     0.087360669128    14.003074004430
         C            0.123434488679     0.167342190412     0.012970669128    12.000000000000
         C            2.528340588679    -0.480394109588    -0.003996830872    12.000000000000
         C           -1.304356511321    -0.157276809588     0.017665669128    12.000000000000
         C            1.083761488679    -0.861625809588    -0.062455330872    12.000000000000
         C            2.805862488679     0.820324190412     0.033047669128    12.000000000000
         C           -2.006049511321    -1.338334809588     0.169263669128    12.000000000000
         C            3.510136488679    -1.619010809588    -0.085479330872    12.000000000000
         C            1.791043488679     1.782666190412     0.089672669128    12.000000000000
         C           -3.386978511321    -1.009180809588     0.073819669128    12.000000000000
         C           -3.441100511321     0.345242190412    -0.127568330872    12.000000000000
         H            0.764255488679    -1.898505809588    -0.147704330872     1.007825032230
         H            3.849716488679     1.127715190412     0.040821669128     1.007825032230
         H           -1.584212511321    -2.318646809588     0.347032669128     1.007825032230
         H            3.881573488679    -1.837069809588     0.921431669128     1.007825032230
         H            3.110483488679    -2.546777809588    -0.503718330872     1.007825032230
         H            4.364534488679    -1.308640809588    -0.693676330872     1.007825032230
         H            2.039413488679     2.843551190412     0.142277669128     1.007825032230
         H           -4.231320511321    -1.681038809588     0.149689669128     1.007825032230
         H           -4.247717511321     1.051446190412    -0.259350330872     1.007825032230

  Basis Set: AUG-CC-PVTZ
    Blend: AUG-CC-PVTZ
  Basis Set: (AUG-CC-PVTZ AUX)
    Blend: AUG-CC-PVTZ-JKFIT
	 Reference Energy          =    -513.3649548198288812 [Eh]
	 Singles Energy            =      -0.0000000000000000 [Eh]
	 Same-Spin Energy          =      -0.5590152635621860 [Eh]
	 Opposite-Spin Energy      =      -1.7142507734847303 [Eh]
	 Correlation Energy        =      -2.2732660370469162 [Eh]
	 Total Energy              =    -515.6382208568758188 [Eh]

	 ================> DF-SCS-MP2 Energies <==================
	-----------------------------------------------------------
	 SCS Same-Spin Scale       =       0.3333333333333333 [-]
	 SCS Opposite-Spin Scale   =       1.2000000000000000 [-]
	 SCS Same-Spin Energy      =      -0.1863384211873953 [Eh]
	 SCS Opposite-Spin Energy  =      -2.0571009281816761 [Eh]
	 SCS Correlation Energy    =      -2.2434393493690714 [Eh]
	 SCS Total Energy          =    -515.6083941691979362 [Eh]
	-----------------------------------------------------------

  Dipole Moment: [D]
     X:     1.5782      Y:    -2.3525      Z:    -0.0202     Total:     2.8329

*** Psi4 exiting successfully. Buy a developer a beer!
