                               Psi4 1.4a3.dev225

  ==> Input File <==

--------------------------------------------------------------------------
#psi4
#
memory 32 gb

molecule  {
0 1
  O       -2.2261580     0.9189870    -0.1609950
  N        0.4211910     1.5299470     0.0903790
  C        0.0817250     0.2107030     0.0159890
  C        2.4145630    -0.5010270    -0.0428790
  C       -1.3460660    -0.1139160     0.0206840
  C        1.0420520    -0.8182650    -0.0594370
  C        2.7641530     0.8636850     0.0360660
  C       -2.0477590    -1.2949740     0.1722820
  C        3.4684270    -1.5756500    -0.0824610
  C        1.7493340     1.8260270     0.0926910
  C       -3.3333567    -0.9583100     0.0790111
  C       -3.4828100     0.3886030    -0.1245500
  H        0.7225460    -1.8551450    -0.1446860
  H        3.8080070     1.1710760     0.0438400
  H       -1.6259220    -2.2752860     0.3500510
  H        3.8398640    -1.7937090     0.9244500
  H        3.0687740    -2.5034170    -0.5007000
  H        4.3228250    -1.2652800    -0.6906580
  H        1.9977040     2.8869120     0.1452960
  H       -4.2730300    -1.6376780     0.1527080
  H       -4.2894270     1.0948070    -0.2563320
units angstrom
no_reorient  #important for SAPT in psi4, default
symmetry c1  #important for SAPT in psi4, default
}

set PROPERTIES_ORIGIN ["COM"]
properties('MP2/aug-cc-pvtz', properties = ['dipole'])
--------------------------------------------------------------------------

    Molecular point group: c1
  Charge       = 0
  Multiplicity = 1
  Basis Set: AUG-CC-PVTZ
    Blend: AUG-CC-PVTZ
  Basis Set: (AUG-CC-PVTZ AUX)
    Blend: AUG-CC-PVTZ-JKFIT

    Orbital Energies [Eh]
    ---------------------

    Doubly Occupied:

       1A    -20.623342     2A    -15.563133     3A    -11.296945
       4A    -11.294036     5A    -11.289586     6A    -11.278591
       7A    -11.271803     8A    -11.242368     9A    -11.239462
      10A    -11.238115    11A    -11.232483    12A    -11.230572
      13A     -1.456554    14A     -1.243845    15A     -1.107103
      16A     -1.102602    17A     -1.058173    18A     -0.983207
      19A     -0.968238    20A     -0.863087    21A     -0.837819
      22A     -0.794463    23A     -0.768706    24A     -0.728096
      25A     -0.672809    26A     -0.667692    27A     -0.640671
      28A     -0.635688    29A     -0.599065    30A     -0.590618
      31A     -0.586873    32A     -0.565000    33A     -0.550437
      34A     -0.547000    35A     -0.538161    36A     -0.525062
      37A     -0.508911    38A     -0.417878    39A     -0.413377
      40A     -0.375835    41A     -0.362455    42A     -0.283048

  @DF-RHF Final Energy:  -513.36240598025438

   => Energetics <=

    Nuclear Repulsion Energy =            630.8531169024698784
    One-Electron Energy =               -1948.0452228071569607
    Two-Electron Energy =                 803.8296999244328163
    Total Energy =                       -513.3624059802543798
  Basis Set: (AUG-CC-PVTZ AUX)
    Blend: AUG-CC-PVTZ-RI
    Molecular point group: c1

    Geometry (in Angstrom), charge = 0, multiplicity = 1:

       Center              X                  Y                   Z               Mass
    ------------   -----------------  -----------------  -----------------  -----------------
         O           -2.186203469412     0.879887277722    -0.161016326072    15.994914619570
         N            0.461145530588     1.490847277722     0.090357673928    14.003074004430
         C            0.121679530588     0.171603277722     0.015967673928    12.000000000000
         C            2.454517530588    -0.540126722278    -0.042900326072    12.000000000000
         C           -1.306111469412    -0.153015722278     0.020662673928    12.000000000000
         C            1.082006530588    -0.857364722278    -0.059458326072    12.000000000000
         C            2.804107530588     0.824585277722     0.036044673928    12.000000000000
         C           -2.007804469412    -1.334073722278     0.172260673928    12.000000000000
         C            3.508381530588    -1.614749722278    -0.082482326072    12.000000000000
         C            1.789288530588     1.786927277722     0.092669673928    12.000000000000
         C           -3.293402169412    -0.997409722278     0.078989773928    12.000000000000
         C           -3.442855469412     0.349503277722    -0.124571326072    12.000000000000
         H            0.762500530588    -1.894244722278    -0.144707326072     1.007825032230
         H            3.847961530588     1.131976277722     0.043818673928     1.007825032230
         H           -1.585967469412    -2.314385722278     0.350029673928     1.007825032230
         H            3.879818530588    -1.832808722278     0.924428673928     1.007825032230
         H            3.108728530588    -2.542516722278    -0.500721326072     1.007825032230
         H            4.362779530588    -1.304379722278    -0.690679326072     1.007825032230
         H            2.037658530588     2.847812277722     0.145274673928     1.007825032230
         H           -4.233075469412    -1.676777722278     0.152686673928     1.007825032230
         H           -4.249472469412     1.055707277722    -0.256353326072     1.007825032230

  Basis Set: AUG-CC-PVTZ
    Blend: AUG-CC-PVTZ
  Basis Set: (AUG-CC-PVTZ AUX)
    Blend: AUG-CC-PVTZ-JKFIT
	 Reference Energy          =    -513.3624059802543798 [Eh]
	 Singles Energy            =      -0.0000000000000000 [Eh]
	 Same-Spin Energy          =      -0.5609891685015760 [Eh]
	 Opposite-Spin Energy      =      -1.7154058297185872 [Eh]
	 Correlation Energy        =      -2.2763949982201632 [Eh]
	 Total Energy              =    -515.6388009784745918 [Eh]

	 ================> DF-SCS-MP2 Energies <==================
	-----------------------------------------------------------
	 SCS Same-Spin Scale       =       0.3333333333333333 [-]
	 SCS Opposite-Spin Scale   =       1.2000000000000000 [-]
	 SCS Same-Spin Energy      =      -0.1869963895005253 [Eh]
	 SCS Opposite-Spin Energy  =      -2.0584869956623044 [Eh]
	 SCS Correlation Energy    =      -2.2454833851628297 [Eh]
	 SCS Total Energy          =    -515.6078893654172361 [Eh]
	-----------------------------------------------------------

  Dipole Moment: [D]
     X:     1.4467      Y:    -2.3561      Z:    -0.0077     Total:     2.7648

*** Psi4 exiting successfully. Buy a developer a beer!
