                               Psi4 1.4a3.dev225

  ==> Input File <==

--------------------------------------------------------------------------
#psi4
#
memory 32 gb

molecule  {
0 1
  O       -2.2261580     0.9189870    -0.1609950
  N        0.4211910     1.5299470     0.0903790
  C        0.0817250     0.2107030     0.0159890
  C        2.4145630    -0.5010270    -0.0428790
  C       -1.3460660    -0.1139160     0.0206840
  C        1.0420520    -0.8182650    -0.0594370
  C        2.7641530     0.8636850     0.0360660
  C       -2.0477590    -1.2949740     0.1722820
  C        3.4684270    -1.5756500    -0.0824610
  C        1.7493340     1.8260270     0.0926910
  C       -3.4286880    -0.9658200     0.0768380
  C       -3.3871953     0.3894204    -0.1220335
  H        0.7225460    -1.8551450    -0.1446860
  H        3.8080070     1.1710760     0.0438400
  H       -1.6259220    -2.2752860     0.3500510
  H        3.8398640    -1.7937090     0.9244500
  H        3.0687740    -2.5034170    -0.5007000
  H        4.3228250    -1.2652800    -0.6906580
  H        1.9977040     2.8869120     0.1452960
  H       -4.2730300    -1.6376780     0.1527080
  H       -4.2894270     1.0948070    -0.2563320
units angstrom
no_reorient  #important for SAPT in psi4, default
symmetry c1  #important for SAPT in psi4, default
}

set PROPERTIES_ORIGIN ["COM"]
properties('MP2/aug-cc-pvtz', properties = ['dipole'])
--------------------------------------------------------------------------

    Molecular point group: c1
  Charge       = 0
  Multiplicity = 1
  Basis Set: AUG-CC-PVTZ
    Blend: AUG-CC-PVTZ
  Basis Set: (AUG-CC-PVTZ AUX)
    Blend: AUG-CC-PVTZ-JKFIT

    Orbital Energies [Eh]
    ---------------------

    Doubly Occupied:

       1A    -20.635641     2A    -15.561792     3A    -11.299128
       4A    -11.294201     5A    -11.292575     6A    -11.277945
       7A    -11.270861     8A    -11.242813     9A    -11.240250
      10A    -11.238654    11A    -11.236198    12A    -11.227752
      13A     -1.498115    14A     -1.243415    15A     -1.103121
      16A     -1.096068    17A     -1.058314    18A     -0.985128
      19A     -0.967608    20A     -0.860474    21A     -0.835086
      22A     -0.811451    23A     -0.771039    24A     -0.726684
      25A     -0.672242    26A     -0.666737    27A     -0.658109
      28A     -0.640445    29A     -0.605170    30A     -0.589954
      31A     -0.581301    32A     -0.575465    33A     -0.557149
      34A     -0.546165    35A     -0.527506    36A     -0.522185
      37A     -0.508775    38A     -0.416826    39A     -0.407340
      40A     -0.374519    41A     -0.361519    42A     -0.285003

  @DF-RHF Final Energy:  -513.36923102652895

   => Energetics <=

    Nuclear Repulsion Energy =            631.2217299354861098
    One-Electron Energy =               -1948.6404760327438908
    Two-Electron Energy =                 804.0495150707288303
    Total Energy =                       -513.3692310265289507
  Basis Set: (AUG-CC-PVTZ AUX)
    Blend: AUG-CC-PVTZ-RI
    Molecular point group: c1

    Geometry (in Angstrom), charge = 0, multiplicity = 1:

       Center              X                  Y                   Z               Mass
    ------------   -----------------  -----------------  -----------------  -----------------
         O           -2.186224848892     0.880392162369    -0.161042231907    15.994914619570
         N            0.461124151108     1.491352162369     0.090331768093    14.003074004430
         C            0.121658151108     0.172108162369     0.015941768093    12.000000000000
         C            2.454496151108    -0.539621837631    -0.042926231907    12.000000000000
         C           -1.306132848892    -0.152510837631     0.020636768093    12.000000000000
         C            1.081985151108    -0.856859837631    -0.059484231907    12.000000000000
         C            2.804086151108     0.825090162369     0.036018768093    12.000000000000
         C           -2.007825848892    -1.333568837631     0.172234768093    12.000000000000
         C            3.508360151108    -1.614244837631    -0.082508231907    12.000000000000
         C            1.789267151108     1.787432162369     0.092643768093    12.000000000000
         C           -3.388754848892    -1.004414837631     0.076790768093    12.000000000000
         C           -3.347262148892     0.350825562369    -0.122080731907    12.000000000000
         H            0.762479151108    -1.893739837631    -0.144733231907     1.007825032230
         H            3.847940151108     1.132481162369     0.043792768093     1.007825032230
         H           -1.585988848892    -2.313880837631     0.350003768093     1.007825032230
         H            3.879797151108    -1.832303837631     0.924402768093     1.007825032230
         H            3.108707151108    -2.542011837631    -0.500747231907     1.007825032230
         H            4.362758151108    -1.303874837631    -0.690705231907     1.007825032230
         H            2.037637151108     2.848317162369     0.145248768093     1.007825032230
         H           -4.233096848892    -1.676272837631     0.152660768093     1.007825032230
         H           -4.249493848892     1.056212162369    -0.256379231907     1.007825032230

  Basis Set: AUG-CC-PVTZ
    Blend: AUG-CC-PVTZ
  Basis Set: (AUG-CC-PVTZ AUX)
    Blend: AUG-CC-PVTZ-JKFIT
	 Reference Energy          =    -513.3692310265289507 [Eh]
	 Singles Energy            =      -0.0000000000000000 [Eh]
	 Same-Spin Energy          =      -0.5588716922799718 [Eh]
	 Opposite-Spin Energy      =      -1.7116428615225936 [Eh]
	 Correlation Energy        =      -2.2705145538025655 [Eh]
	 Total Energy              =    -515.6397455803314642 [Eh]

	 ================> DF-SCS-MP2 Energies <==================
	-----------------------------------------------------------
	 SCS Same-Spin Scale       =       0.3333333333333333 [-]
	 SCS Opposite-Spin Scale   =       1.2000000000000000 [-]
	 SCS Same-Spin Energy      =      -0.1862905640933239 [Eh]
	 SCS Opposite-Spin Energy  =      -2.0539714338271122 [Eh]
	 SCS Correlation Energy    =      -2.2402619979204363 [Eh]
	 SCS Total Energy          =    -515.6094930244494208 [Eh]
	-----------------------------------------------------------

  Dipole Moment: [D]
     X:     1.4910      Y:    -2.3459      Z:    -0.0092     Total:     2.7797

*** Psi4 exiting successfully. Buy a developer a beer!
