                               Psi4 1.4a3.dev225

  ==> Input File <==

--------------------------------------------------------------------------
#psi4
#
memory 32 gb

molecule  {
0 1
  O       -2.2261580     0.9189870    -0.1609950
  N        0.4211910     1.5299470     0.0903790
  C        0.0817250     0.2107030     0.0159890
  C        2.4145630    -0.5010270    -0.0428790
  C       -1.3460660    -0.1139160     0.0206840
  C        1.0420520    -0.8182650    -0.0594370
  C        2.7393767     0.7669646     0.0304710
  C       -2.0477590    -1.2949740     0.1722820
  C        3.4684270    -1.5756500    -0.0824610
  C        1.7493340     1.8260270     0.0926910
  C       -3.4286880    -0.9658200     0.0768380
  C       -3.4828100     0.3886030    -0.1245500
  H        0.7225460    -1.8551450    -0.1446860
  H        3.8080070     1.1710760     0.0438400
  H       -1.6259220    -2.2752860     0.3500510
  H        3.8398640    -1.7937090     0.9244500
  H        3.0687740    -2.5034170    -0.5007000
  H        4.3228250    -1.2652800    -0.6906580
  H        1.9977040     2.8869120     0.1452960
  H       -4.2730300    -1.6376780     0.1527080
  H       -4.2894270     1.0948070    -0.2563320
units angstrom
no_reorient  #important for SAPT in psi4, default
symmetry c1  #important for SAPT in psi4, default
}

set PROPERTIES_ORIGIN ["COM"]
properties('MP2/aug-cc-pvtz', properties = ['dipole'])
--------------------------------------------------------------------------

    Molecular point group: c1
  Charge       = 0
  Multiplicity = 1
  Basis Set: AUG-CC-PVTZ
    Blend: AUG-CC-PVTZ
  Basis Set: (AUG-CC-PVTZ AUX)
    Blend: AUG-CC-PVTZ-JKFIT

    Orbital Energies [Eh]
    ---------------------

    Doubly Occupied:

       1A    -20.620846     2A    -15.567049     3A    -11.296367
       4A    -11.291811     5A    -11.291260     6A    -11.288240
       7A    -11.257637     8A    -11.243034     9A    -11.238873
      10A    -11.237571    11A    -11.236534    12A    -11.232644
      13A     -1.452852    14A     -1.247101    15A     -1.118833
      16A     -1.086379    17A     -1.054941    18A     -0.979559
      19A     -0.967199    20A     -0.867524    21A     -0.837726
      22A     -0.800420    23A     -0.763240    24A     -0.727653
      25A     -0.673285    26A     -0.666066    27A     -0.639731
      28A     -0.632681    29A     -0.598026    30A     -0.591938
      31A     -0.575016    32A     -0.565272    33A     -0.554399
      34A     -0.547276    35A     -0.540956    36A     -0.526412
      37A     -0.514553    38A     -0.414576    39A     -0.401754
      40A     -0.385082    41A     -0.362669    42A     -0.284958

  @DF-RHF Final Energy:  -513.36512585951482

   => Energetics <=

    Nuclear Repulsion Energy =            630.2072271377758170
    One-Electron Energy =               -1946.7848184550414317
    Two-Electron Energy =                 803.2124654577507954
    Total Energy =                       -513.3651258595148192
  Basis Set: (AUG-CC-PVTZ AUX)
    Blend: AUG-CC-PVTZ-RI
    Molecular point group: c1

    Geometry (in Angstrom), charge = 0, multiplicity = 1:

       Center              X                  Y                   Z               Mass
    ------------   -----------------  -----------------  -----------------  -----------------
         O           -2.177142643541     0.887750339717    -0.160430306524    15.994914619570
         N            0.470206356459     1.498710339717     0.090943693476    14.003074004430
         C            0.130740356459     0.179466339717     0.016553693476    12.000000000000
         C            2.463578356459    -0.532263660283    -0.042314306524    12.000000000000
         C           -1.297050643541    -0.145152660283     0.021248693476    12.000000000000
         C            1.091067356459    -0.849501660283    -0.058872306524    12.000000000000
         C            2.788392056459     0.735727939717     0.031035693476    12.000000000000
         C           -1.998743643541    -1.326210660283     0.172846693476    12.000000000000
         C            3.517442356459    -1.606886660283    -0.081896306524    12.000000000000
         C            1.798349356459     1.794790339717     0.093255693476    12.000000000000
         C           -3.379672643541    -0.997056660283     0.077402693476    12.000000000000
         C           -3.433794643541     0.357366339717    -0.123985306524    12.000000000000
         H            0.771561356459    -1.886381660283    -0.144121306524     1.007825032230
         H            3.857022356459     1.139839339717     0.044404693476     1.007825032230
         H           -1.576906643541    -2.306522660283     0.350615693476     1.007825032230
         H            3.888879356459    -1.824945660283     0.925014693476     1.007825032230
         H            3.117789356459    -2.534653660283    -0.500135306524     1.007825032230
         H            4.371840356459    -1.296516660283    -0.690093306524     1.007825032230
         H            2.046719356459     2.855675339717     0.145860693476     1.007825032230
         H           -4.224014643541    -1.668914660283     0.153272693476     1.007825032230
         H           -4.240411643541     1.063570339717    -0.255767306524     1.007825032230

  Basis Set: AUG-CC-PVTZ
    Blend: AUG-CC-PVTZ
  Basis Set: (AUG-CC-PVTZ AUX)
    Blend: AUG-CC-PVTZ-JKFIT
	 Reference Energy          =    -513.3651258595148192 [Eh]
	 Singles Energy            =      -0.0000000000000000 [Eh]
	 Same-Spin Energy          =      -0.5593133848125098 [Eh]
	 Opposite-Spin Energy      =      -1.7142888058321912 [Eh]
	 Correlation Energy        =      -2.2736021906447013 [Eh]
	 Total Energy              =    -515.6387280501595569 [Eh]

	 ================> DF-SCS-MP2 Energies <==================
	-----------------------------------------------------------
	 SCS Same-Spin Scale       =       0.3333333333333333 [-]
	 SCS Opposite-Spin Scale   =       1.2000000000000000 [-]
	 SCS Same-Spin Energy      =      -0.1864377949375033 [Eh]
	 SCS Opposite-Spin Energy  =      -2.0571465669986293 [Eh]
	 SCS Correlation Energy    =      -2.2435843619361324 [Eh]
	 SCS Total Energy          =    -515.6087102214509059 [Eh]
	-----------------------------------------------------------

  Dipole Moment: [D]
     X:     1.4861      Y:    -2.2543      Z:    -0.0012     Total:     2.7001

*** Psi4 exiting successfully. Buy a developer a beer!
