                               Psi4 1.4a3.dev225

  ==> Input File <==

--------------------------------------------------------------------------
#psi4
#
memory 32 gb

molecule  {
0 1
  O       -2.1776686     0.7863241    -0.1398359
  N        0.4211910     1.5299470     0.0903790
  C        0.0817250     0.2107030     0.0159890
  C        2.4145630    -0.5010270    -0.0428790
  C       -1.3460660    -0.1139160     0.0206840
  C        1.0420520    -0.8182650    -0.0594370
  C        2.7641530     0.8636850     0.0360660
  C       -2.0477590    -1.2949740     0.1722820
  C        3.4684270    -1.5756500    -0.0824610
  C        1.7493340     1.8260270     0.0926910
  C       -3.4286880    -0.9658200     0.0768380
  C       -3.4828100     0.3886030    -0.1245500
  H        0.7225460    -1.8551450    -0.1446860
  H        3.8080070     1.1710760     0.0438400
  H       -1.6259220    -2.2752860     0.3500510
  H        3.8398640    -1.7937090     0.9244500
  H        3.0687740    -2.5034170    -0.5007000
  H        4.3228250    -1.2652800    -0.6906580
  H        1.9977040     2.8869120     0.1452960
  H       -4.2730300    -1.6376780     0.1527080
  H       -4.2894270     1.0948070    -0.2563320
units angstrom
no_reorient  #important for SAPT in psi4, default
symmetry c1  #important for SAPT in psi4, default
}

set PROPERTIES_ORIGIN ["COM"]
properties('MP2/aug-cc-pvtz', properties = ['dipole'])
--------------------------------------------------------------------------

    Molecular point group: c1
  Charge       = 0
  Multiplicity = 1
  Basis Set: AUG-CC-PVTZ
    Blend: AUG-CC-PVTZ
  Basis Set: (AUG-CC-PVTZ AUX)
    Blend: AUG-CC-PVTZ-JKFIT

    Orbital Energies [Eh]
    ---------------------

    Doubly Occupied:

       1A    -20.621551     2A    -15.566504     3A    -11.293994
       4A    -11.290400     5A    -11.286986     6A    -11.280230
       7A    -11.272808     8A    -11.244006     9A    -11.240728
      10A    -11.240088    11A    -11.233121    12A    -11.220976
      13A     -1.508533    14A     -1.246023    15A     -1.105863
      16A     -1.077385    17A     -1.067878    18A     -0.997558
      19A     -0.969776    20A     -0.865480    21A     -0.840102
      22A     -0.811924    23A     -0.760811    24A     -0.737419
      25A     -0.677299    26A     -0.671845    27A     -0.663542
      28A     -0.651595    29A     -0.607938    30A     -0.591458
      31A     -0.576383    32A     -0.562118    33A     -0.556262
      34A     -0.549962    35A     -0.529918    36A     -0.526135
      37A     -0.505124    38A     -0.420140    39A     -0.390727
      40A     -0.377091    41A     -0.363860    42A     -0.288533

  @DF-RHF Final Energy:  -513.36429842168059

   => Energetics <=

    Nuclear Repulsion Energy =            633.0685934759609381
    One-Electron Energy =               -1952.2856396408208184
    Two-Electron Energy =                 805.8527477431791795
    Total Energy =                       -513.3642984216805871
  Basis Set: (AUG-CC-PVTZ AUX)
    Blend: AUG-CC-PVTZ-RI
    Molecular point group: c1

    Geometry (in Angstrom), charge = 0, multiplicity = 1:

       Center              X                  Y                   Z               Mass
    ------------   -----------------  -----------------  -----------------  -----------------
         O           -2.135398136424     0.761130669388    -0.141820914464    15.994914619570
         N            0.463461463576     1.504753569388     0.088393985536    14.003074004430
         C            0.123995463576     0.185509569388     0.014003985536    12.000000000000
         C            2.456833463576    -0.526220430612    -0.044864014464    12.000000000000
         C           -1.303795536424    -0.139109430612     0.018698985536    12.000000000000
         C            1.084322463576    -0.843458430612    -0.061422014464    12.000000000000
         C            2.806423463576     0.838491569388     0.034080985536    12.000000000000
         C           -2.005488536424    -1.320167430612     0.170296985536    12.000000000000
         C            3.510697463576    -1.600843430612    -0.084446014464    12.000000000000
         C            1.791604463576     1.800833569388     0.090705985536    12.000000000000
         C           -3.386417536424    -0.991013430612     0.074852985536    12.000000000000
         C           -3.440539536424     0.363409569388    -0.126535014464    12.000000000000
         H            0.764816463576    -1.880338430612    -0.146671014464     1.007825032230
         H            3.850277463576     1.145882569388     0.041854985536     1.007825032230
         H           -1.583651536424    -2.300479430612     0.348065985536     1.007825032230
         H            3.882134463576    -1.818902430612     0.922464985536     1.007825032230
         H            3.111044463576    -2.528610430612    -0.502685014464     1.007825032230
         H            4.365095463576    -1.290473430612    -0.692643014464     1.007825032230
         H            2.039974463576     2.861718569388     0.143310985536     1.007825032230
         H           -4.230759536424    -1.662871430612     0.150722985536     1.007825032230
         H           -4.247156536424     1.069613569388    -0.258317014464     1.007825032230

  Basis Set: AUG-CC-PVTZ
    Blend: AUG-CC-PVTZ
  Basis Set: (AUG-CC-PVTZ AUX)
    Blend: AUG-CC-PVTZ-JKFIT
	 Reference Energy          =    -513.3642984216805871 [Eh]
	 Singles Energy            =      -0.0000000000000000 [Eh]
	 Same-Spin Energy          =      -0.5588640862537990 [Eh]
	 Opposite-Spin Energy      =      -1.7098165233586431 [Eh]
	 Correlation Energy        =      -2.2686806096124421 [Eh]
	 Total Energy              =    -515.6329790312930754 [Eh]

	 ================> DF-SCS-MP2 Energies <==================
	-----------------------------------------------------------
	 SCS Same-Spin Scale       =       0.3333333333333333 [-]
	 SCS Opposite-Spin Scale   =       1.2000000000000000 [-]
	 SCS Same-Spin Energy      =      -0.1862880287512663 [Eh]
	 SCS Opposite-Spin Energy  =      -2.0517798280303716 [Eh]
	 SCS Correlation Energy    =      -2.2380678567816381 [Eh]
	 SCS Total Energy          =    -515.6023662784622275 [Eh]
	-----------------------------------------------------------

  Dipole Moment: [D]
     X:     1.4496      Y:    -1.9713      Z:    -0.0719     Total:     2.4480

*** Psi4 exiting successfully. Buy a developer a beer!
