                               Psi4 1.4a3.dev225

  ==> Input File <==

--------------------------------------------------------------------------
#psi4
#
memory 32 gb

molecule  {
0 1
  O       -2.2261580     0.9189870    -0.1609950
  N        0.4211910     1.5299470     0.0903790
  C        0.0817250     0.2107030     0.0159890
  C        2.4145630    -0.5010270    -0.0428790
  C       -1.3460660    -0.1139160     0.0206840
  C        1.0420520    -0.8182650    -0.0594370
  C        2.7641530     0.8636850     0.0360660
  C       -2.0477590    -1.2949740     0.1722820
  C        3.4684270    -1.5756500    -0.0824610
  C        1.7493340     1.8260270     0.0926910
  C       -3.4286880    -0.9658200     0.0768380
  C       -3.4828100     0.3886030    -0.1245500
  H        0.7225460    -1.8551450    -0.1446860
  H        3.8080070     1.1710760     0.0438400
  H       -1.6337199    -2.2571644     0.3467648
  H        3.8398640    -1.7937090     0.9244500
  H        3.0687740    -2.5034170    -0.5007000
  H        4.3228250    -1.2652800    -0.6906580
  H        1.9977040     2.8869120     0.1452960
  H       -4.2730300    -1.6376780     0.1527080
  H       -4.2894270     1.0948070    -0.2563320
units angstrom
no_reorient  #important for SAPT in psi4, default
symmetry c1  #important for SAPT in psi4, default
}

set PROPERTIES_ORIGIN ["COM"]
properties('MP2/aug-cc-pvtz', properties = ['dipole'])
--------------------------------------------------------------------------

    Molecular point group: c1
  Charge       = 0
  Multiplicity = 1
  Basis Set: AUG-CC-PVTZ
    Blend: AUG-CC-PVTZ
  Basis Set: (AUG-CC-PVTZ AUX)
    Blend: AUG-CC-PVTZ-JKFIT

    Orbital Energies [Eh]
    ---------------------

    Doubly Occupied:

       1A    -20.621775     2A    -15.563737     3A    -11.297180
       4A    -11.294464     5A    -11.293141     6A    -11.278764
       7A    -11.271896     8A    -11.242576     9A    -11.239515
      10A    -11.238504    11A    -11.236726    12A    -11.233673
      13A     -1.453817    14A     -1.244205    15A     -1.104324
      16A     -1.088201    17A     -1.057760    18A     -0.984450
      19A     -0.968146    20A     -0.863472    21A     -0.836178
      22A     -0.801455    23A     -0.766105    24A     -0.728293
      25A     -0.673203    26A     -0.668813    27A     -0.639764
      28A     -0.633545    29A     -0.600007    30A     -0.590642
      31A     -0.580291    32A     -0.567244    33A     -0.559209
      34A     -0.547577    35A     -0.540602    36A     -0.525390
      37A     -0.509872    38A     -0.417683    39A     -0.402395
      40A     -0.375939    41A     -0.362554    42A     -0.287890

  @DF-RHF Final Energy:  -513.37734552327913

   => Energetics <=

    Nuclear Repulsion Energy =            629.0314990367411383
    One-Electron Energy =               -1944.4357333198067863
    Two-Electron Energy =                 802.0268887597866296
    Total Energy =                       -513.3773455232791321
  Basis Set: (AUG-CC-PVTZ AUX)
    Blend: AUG-CC-PVTZ-RI
    Molecular point group: c1

    Geometry (in Angstrom), charge = 0, multiplicity = 1:

       Center              X                  Y                   Z               Mass
    ------------   -----------------  -----------------  -----------------  -----------------
         O           -2.178962342840     0.880339011640    -0.160831568370    15.994914619570
         N            0.468386657160     1.491299011640     0.090542431630    14.003074004430
         C            0.128920657160     0.172055011640     0.016152431630    12.000000000000
         C            2.461758657160    -0.539674988360    -0.042715568370    12.000000000000
         C           -1.298870342840    -0.152563988360     0.020847431630    12.000000000000
         C            1.089247657160    -0.856912988360    -0.059273568370    12.000000000000
         C            2.811348657160     0.825037011640     0.036229431630    12.000000000000
         C           -2.000563342840    -1.333621988360     0.172445431630    12.000000000000
         C            3.515622657160    -1.614297988360    -0.082297568370    12.000000000000
         C            1.796529657160     1.787379011640     0.092854431630    12.000000000000
         C           -3.381492342840    -1.004467988360     0.077001431630    12.000000000000
         C           -3.435614342840     0.349955011640    -0.124386568370    12.000000000000
         H            0.769741657160    -1.893792988360    -0.144522568370     1.007825032230
         H            3.855202657160     1.132428011640     0.044003431630     1.007825032230
         H           -1.586524242840    -2.295812388360     0.346928231630     1.007825032230
         H            3.887059657160    -1.832356988360     0.924613431630     1.007825032230
         H            3.115969657160    -2.542064988360    -0.500536568370     1.007825032230
         H            4.370020657160    -1.303927988360    -0.690494568370     1.007825032230
         H            2.044899657160     2.848264011640     0.145459431630     1.007825032230
         H           -4.225834342840    -1.676325988360     0.152871431630     1.007825032230
         H           -4.242231342840     1.056159011640    -0.256168568370     1.007825032230

  Basis Set: AUG-CC-PVTZ
    Blend: AUG-CC-PVTZ
  Basis Set: (AUG-CC-PVTZ AUX)
    Blend: AUG-CC-PVTZ-JKFIT
	 Reference Energy          =    -513.3773455232791321 [Eh]
	 Singles Energy            =      -0.0000000000000000 [Eh]
	 Same-Spin Energy          =      -0.5590333955799919 [Eh]
	 Opposite-Spin Energy      =      -1.7134820795289787 [Eh]
	 Correlation Energy        =      -2.2725154751089707 [Eh]
	 Total Energy              =    -515.6498609983881352 [Eh]

	 ================> DF-SCS-MP2 Energies <==================
	-----------------------------------------------------------
	 SCS Same-Spin Scale       =       0.3333333333333333 [-]
	 SCS Opposite-Spin Scale   =       1.2000000000000000 [-]
	 SCS Same-Spin Energy      =      -0.1863444651933306 [Eh]
	 SCS Opposite-Spin Energy  =      -2.0561784954347742 [Eh]
	 SCS Correlation Energy    =      -2.2425229606281047 [Eh]
	 SCS Total Energy          =    -515.6198684839072257 [Eh]
	-----------------------------------------------------------

  Dipole Moment: [D]
     X:     1.4873      Y:    -2.3725      Z:    -0.0046     Total:     2.8001

*** Psi4 exiting successfully. Buy a developer a beer!
