                               Psi4 1.4a3.dev225

  ==> Input File <==

--------------------------------------------------------------------------
#psi4
#
memory 32 gb

molecule  {
0 1
  O       -2.2261580     0.9189870    -0.1609950
  N        0.4211910     1.5299470     0.0903790
  C        0.0817250     0.2107030     0.0159890
  C        2.4145630    -0.5010270    -0.0428790
  C       -1.3460660    -0.1139160     0.0206840
  C        1.0420520    -0.8182650    -0.0594370
  C        2.7641530     0.8636850     0.0360660
  C       -2.0477590    -1.2949740     0.1722820
  C        3.4334302    -1.5399639    -0.0811466
  C        1.7493340     1.8260270     0.0926910
  C       -3.4286880    -0.9658200     0.0768380
  C       -3.4828100     0.3886030    -0.1245500
  H        0.7225460    -1.8551450    -0.1446860
  H        3.8080070     1.1710760     0.0438400
  H       -1.6259220    -2.2752860     0.3500510
  H        3.8398640    -1.7937090     0.9244500
  H        3.0687740    -2.5034170    -0.5007000
  H        4.3228250    -1.2652800    -0.6906580
  H        1.9977040     2.8869120     0.1452960
  H       -4.2730300    -1.6376780     0.1527080
  H       -4.2894270     1.0948070    -0.2563320
units angstrom
no_reorient  #important for SAPT in psi4, default
symmetry c1  #important for SAPT in psi4, default
}

set PROPERTIES_ORIGIN ["COM"]
properties('MP2/aug-cc-pvtz', properties = ['dipole'])
--------------------------------------------------------------------------

    Molecular point group: c1
  Charge       = 0
  Multiplicity = 1
  Basis Set: AUG-CC-PVTZ
    Blend: AUG-CC-PVTZ
  Basis Set: (AUG-CC-PVTZ AUX)
    Blend: AUG-CC-PVTZ-JKFIT

    Orbital Energies [Eh]
    ---------------------

    Doubly Occupied:

       1A    -20.621975     2A    -15.563756     3A    -11.297358
       4A    -11.294549     5A    -11.293353     6A    -11.278815
       7A    -11.269621     8A    -11.242560     9A    -11.241243
      10A    -11.239069    11A    -11.238479    12A    -11.233963
      13A     -1.454013    14A     -1.244467    15A     -1.110497
      16A     -1.088044    17A     -1.057936    18A     -0.984642
      19A     -0.968433    20A     -0.863765    21A     -0.835150
      22A     -0.800532    23A     -0.765149    24A     -0.728865
      25A     -0.673768    26A     -0.669944    27A     -0.641868
      28A     -0.633900    29A     -0.599370    30A     -0.586207
      31A     -0.578894    32A     -0.566802    33A     -0.559650
      34A     -0.552607    35A     -0.540002    36A     -0.523179
      37A     -0.506389    38A     -0.418290    39A     -0.402530
      40A     -0.375358    41A     -0.361517    42A     -0.288072

  @DF-RHF Final Energy:  -513.37397910429968

   => Energetics <=

    Nuclear Repulsion Energy =            629.8249830037458423
    One-Electron Energy =               -1946.0087598776960931
    Two-Electron Energy =                 802.8097977696504586
    Total Energy =                       -513.3739791042996785
  Basis Set: (AUG-CC-PVTZ AUX)
    Blend: AUG-CC-PVTZ-RI
    Molecular point group: c1

    Geometry (in Angstrom), charge = 0, multiplicity = 1:

       Center              X                  Y                   Z               Mass
    ------------   -----------------  -----------------  -----------------  -----------------
         O           -2.176371616805     0.877761694197    -0.160951546398    15.994914619570
         N            0.470977383195     1.488721694197     0.090422453602    14.003074004430
         C            0.131511383195     0.169477694197     0.016032453602    12.000000000000
         C            2.464349383195    -0.542252305803    -0.042835546398    12.000000000000
         C           -1.296279616805    -0.155141305803     0.020727453602    12.000000000000
         C            1.091838383195    -0.859490305803    -0.059393546398    12.000000000000
         C            2.813939383195     0.822459694197     0.036109453602    12.000000000000
         C           -1.997972616805    -1.336199305803     0.172325453602    12.000000000000
         C            3.483216583195    -1.581189205803    -0.081103146398    12.000000000000
         C            1.799120383195     1.784801694197     0.092734453602    12.000000000000
         C           -3.378901616805    -1.007045305803     0.076881453602    12.000000000000
         C           -3.433023616805     0.347377694197    -0.124506546398    12.000000000000
         H            0.772332383195    -1.896370305803    -0.144642546398     1.007825032230
         H            3.857793383195     1.129850694197     0.043883453602     1.007825032230
         H           -1.576135616805    -2.316511305803     0.350094453602     1.007825032230
         H            3.889650383195    -1.834934305803     0.924493453602     1.007825032230
         H            3.118560383195    -2.544642305803    -0.500656546398     1.007825032230
         H            4.372611383195    -1.306505305803    -0.690614546398     1.007825032230
         H            2.047490383195     2.845686694197     0.145339453602     1.007825032230
         H           -4.223243616805    -1.678903305803     0.152751453602     1.007825032230
         H           -4.239640616805     1.053581694197    -0.256288546398     1.007825032230

  Basis Set: AUG-CC-PVTZ
    Blend: AUG-CC-PVTZ
  Basis Set: (AUG-CC-PVTZ AUX)
    Blend: AUG-CC-PVTZ-JKFIT
	 Reference Energy          =    -513.3739791042996785 [Eh]
	 Singles Energy            =      -0.0000000000000000 [Eh]
	 Same-Spin Energy          =      -0.5596086456246543 [Eh]
	 Opposite-Spin Energy      =      -1.7141838399245366 [Eh]
	 Correlation Energy        =      -2.2737924855491909 [Eh]
	 Total Energy              =    -515.6477715898488441 [Eh]

	 ================> DF-SCS-MP2 Energies <==================
	-----------------------------------------------------------
	 SCS Same-Spin Scale       =       0.3333333333333333 [-]
	 SCS Opposite-Spin Scale   =       1.2000000000000000 [-]
	 SCS Same-Spin Energy      =      -0.1865362152082181 [Eh]
	 SCS Opposite-Spin Energy  =      -2.0570206079094437 [Eh]
	 SCS Correlation Energy    =      -2.2435568231176619 [Eh]
	 SCS Total Energy          =    -515.6175359274172934 [Eh]
	-----------------------------------------------------------

  Dipole Moment: [D]
     X:     1.4902      Y:    -2.3810      Z:    -0.0018     Total:     2.8089

*** Psi4 exiting successfully. Buy a developer a beer!
