                               Psi4 1.4a3.dev225

  ==> Input File <==

--------------------------------------------------------------------------
#psi4
#
memory 32 gb

molecule  {
0 1
  O       -2.2261580     0.9189870    -0.1609950
  N        0.4211910     1.5299470     0.0903790
  C        0.0817250     0.2107030     0.0159890
  C        2.3853675    -0.5320762    -0.0121288
  C       -1.3460660    -0.1139160     0.0206840
  C        1.0420520    -0.8182650    -0.0594370
  C        2.7641530     0.8636850     0.0360660
  C       -2.0477590    -1.2949740     0.1722820
  C        3.4684270    -1.5756500    -0.0824610
  C        1.7493340     1.8260270     0.0926910
  C       -3.4286880    -0.9658200     0.0768380
  C       -3.4828100     0.3886030    -0.1245500
  H        0.7225460    -1.8551450    -0.1446860
  H        3.8080070     1.1710760     0.0438400
  H       -1.6259220    -2.2752860     0.3500510
  H        3.8398640    -1.7937090     0.9244500
  H        3.0687740    -2.5034170    -0.5007000
  H        4.3228250    -1.2652800    -0.6906580
  H        1.9977040     2.8869120     0.1452960
  H       -4.2730300    -1.6376780     0.1527080
  H       -4.2894270     1.0948070    -0.2563320
units angstrom
no_reorient  #important for SAPT in psi4, default
symmetry c1  #important for SAPT in psi4, default
}

set PROPERTIES_ORIGIN ["COM"]
properties('MP2/aug-cc-pvtz', properties = ['dipole'])
--------------------------------------------------------------------------

    Molecular point group: c1
  Charge       = 0
  Multiplicity = 1
  Basis Set: AUG-CC-PVTZ
    Blend: AUG-CC-PVTZ
  Basis Set: (AUG-CC-PVTZ AUX)
    Blend: AUG-CC-PVTZ-JKFIT

    Orbital Energies [Eh]
    ---------------------

    Doubly Occupied:

       1A    -20.622522     2A    -15.563233     3A    -11.298031
       4A    -11.295916     5A    -11.294341     6A    -11.276395
       7A    -11.271317     8A    -11.240646     9A    -11.240196
      10A    -11.239595    11A    -11.239418    12A    -11.234600
      13A     -1.454616    14A     -1.243907    15A     -1.104694
      16A     -1.088340    17A     -1.057858    18A     -0.984230
      19A     -0.968663    20A     -0.864619    21A     -0.834077
      22A     -0.800193    23A     -0.765891    24A     -0.728929
      25A     -0.673163    26A     -0.667135    27A     -0.639490
      28A     -0.634190    29A     -0.600140    30A     -0.590667
      31A     -0.579618    32A     -0.566676    33A     -0.558833
      34A     -0.551799    35A     -0.538900    36A     -0.525136
      37A     -0.507151    38A     -0.416837    39A     -0.402823
      40A     -0.373061    41A     -0.366347    42A     -0.288013

  @DF-RHF Final Energy:  -513.37525440851277

   => Energetics <=

    Nuclear Repulsion Energy =            629.0511999323630334
    One-Electron Energy =               -1944.4685003772981418
    Two-Electron Energy =                 802.0420460364223345
    Total Energy =                       -513.3752544085127738
  Basis Set: (AUG-CC-PVTZ AUX)
    Blend: AUG-CC-PVTZ-RI
    Molecular point group: c1

    Geometry (in Angstrom), charge = 0, multiplicity = 1:

       Center              X                  Y                   Z               Mass
    ------------   -----------------  -----------------  -----------------  -----------------
         O           -2.176809262459     0.882796154404    -0.163172160732    15.994914619570
         N            0.470539737541     1.493756154404     0.088201839268    14.003074004430
         C            0.131073737541     0.174512154404     0.013811839268    12.000000000000
         C            2.434716237541    -0.568267045596    -0.014305960732    12.000000000000
         C           -1.296717262459    -0.150106845596     0.018506839268    12.000000000000
         C            1.091400737541    -0.854455845596    -0.061614160732    12.000000000000
         C            2.813501737541     0.827494154404     0.033888839268    12.000000000000
         C           -1.998410262459    -1.331164845596     0.170104839268    12.000000000000
         C            3.517775737541    -1.611840845596    -0.084638160732    12.000000000000
         C            1.798682737541     1.789836154404     0.090513839268    12.000000000000
         C           -3.379339262459    -1.002010845596     0.074660839268    12.000000000000
         C           -3.433461262459     0.352412154404    -0.126727160732    12.000000000000
         H            0.771894737541    -1.891335845596    -0.146863160732     1.007825032230
         H            3.857355737541     1.134885154404     0.041662839268     1.007825032230
         H           -1.576573262459    -2.311476845596     0.347873839268     1.007825032230
         H            3.889212737541    -1.829899845596     0.922272839268     1.007825032230
         H            3.118122737541    -2.539607845596    -0.502877160732     1.007825032230
         H            4.372173737541    -1.301470845596    -0.692835160732     1.007825032230
         H            2.047052737541     2.850721154404     0.143118839268     1.007825032230
         H           -4.223681262459    -1.673868845596     0.150530839268     1.007825032230
         H           -4.240078262459     1.058616154404    -0.258509160732     1.007825032230

  Basis Set: AUG-CC-PVTZ
    Blend: AUG-CC-PVTZ
  Basis Set: (AUG-CC-PVTZ AUX)
    Blend: AUG-CC-PVTZ-JKFIT
	 Reference Energy          =    -513.3752544085127738 [Eh]
	 Singles Energy            =      -0.0000000000000000 [Eh]
	 Same-Spin Energy          =      -0.5589787699836396 [Eh]
	 Opposite-Spin Energy      =      -1.7136676130568194 [Eh]
	 Correlation Energy        =      -2.2726463830404589 [Eh]
	 Total Energy              =    -515.6479007915531838 [Eh]

	 ================> DF-SCS-MP2 Energies <==================
	-----------------------------------------------------------
	 SCS Same-Spin Scale       =       0.3333333333333333 [-]
	 SCS Opposite-Spin Scale   =       1.2000000000000000 [-]
	 SCS Same-Spin Energy      =      -0.1863262566612132 [Eh]
	 SCS Opposite-Spin Energy  =      -2.0564011356681831 [Eh]
	 SCS Correlation Energy    =      -2.2427273923293964 [Eh]
	 SCS Total Energy          =    -515.6179818008421307 [Eh]
	-----------------------------------------------------------

  Dipole Moment: [D]
     X:     1.4518      Y:    -2.3874      Z:    -0.0196     Total:     2.7943

*** Psi4 exiting successfully. Buy a developer a beer!
