                               Psi4 1.4a3.dev225

  ==> Input File <==

--------------------------------------------------------------------------
#psi4
#
memory 32 gb

molecule  {
0 1
  O       -2.2261580     0.9189870    -0.1609950
  N        0.4211910     1.5299470     0.0903790
  C        0.0817250     0.2107030     0.0159890
  C        2.4145630    -0.5010270    -0.0428790
  C       -1.3460660    -0.1139160     0.0206840
  C        1.0420520    -0.8182650    -0.0594370
  C        2.7641530     0.8636850     0.0360660
  C       -2.0477590    -1.2949740     0.1722820
  C        3.4684270    -1.5756500    -0.0824610
  C        1.7493340     1.8260270     0.0926910
  C       -3.4286880    -0.9658200     0.0768380
  C       -3.4828100     0.3886030    -0.1245500
  H        0.7225460    -1.8551450    -0.1446860
  H        3.7120822     1.1428284     0.0431256
  H       -1.6259220    -2.2752860     0.3500510
  H        3.8398640    -1.7937090     0.9244500
  H        3.0687740    -2.5034170    -0.5007000
  H        4.3228250    -1.2652800    -0.6906580
  H        1.9977040     2.8869120     0.1452960
  H       -4.2730300    -1.6376780     0.1527080
  H       -4.2894270     1.0948070    -0.2563320
units angstrom
no_reorient  #important for SAPT in psi4, default
symmetry c1  #important for SAPT in psi4, default
}

set PROPERTIES_ORIGIN ["COM"]
properties('MP2/aug-cc-pvtz', properties = ['dipole'])
--------------------------------------------------------------------------

    Molecular point group: c1
  Charge       = 0
  Multiplicity = 1
  Basis Set: AUG-CC-PVTZ
    Blend: AUG-CC-PVTZ
  Basis Set: (AUG-CC-PVTZ AUX)
    Blend: AUG-CC-PVTZ-JKFIT

    Orbital Energies [Eh]
    ---------------------

    Doubly Occupied:

       1A    -20.621705     2A    -15.563020     3A    -11.297068
       4A    -11.294114     5A    -11.293093     6A    -11.277994
       7A    -11.271001     8A    -11.241849     9A    -11.239544
      10A    -11.238766    11A    -11.233733    12A    -11.226576
      13A     -1.453741    14A     -1.243690    15A     -1.105171
      16A     -1.087822    17A     -1.058371    18A     -0.987012
      19A     -0.968248    20A     -0.867617    21A     -0.835832
      22A     -0.800334    23A     -0.765481    24A     -0.727640
      25A     -0.688005    26A     -0.668413    27A     -0.641048
      28A     -0.633506    29A     -0.600201    30A     -0.590696
      31A     -0.582253    32A     -0.566168    33A     -0.561130
      34A     -0.547257    35A     -0.540425    36A     -0.524902
      37A     -0.512084    38A     -0.417416    39A     -0.402271
      40A     -0.375633    41A     -0.362001    42A     -0.287715

  @DF-RHF Final Energy:  -513.37153396288682

   => Energetics <=

    Nuclear Repulsion Energy =            629.4922772061162277
    One-Electron Energy =               -1945.3265283378934782
    Two-Electron Energy =                 802.4627171688905491
    Total Energy =                       -513.3715339628868151
  Basis Set: (AUG-CC-PVTZ AUX)
    Blend: AUG-CC-PVTZ-RI
    Molecular point group: c1

    Geometry (in Angstrom), charge = 0, multiplicity = 1:

       Center              X                  Y                   Z               Mass
    ------------   -----------------  -----------------  -----------------  -----------------
         O           -2.178403988773     0.880632797436    -0.160847862770    15.994914619570
         N            0.468945011227     1.491592797436     0.090526137230    14.003074004430
         C            0.129479011227     0.172348797436     0.016136137230    12.000000000000
         C            2.462317011227    -0.539381202564    -0.042731862770    12.000000000000
         C           -1.298311988773    -0.152270202564     0.020831137230    12.000000000000
         C            1.089806011227    -0.856619202564    -0.059289862770    12.000000000000
         C            2.811907011227     0.825330797436     0.036213137230    12.000000000000
         C           -2.000004988773    -1.333328202564     0.172429137230    12.000000000000
         C            3.516181011227    -1.614004202564    -0.082313862770    12.000000000000
         C            1.797088011227     1.787672797436     0.092838137230    12.000000000000
         C           -3.380933988773    -1.004174202564     0.076985137230    12.000000000000
         C           -3.435055988773     0.350248797436    -0.124402862770    12.000000000000
         H            0.770300011227    -1.893499202564    -0.144538862770     1.007825032230
         H            3.759836211227     1.104474197436     0.043272737230     1.007825032230
         H           -1.578167988773    -2.313640202564     0.350198137230     1.007825032230
         H            3.887618011227    -1.832063202564     0.924597137230     1.007825032230
         H            3.116528011227    -2.541771202564    -0.500552862770     1.007825032230
         H            4.370579011227    -1.303634202564    -0.690510862770     1.007825032230
         H            2.045458011227     2.848557797436     0.145443137230     1.007825032230
         H           -4.225275988773    -1.676032202564     0.152855137230     1.007825032230
         H           -4.241672988773     1.056452797436    -0.256184862770     1.007825032230

  Basis Set: AUG-CC-PVTZ
    Blend: AUG-CC-PVTZ
  Basis Set: (AUG-CC-PVTZ AUX)
    Blend: AUG-CC-PVTZ-JKFIT
	 Reference Energy          =    -513.3715339628868151 [Eh]
	 Singles Energy            =      -0.0000000000000000 [Eh]
	 Same-Spin Energy          =      -0.5588803198509460 [Eh]
	 Opposite-Spin Energy      =      -1.7130773342293082 [Eh]
	 Correlation Energy        =      -2.2719576540802544 [Eh]
	 Total Energy              =    -515.6434916169670259 [Eh]

	 ================> DF-SCS-MP2 Energies <==================
	-----------------------------------------------------------
	 SCS Same-Spin Scale       =       0.3333333333333333 [-]
	 SCS Opposite-Spin Scale   =       1.2000000000000000 [-]
	 SCS Same-Spin Energy      =      -0.1862934399503153 [Eh]
	 SCS Opposite-Spin Energy  =      -2.0556928010751698 [Eh]
	 SCS Correlation Energy    =      -2.2419862410254852 [Eh]
	 SCS Total Energy          =    -515.6135202039123442 [Eh]
	-----------------------------------------------------------

  Dipole Moment: [D]
     X:     1.5115      Y:    -2.3648      Z:    -0.0047     Total:     2.8066

*** Psi4 exiting successfully. Buy a developer a beer!
