                               Psi4 1.4a3.dev225

  ==> Input File <==

--------------------------------------------------------------------------
#psi4
#
memory 32 gb

molecule  {
0 1
  O       -2.2261580     0.9189870    -0.1609950
  N        0.4211910     1.5299470     0.0903790
  C        0.0817250     0.2107030     0.0159890
  C        2.4145630    -0.5010270    -0.0428790
  C       -1.3460660    -0.1139160     0.0206840
  C        1.0420520    -0.8182650    -0.0594370
  C        2.7641530     0.8636850     0.0360660
  C       -2.0477590    -1.2949740     0.1722820
  C        3.4684270    -1.5756500    -0.0824610
  C        1.7493340     1.8260270     0.0926910
  C       -3.4286880    -0.9658200     0.0768380
  C       -3.4828100     0.3886030    -0.1245500
  H        0.7225460    -1.8551450    -0.1446860
  H        3.8080070     1.1710760     0.0438400
  H       -1.6259220    -2.2752860     0.3500510
  H        3.8398640    -1.7937090     0.9244500
  H        3.0687740    -2.5034170    -0.5007000
  H        4.3228250    -1.2652800    -0.6906580
  H        2.0432414     3.0814199     0.1549409
  H       -4.2730300    -1.6376780     0.1527080
  H       -4.2894270     1.0948070    -0.2563320
units angstrom
no_reorient  #important for SAPT in psi4, default
symmetry c1  #important for SAPT in psi4, default
}

set PROPERTIES_ORIGIN ["COM"]
properties('MP2/aug-cc-pvtz', properties = ['dipole'])
--------------------------------------------------------------------------

    Molecular point group: c1
  Charge       = 0
  Multiplicity = 1
  Basis Set: AUG-CC-PVTZ
    Blend: AUG-CC-PVTZ
  Basis Set: (AUG-CC-PVTZ AUX)
    Blend: AUG-CC-PVTZ-JKFIT

    Orbital Energies [Eh]
    ---------------------

    Doubly Occupied:

       1A    -20.622581     2A    -15.566181     3A    -11.299878
       4A    -11.298171     5A    -11.296418     6A    -11.293942
       7A    -11.273440     8A    -11.243451     9A    -11.240817
      10A    -11.240457    11A    -11.239798    12A    -11.234481
      13A     -1.454625    14A     -1.245449    15A     -1.105685
      16A     -1.088437    17A     -1.056545    18A     -0.983516
      19A     -0.969207    20A     -0.862566    21A     -0.828633
      22A     -0.797406    23A     -0.765574    24A     -0.725954
      25A     -0.673559    26A     -0.670089    27A     -0.634919
      28A     -0.626273    29A     -0.591561    30A     -0.585491
      31A     -0.579141    32A     -0.566149    33A     -0.559445
      34A     -0.546306    35A     -0.541272    36A     -0.526954
      37A     -0.499965    38A     -0.415627    39A     -0.403176
      40A     -0.377126    41A     -0.363834    42A     -0.288798

  @DF-RHF Final Energy:  -513.35447729179748

   => Energetics <=

    Nuclear Repulsion Energy =            627.9661369041349417
    One-Electron Energy =               -1942.2754423529861469
    Two-Electron Energy =                 800.9548281570538393
    Total Energy =                       -513.3544772917974797
  Basis Set: (AUG-CC-PVTZ AUX)
    Blend: AUG-CC-PVTZ-RI
    Molecular point group: c1

    Geometry (in Angstrom), charge = 0, multiplicity = 1:

       Center              X                  Y                   Z               Mass
    ------------   -----------------  -----------------  -----------------  -----------------
         O           -2.179300264424     0.879221464013    -0.160913497183    15.994914619570
         N            0.468048735576     1.490181464013     0.090460502817    14.003074004430
         C            0.128582735576     0.170937464013     0.016070502817    12.000000000000
         C            2.461420735576    -0.540792535987    -0.042797497183    12.000000000000
         C           -1.299208264424    -0.153681535987     0.020765502817    12.000000000000
         C            1.088909735576    -0.858030535987    -0.059355497183    12.000000000000
         C            2.811010735576     0.823919464013     0.036147502817    12.000000000000
         C           -2.000901264424    -1.334739535987     0.172363502817    12.000000000000
         C            3.515284735576    -1.615415535987    -0.082379497183    12.000000000000
         C            1.796191735576     1.786261464013     0.092772502817    12.000000000000
         C           -3.381830264424    -1.005585535987     0.076919502817    12.000000000000
         C           -3.435952264424     0.348837464013    -0.124468497183    12.000000000000
         H            0.769403735576    -1.894910535987    -0.144604497183     1.007825032230
         H            3.854864735576     1.131310464013     0.043921502817     1.007825032230
         H           -1.579064264424    -2.315051535987     0.350132502817     1.007825032230
         H            3.886721735576    -1.833474535987     0.924531502817     1.007825032230
         H            3.115631735576    -2.543182535987    -0.500618497183     1.007825032230
         H            4.369682735576    -1.305045535987    -0.690576497183     1.007825032230
         H            2.090099135576     3.041654364013     0.155022402817     1.007825032230
         H           -4.226172264424    -1.677443535987     0.152789502817     1.007825032230
         H           -4.242569264424     1.055041464013    -0.256250497183     1.007825032230

  Basis Set: AUG-CC-PVTZ
    Blend: AUG-CC-PVTZ
  Basis Set: (AUG-CC-PVTZ AUX)
    Blend: AUG-CC-PVTZ-JKFIT
	 Reference Energy          =    -513.3544772917974797 [Eh]
	 Singles Energy            =      -0.0000000000000000 [Eh]
	 Same-Spin Energy          =      -0.5597382337261910 [Eh]
	 Opposite-Spin Energy      =      -1.7160200868901812 [Eh]
	 Correlation Energy        =      -2.2757583206163723 [Eh]
	 Total Energy              =    -515.6302356124137987 [Eh]

	 ================> DF-SCS-MP2 Energies <==================
	-----------------------------------------------------------
	 SCS Same-Spin Scale       =       0.3333333333333333 [-]
	 SCS Opposite-Spin Scale   =       1.2000000000000000 [-]
	 SCS Same-Spin Energy      =      -0.1865794112420637 [Eh]
	 SCS Opposite-Spin Energy  =      -2.0592241042682171 [Eh]
	 SCS Correlation Energy    =      -2.2458035155102807 [Eh]
	 SCS Total Energy          =    -515.6002808073077404 [Eh]
	-----------------------------------------------------------

  Dipole Moment: [D]
     X:     1.4055      Y:    -2.4974      Z:    -0.0106     Total:     2.8658

*** Psi4 exiting successfully. Buy a developer a beer!
