                               Psi4 1.4a3.dev225

  ==> Input File <==

--------------------------------------------------------------------------
#psi4
#
memory 32 gb

molecule  {
0 1
  O       -2.2261580     0.9189870    -0.1609950
  N        0.4211910     1.5299470     0.0903790
  C        0.0817250     0.2107030     0.0159890
  C        2.3804334    -0.5350076    -0.0639144
  C       -1.3460660    -0.1139160     0.0206840
  C        1.0420520    -0.8182650    -0.0594370
  C        2.7641530     0.8636850     0.0360660
  C       -2.0477590    -1.2949740     0.1722820
  C        3.4684270    -1.5756500    -0.0824610
  C        1.7493340     1.8260270     0.0926910
  C       -3.4286880    -0.9658200     0.0768380
  C       -3.4828100     0.3886030    -0.1245500
  H        0.7225460    -1.8551450    -0.1446860
  H        3.8080070     1.1710760     0.0438400
  H       -1.6259220    -2.2752860     0.3500510
  H        3.8398640    -1.7937090     0.9244500
  H        3.0687740    -2.5034170    -0.5007000
  H        4.3228250    -1.2652800    -0.6906580
  H        1.9977040     2.8869120     0.1452960
  H       -4.2730300    -1.6376780     0.1527080
  H       -4.2894270     1.0948070    -0.2563320
units angstrom
no_reorient  #important for SAPT in psi4, default
symmetry c1  #important for SAPT in psi4, default
}

set PROPERTIES_ORIGIN ["COM"]
properties('MP2/aug-cc-pvtz', properties = ['dipole'])
--------------------------------------------------------------------------

    Molecular point group: c1
  Charge       = 0
  Multiplicity = 1
  Basis Set: AUG-CC-PVTZ
    Blend: AUG-CC-PVTZ
  Basis Set: (AUG-CC-PVTZ AUX)
    Blend: AUG-CC-PVTZ-JKFIT

    Orbital Energies [Eh]
    ---------------------

    Doubly Occupied:

       1A    -20.622699     2A    -15.563402     3A    -11.298249
       4A    -11.296311     5A    -11.294517     6A    -11.276066
       7A    -11.270989     8A    -11.241038     9A    -11.240391
      10A    -11.239365    11A    -11.239141    12A    -11.234750
      13A     -1.454788    14A     -1.243997    15A     -1.104890
      16A     -1.088441    17A     -1.057901    18A     -0.984289
      19A     -0.968644    20A     -0.865077    21A     -0.833696
      22A     -0.800175    23A     -0.766099    24A     -0.729212
      25A     -0.673283    26A     -0.666923    27A     -0.639274
      28A     -0.634433    29A     -0.600285    30A     -0.590325
      31A     -0.579771    32A     -0.566808    33A     -0.558863
      34A     -0.552386    35A     -0.539044    36A     -0.525324
      37A     -0.505891    38A     -0.416891    39A     -0.402943
      40A     -0.372671    41A     -0.367374    42A     -0.287965

  @DF-RHF Final Energy:  -513.37459179697839

   => Energetics <=

    Nuclear Repulsion Energy =            629.0640367557384707
    One-Electron Energy =               -1944.4880891438288018
    Two-Electron Energy =                 802.0494605911119379
    Total Energy =                       -513.3745917969783932
  Basis Set: (AUG-CC-PVTZ AUX)
    Blend: AUG-CC-PVTZ-RI
    Molecular point group: c1

    Geometry (in Angstrom), charge = 0, multiplicity = 1:

       Center              X                  Y                   Z               Mass
    ------------   -----------------  -----------------  -----------------  -----------------
         O           -2.176437037713     0.883017296987    -0.159265494508    15.994914619570
         N            0.470911962287     1.493977296987     0.092108505492    14.003074004430
         C            0.131445962287     0.174733296987     0.017718505492    12.000000000000
         C            2.430154362287    -0.570977303013    -0.062184894508    12.000000000000
         C           -1.296345037713    -0.149885703013     0.022413505492    12.000000000000
         C            1.091772962287    -0.854234703013    -0.057707494508    12.000000000000
         C            2.813873962287     0.827715296987     0.037795505492    12.000000000000
         C           -1.998038037713    -1.330943703013     0.174011505492    12.000000000000
         C            3.518147962287    -1.611619703013    -0.080731494508    12.000000000000
         C            1.799054962287     1.790057296987     0.094420505492    12.000000000000
         C           -3.378967037713    -1.001789703013     0.078567505492    12.000000000000
         C           -3.433089037713     0.352633296987    -0.122820494508    12.000000000000
         H            0.772266962287    -1.891114703013    -0.142956494508     1.007825032230
         H            3.857727962287     1.135106296987     0.045569505492     1.007825032230
         H           -1.576201037713    -2.311255703013     0.351780505492     1.007825032230
         H            3.889584962287    -1.829678703013     0.926179505492     1.007825032230
         H            3.118494962287    -2.539386703013    -0.498970494508     1.007825032230
         H            4.372545962287    -1.301249703013    -0.688928494508     1.007825032230
         H            2.047424962287     2.850942296987     0.147025505492     1.007825032230
         H           -4.223309037713    -1.673647703013     0.154437505492     1.007825032230
         H           -4.239706037713     1.058837296987    -0.254602494508     1.007825032230

  Basis Set: AUG-CC-PVTZ
    Blend: AUG-CC-PVTZ
  Basis Set: (AUG-CC-PVTZ AUX)
    Blend: AUG-CC-PVTZ-JKFIT
	 Reference Energy          =    -513.3745917969783932 [Eh]
	 Singles Energy            =      -0.0000000000000000 [Eh]
	 Same-Spin Energy          =      -0.5589542412915114 [Eh]
	 Opposite-Spin Energy      =      -1.7137314898133273 [Eh]
	 Correlation Energy        =      -2.2726857311048390 [Eh]
	 Total Energy              =    -515.6472775280832366 [Eh]

	 ================> DF-SCS-MP2 Energies <==================
	-----------------------------------------------------------
	 SCS Same-Spin Scale       =       0.3333333333333333 [-]
	 SCS Opposite-Spin Scale   =       1.2000000000000000 [-]
	 SCS Same-Spin Energy      =      -0.1863180804305038 [Eh]
	 SCS Opposite-Spin Energy  =      -2.0564777877759925 [Eh]
	 SCS Correlation Energy    =      -2.2427958682064961 [Eh]
	 SCS Total Energy          =    -515.6173876651848786 [Eh]
	-----------------------------------------------------------

  Dipole Moment: [D]
     X:     1.4358      Y:    -2.3837      Z:     0.0036     Total:     2.7827

*** Psi4 exiting successfully. Buy a developer a beer!
