                               Psi4 1.4a3.dev225

  ==> Input File <==

--------------------------------------------------------------------------
#psi4
#
memory 32 gb

molecule  {
0 1
  O       -2.2261580     0.9189870    -0.1609950
  N        0.4211910     1.5299470     0.0903790
  C        0.0817250     0.2107030     0.0159890
  C        2.4145630    -0.5010270    -0.0428790
  C       -1.3460660    -0.1139160     0.0206840
  C        1.0420520    -0.8182650    -0.0594370
  C        2.7641530     0.8636850     0.0360660
  C       -2.0477590    -1.2949740     0.1722820
  C        3.4684270    -1.5756500    -0.0824610
  C        1.7493340     1.8260270     0.0926910
  C       -3.4286880    -0.9658200     0.0768380
  C       -3.4788606     0.2897676    -0.1098542
  H        0.7225460    -1.8551450    -0.1446860
  H        3.8080070     1.1710760     0.0438400
  H       -1.6259220    -2.2752860     0.3500510
  H        3.8398640    -1.7937090     0.9244500
  H        3.0687740    -2.5034170    -0.5007000
  H        4.3228250    -1.2652800    -0.6906580
  H        1.9977040     2.8869120     0.1452960
  H       -4.2730300    -1.6376780     0.1527080
  H       -4.2894270     1.0948070    -0.2563320
units angstrom
no_reorient  #important for SAPT in psi4, default
symmetry c1  #important for SAPT in psi4, default
}

set PROPERTIES_ORIGIN ["COM"]
properties('MP2/aug-cc-pvtz', properties = ['dipole'])
--------------------------------------------------------------------------

    Molecular point group: c1
  Charge       = 0
  Multiplicity = 1
  Basis Set: AUG-CC-PVTZ
    Blend: AUG-CC-PVTZ
  Basis Set: (AUG-CC-PVTZ AUX)
    Blend: AUG-CC-PVTZ-JKFIT

    Orbital Energies [Eh]
    ---------------------

    Doubly Occupied:

       1A    -20.613565     2A    -15.564420     3A    -11.297772
       4A    -11.293792     5A    -11.285414     6A    -11.278802
       7A    -11.271896     8A    -11.242956     9A    -11.239624
      10A    -11.239243    11A    -11.236950    12A    -11.223265
      13A     -1.441155    14A     -1.244225    15A     -1.107095
      16A     -1.101663    17A     -1.060657    18A     -0.983891
      19A     -0.967447    20A     -0.866415    21A     -0.833803
      22A     -0.794381    23A     -0.764705    24A     -0.721908
      25A     -0.673052    26A     -0.666762    27A     -0.633748
      28A     -0.629147    29A     -0.591792    30A     -0.590683
      31A     -0.584115    32A     -0.562774    33A     -0.555488
      34A     -0.545534    35A     -0.541243    36A     -0.524978
      37A     -0.509836    38A     -0.418096    39A     -0.410890
      40A     -0.381337    41A     -0.363458    42A     -0.293757

  @DF-RHF Final Energy:  -513.36375550110654

   => Energetics <=

    Nuclear Repulsion Energy =            629.8513658075951298
    One-Electron Energy =               -1946.1267726829905769
    Two-Electron Energy =                 802.9116513742889083
    Total Energy =                       -513.3637555011065388
  Basis Set: (AUG-CC-PVTZ AUX)
    Blend: AUG-CC-PVTZ-RI
    Molecular point group: c1

    Geometry (in Angstrom), charge = 0, multiplicity = 1:

       Center              X                  Y                   Z               Mass
    ------------   -----------------  -----------------  -----------------  -----------------
         O           -2.179309688472     0.887909893706    -0.161961029023    15.994914619570
         N            0.468039311528     1.498869893706     0.089412970977    14.003074004430
         C            0.128573311528     0.179625893706     0.015022970977    12.000000000000
         C            2.461411311528    -0.532104106294    -0.043845029023    12.000000000000
         C           -1.299217688472    -0.144993106294     0.019717970977    12.000000000000
         C            1.088900311528    -0.849342106294    -0.060403029023    12.000000000000
         C            2.811001311528     0.832607893706     0.035099970977    12.000000000000
         C           -2.000910688472    -1.326051106294     0.171315970977    12.000000000000
         C            3.515275311528    -1.606727106294    -0.083427029023    12.000000000000
         C            1.796182311528     1.794949893706     0.091724970977    12.000000000000
         C           -3.381839688472    -0.996897106294     0.075871970977    12.000000000000
         C           -3.432012288472     0.258690493706    -0.110820229023    12.000000000000
         H            0.769394311528    -1.886222106294    -0.145652029023     1.007825032230
         H            3.854855311528     1.139998893706     0.042873970977     1.007825032230
         H           -1.579073688472    -2.306363106294     0.349084970977     1.007825032230
         H            3.886712311528    -1.824786106294     0.923483970977     1.007825032230
         H            3.115622311528    -2.534494106294    -0.501666029023     1.007825032230
         H            4.369673311528    -1.296357106294    -0.691624029023     1.007825032230
         H            2.044552311528     2.855834893706     0.144329970977     1.007825032230
         H           -4.226181688472    -1.668755106294     0.151741970977     1.007825032230
         H           -4.242578688472     1.063729893706    -0.257298029023     1.007825032230

  Basis Set: AUG-CC-PVTZ
    Blend: AUG-CC-PVTZ
  Basis Set: (AUG-CC-PVTZ AUX)
    Blend: AUG-CC-PVTZ-JKFIT
	 Reference Energy          =    -513.3637555011065388 [Eh]
	 Singles Energy            =      -0.0000000000000000 [Eh]
	 Same-Spin Energy          =      -0.5581621451416914 [Eh]
	 Opposite-Spin Energy      =      -1.7130283171193668 [Eh]
	 Correlation Energy        =      -2.2711904622610581 [Eh]
	 Total Energy              =    -515.6349459633676133 [Eh]

	 ================> DF-SCS-MP2 Energies <==================
	-----------------------------------------------------------
	 SCS Same-Spin Scale       =       0.3333333333333333 [-]
	 SCS Opposite-Spin Scale   =       1.2000000000000000 [-]
	 SCS Same-Spin Energy      =      -0.1860540483805638 [Eh]
	 SCS Opposite-Spin Energy  =      -2.0556339805432402 [Eh]
	 SCS Correlation Energy    =      -2.2416880289238041 [Eh]
	 SCS Total Energy          =    -515.6054435300303567 [Eh]
	-----------------------------------------------------------

  Dipole Moment: [D]
     X:     1.4332      Y:    -2.5315      Z:     0.0176     Total:     2.9091

*** Psi4 exiting successfully. Buy a developer a beer!
