                               Psi4 1.4a3.dev225

  ==> Input File <==

--------------------------------------------------------------------------
#psi4
#
memory 32 gb

molecule  {
0 1
  O       -2.2261580     0.9189870    -0.1609950
  N        0.4211910     1.5299470     0.0903790
  C        0.0817250     0.2107030     0.0159890
  C        2.4145630    -0.5010270    -0.0428790
  C       -1.3460660    -0.1139160     0.0206840
  C        1.0420520    -0.8182650    -0.0594370
  C        2.7641530     0.8636850     0.0360660
  C       -2.0477590    -1.2949740     0.1722820
  C        3.4684270    -1.5756500    -0.0824610
  C        1.7493340     1.8260270     0.0926910
  C       -3.4286880    -0.9658200     0.0768380
  C       -3.4828100     0.3886030    -0.1245500
  H        0.7225460    -1.8551450    -0.1446860
  H        3.8080070     1.1710760     0.0438400
  H       -1.7039010    -2.0940696     0.3171894
  H        3.8398640    -1.7937090     0.9244500
  H        3.0687740    -2.5034170    -0.5007000
  H        4.3228250    -1.2652800    -0.6906580
  H        1.9977040     2.8869120     0.1452960
  H       -4.2730300    -1.6376780     0.1527080
  H       -4.2894270     1.0948070    -0.2563320
units angstrom
no_reorient  #important for SAPT in psi4, default
symmetry c1  #important for SAPT in psi4, default
}

set PROPERTIES_ORIGIN ["COM"]
properties('MP2/aug-cc-pvtz', properties = ['dipole'])
--------------------------------------------------------------------------

    Molecular point group: c1
  Charge       = 0
  Multiplicity = 1
  Basis Set: AUG-CC-PVTZ
    Blend: AUG-CC-PVTZ
  Basis Set: (AUG-CC-PVTZ AUX)
    Blend: AUG-CC-PVTZ-JKFIT

    Orbital Energies [Eh]
    ---------------------

    Doubly Occupied:

       1A    -20.620931     2A    -15.563943     3A    -11.296698
       4A    -11.294609     5A    -11.292183     6A    -11.279009
       7A    -11.272225     8A    -11.243036     9A    -11.239705
      10A    -11.238766    11A    -11.232510    12A    -11.215684
      13A     -1.452971    14A     -1.244433    15A     -1.104691
      16A     -1.093694    17A     -1.057592    18A     -0.986425
      19A     -0.968613    20A     -0.869482    21A     -0.836467
      22A     -0.819971    23A     -0.775356    24A     -0.732031
      25A     -0.673604    26A     -0.670038    27A     -0.640674
      28A     -0.632783    29A     -0.608270    30A     -0.591628
      31A     -0.590763    32A     -0.569986    33A     -0.559759
      34A     -0.547723    35A     -0.540238    36A     -0.525542
      37A     -0.510141    38A     -0.417882    39A     -0.401954
      40A     -0.375807    41A     -0.362784    42A     -0.287688

  @DF-RHF Final Energy:  -513.34121829132835

   => Energetics <=

    Nuclear Repulsion Energy =            630.0596176651110909
    One-Electron Energy =               -1946.3250963300574767
    Two-Electron Energy =                 802.9242603736180399
    Total Energy =                       -513.3412182913283459
  Basis Set: (AUG-CC-PVTZ AUX)
    Blend: AUG-CC-PVTZ-RI
    Molecular point group: c1

    Geometry (in Angstrom), charge = 0, multiplicity = 1:

       Center              X                  Y                   Z               Mass
    ------------   -----------------  -----------------  -----------------  -----------------
         O           -2.178517689702     0.879305676247    -0.160644184667    15.994914619570
         N            0.468831310298     1.490265676247     0.090729815333    14.003074004430
         C            0.129365310298     0.171021676247     0.016339815333    12.000000000000
         C            2.462203310298    -0.540708323753    -0.042528184667    12.000000000000
         C           -1.298425689702    -0.153597323753     0.021034815333    12.000000000000
         C            1.089692310298    -0.857946323753    -0.059086184667    12.000000000000
         C            2.811793310298     0.824003676247     0.036416815333    12.000000000000
         C           -2.000118689702    -1.334655323753     0.172632815333    12.000000000000
         C            3.516067310298    -1.615331323753    -0.082110184667    12.000000000000
         C            1.796974310298     1.786345676247     0.093041815333    12.000000000000
         C           -3.381047689702    -1.005501323753     0.077188815333    12.000000000000
         C           -3.435169689702     0.348921676247    -0.124199184667    12.000000000000
         H            0.770186310298    -1.894826323753    -0.144335184667     1.007825032230
         H            3.855647310298     1.131394676247     0.044190815333     1.007825032230
         H           -1.656260689702    -2.133750923753     0.317540215333     1.007825032230
         H            3.887504310298    -1.833390323753     0.924800815333     1.007825032230
         H            3.116414310298    -2.543098323753    -0.500349184667     1.007825032230
         H            4.370465310298    -1.304961323753    -0.690307184667     1.007825032230
         H            2.045344310298     2.847230676247     0.145646815333     1.007825032230
         H           -4.225389689702    -1.677359323753     0.153058815333     1.007825032230
         H           -4.241786689702     1.055125676247    -0.255981184667     1.007825032230

  Basis Set: AUG-CC-PVTZ
    Blend: AUG-CC-PVTZ
  Basis Set: (AUG-CC-PVTZ AUX)
    Blend: AUG-CC-PVTZ-JKFIT
	 Reference Energy          =    -513.3412182913283459 [Eh]
	 Singles Energy            =      -0.0000000000000000 [Eh]
	 Same-Spin Energy          =      -0.5588475381234248 [Eh]
	 Opposite-Spin Energy      =      -1.7130687751355036 [Eh]
	 Correlation Energy        =      -2.2719163132589282 [Eh]
	 Total Energy              =    -515.6131346045872306 [Eh]

	 ================> DF-SCS-MP2 Energies <==================
	-----------------------------------------------------------
	 SCS Same-Spin Scale       =       0.3333333333333333 [-]
	 SCS Opposite-Spin Scale   =       1.2000000000000000 [-]
	 SCS Same-Spin Energy      =      -0.1862825127078083 [Eh]
	 SCS Opposite-Spin Energy  =      -2.0556825301626040 [Eh]
	 SCS Correlation Energy    =      -2.2419650428704121 [Eh]
	 SCS Total Energy          =    -515.5831833341987931 [Eh]
	-----------------------------------------------------------

  Dipole Moment: [D]
     X:     1.5183      Y:    -2.3576      Z:    -0.0070     Total:     2.8042

*** Psi4 exiting successfully. Buy a developer a beer!
