                               Psi4 1.4a3.dev225

  ==> Input File <==

--------------------------------------------------------------------------
#psi4
#
memory 32 gb

molecule  {
0 1
  O       -2.2261580     0.9189870    -0.1609950
  N        0.4211910     1.5299470     0.0903790
  C        0.0817250     0.2107030     0.0159890
  C        2.4145630    -0.5010270    -0.0428790
  C       -1.4435770    -0.1360859     0.0210046
  C        1.0420520    -0.8182650    -0.0594370
  C        2.7641530     0.8636850     0.0360660
  C       -2.0477590    -1.2949740     0.1722820
  C        3.4684270    -1.5756500    -0.0824610
  C        1.7493340     1.8260270     0.0926910
  C       -3.4286880    -0.9658200     0.0768380
  C       -3.4828100     0.3886030    -0.1245500
  H        0.7225460    -1.8551450    -0.1446860
  H        3.8080070     1.1710760     0.0438400
  H       -1.6259220    -2.2752860     0.3500510
  H        3.8398640    -1.7937090     0.9244500
  H        3.0687740    -2.5034170    -0.5007000
  H        4.3228250    -1.2652800    -0.6906580
  H        1.9977040     2.8869120     0.1452960
  H       -4.2730300    -1.6376780     0.1527080
  H       -4.2894270     1.0948070    -0.2563320
units angstrom
no_reorient  #important for SAPT in psi4, default
symmetry c1  #important for SAPT in psi4, default
}

set PROPERTIES_ORIGIN ["COM"]
properties('MP2/aug-cc-pvtz', properties = ['dipole'])
--------------------------------------------------------------------------

    Molecular point group: c1
  Charge       = 0
  Multiplicity = 1
  Basis Set: AUG-CC-PVTZ
    Blend: AUG-CC-PVTZ
  Basis Set: (AUG-CC-PVTZ AUX)
    Blend: AUG-CC-PVTZ-JKFIT

    Orbital Energies [Eh]
    ---------------------

    Doubly Occupied:

       1A    -20.626194     2A    -15.563992     3A    -11.298208
       4A    -11.295035     5A    -11.288706     6A    -11.278439
       7A    -11.271399     8A    -11.241637     9A    -11.239239
      10A    -11.238314    11A    -11.233891    12A    -11.226269
      13A     -1.475559    14A     -1.241326    15A     -1.104965
      16A     -1.100598    17A     -1.047548    18A     -0.987458
      19A     -0.967810    20A     -0.855310    21A     -0.829368
      22A     -0.809720    23A     -0.769950    24A     -0.726212
      25A     -0.672710    26A     -0.666680    27A     -0.646662
      28A     -0.633540    29A     -0.600850    30A     -0.590422
      31A     -0.582549    32A     -0.570488    33A     -0.558916
      34A     -0.548861    35A     -0.538897    36A     -0.523215
      37A     -0.501122    38A     -0.416061    39A     -0.408289
      40A     -0.370439    41A     -0.360583    42A     -0.298480

  @DF-RHF Final Energy:  -513.36922801405660

   => Energetics <=

    Nuclear Repulsion Energy =            629.1461832790729432
    One-Electron Energy =               -1944.6190017241115129
    Two-Electron Energy =                 802.1035904309820808
    Total Energy =                       -513.3692280140566027
  Basis Set: (AUG-CC-PVTZ AUX)
    Blend: AUG-CC-PVTZ-RI
    Molecular point group: c1

    Geometry (in Angstrom), charge = 0, multiplicity = 1:

       Center              X                  Y                   Z               Mass
    ------------   -----------------  -----------------  -----------------  -----------------
         O           -2.171655593168     0.882126306774    -0.160876574883    15.994914619570
         N            0.475693406832     1.493086306774     0.090497425117    14.003074004430
         C            0.136227406832     0.173842306774     0.016107425117    12.000000000000
         C            2.469065406832    -0.537887693226    -0.042760574883    12.000000000000
         C           -1.389074593168    -0.172946593226     0.021123025117    12.000000000000
         C            1.096554406832    -0.855125693226    -0.059318574883    12.000000000000
         C            2.818655406832     0.826824306774     0.036184425117    12.000000000000
         C           -1.993256593168    -1.331834693226     0.172400425117    12.000000000000
         C            3.522929406832    -1.612510693226    -0.082342574883    12.000000000000
         C            1.803836406832     1.789166306774     0.092809425117    12.000000000000
         C           -3.374185593168    -1.002680693226     0.076956425117    12.000000000000
         C           -3.428307593168     0.351742306774    -0.124431574883    12.000000000000
         H            0.777048406832    -1.892005693226    -0.144567574883     1.007825032230
         H            3.862509406832     1.134215306774     0.043958425117     1.007825032230
         H           -1.571419593168    -2.312146693226     0.350169425117     1.007825032230
         H            3.894366406832    -1.830569693226     0.924568425117     1.007825032230
         H            3.123276406832    -2.540277693226    -0.500581574883     1.007825032230
         H            4.377327406832    -1.302140693226    -0.690539574883     1.007825032230
         H            2.052206406832     2.850051306774     0.145414425117     1.007825032230
         H           -4.218527593168    -1.674538693226     0.152826425117     1.007825032230
         H           -4.234924593168     1.057946306774    -0.256213574883     1.007825032230

  Basis Set: AUG-CC-PVTZ
    Blend: AUG-CC-PVTZ
  Basis Set: (AUG-CC-PVTZ AUX)
    Blend: AUG-CC-PVTZ-JKFIT
	 Reference Energy          =    -513.3692280140566027 [Eh]
	 Singles Energy            =      -0.0000000000000000 [Eh]
	 Same-Spin Energy          =      -0.5571366250291263 [Eh]
	 Opposite-Spin Energy      =      -1.7106462101651645 [Eh]
	 Correlation Energy        =      -2.2677828351942910 [Eh]
	 Total Energy              =    -515.6370108492509416 [Eh]

	 ================> DF-SCS-MP2 Energies <==================
	-----------------------------------------------------------
	 SCS Same-Spin Scale       =       0.3333333333333333 [-]
	 SCS Opposite-Spin Scale   =       1.2000000000000000 [-]
	 SCS Same-Spin Energy      =      -0.1857122083430421 [Eh]
	 SCS Opposite-Spin Energy  =      -2.0527754521981971 [Eh]
	 SCS Correlation Energy    =      -2.2384876605412392 [Eh]
	 SCS Total Energy          =    -515.6077156745978982 [Eh]
	-----------------------------------------------------------

  Dipole Moment: [D]
     X:     1.5015      Y:    -2.3914      Z:     0.0011     Total:     2.8237

*** Psi4 exiting successfully. Buy a developer a beer!
