                               Psi4 1.4a3.dev225

  ==> Input File <==

--------------------------------------------------------------------------
#psi4
#
memory 32 gb

molecule  {
0 1
  O       -2.2261580     0.9189870    -0.1609950
  N        0.4211910     1.5299470     0.0903790
  C        0.1280427     0.1997108     0.0148045
  C        2.4145630    -0.5010270    -0.0428790
  C       -1.3460660    -0.1139160     0.0206840
  C        1.0420520    -0.8182650    -0.0594370
  C        2.7641530     0.8636850     0.0360660
  C       -2.0477590    -1.2949740     0.1722820
  C        3.4684270    -1.5756500    -0.0824610
  C        1.7493340     1.8260270     0.0926910
  C       -3.4286880    -0.9658200     0.0768380
  C       -3.4828100     0.3886030    -0.1245500
  H        0.7225460    -1.8551450    -0.1446860
  H        3.8080070     1.1710760     0.0438400
  H       -1.6259220    -2.2752860     0.3500510
  H        3.8398640    -1.7937090     0.9244500
  H        3.0687740    -2.5034170    -0.5007000
  H        4.3228250    -1.2652800    -0.6906580
  H        1.9977040     2.8869120     0.1452960
  H       -4.2730300    -1.6376780     0.1527080
  H       -4.2894270     1.0948070    -0.2563320
units angstrom
no_reorient  #important for SAPT in psi4, default
symmetry c1  #important for SAPT in psi4, default
}

set PROPERTIES_ORIGIN ["COM"]
properties('MP2/aug-cc-pvtz', properties = ['dipole'])
--------------------------------------------------------------------------

    Molecular point group: c1
  Charge       = 0
  Multiplicity = 1
  Basis Set: AUG-CC-PVTZ
    Blend: AUG-CC-PVTZ
  Basis Set: (AUG-CC-PVTZ AUX)
    Blend: AUG-CC-PVTZ-JKFIT

    Orbital Energies [Eh]
    ---------------------

    Doubly Occupied:

       1A    -20.620362     2A    -15.565319     3A    -11.297673
       4A    -11.293267     5A    -11.290211     6A    -11.280346
       7A    -11.274182     8A    -11.240803     9A    -11.239764
      10A    -11.239406    11A    -11.235032    12A    -11.231539
      13A     -1.451477    14A     -1.248103    15A     -1.107234
      16A     -1.084761    17A     -1.056104    18A     -0.983728
      19A     -0.972619    20A     -0.859386    21A     -0.836479
      22A     -0.798152    23A     -0.763346    24A     -0.726246
      25A     -0.675087    26A     -0.671671    27A     -0.638212
      28A     -0.631067    29A     -0.599332    30A     -0.592349
      31A     -0.577313    32A     -0.563961    33A     -0.559672
      34A     -0.548580    35A     -0.538165    36A     -0.528679
      37A     -0.504651    38A     -0.424112    39A     -0.400154
      40A     -0.373928    41A     -0.365632    42A     -0.290233

  @DF-RHF Final Energy:  -513.37608577825949

   => Energetics <=

    Nuclear Repulsion Energy =            628.9846045963888628
    One-Electron Energy =               -1944.3647064697595397
    Two-Electron Energy =                 802.0040160951111829
    Total Energy =                       -513.3760857782594940
  Basis Set: (AUG-CC-PVTZ AUX)
    Blend: AUG-CC-PVTZ-RI
    Molecular point group: c1

    Geometry (in Angstrom), charge = 0, multiplicity = 1:

       Center              X                  Y                   Z               Mass
    ------------   -----------------  -----------------  -----------------  -----------------
         O           -2.182505920756     0.881283069599    -0.160763031285    15.994914619570
         N            0.464843079244     1.492243069599     0.090610968715    14.003074004430
         C            0.171694779244     0.162006869599     0.015036468715    12.000000000000
         C            2.458215079244    -0.538730930401    -0.042647031285    12.000000000000
         C           -1.302413920756    -0.151619930401     0.020915968715    12.000000000000
         C            1.085704079244    -0.855968930401    -0.059205031285    12.000000000000
         C            2.807805079244     0.825981069599     0.036297968715    12.000000000000
         C           -2.004106920756    -1.332677930401     0.172513968715    12.000000000000
         C            3.512079079244    -1.613353930401    -0.082229031285    12.000000000000
         C            1.792986079244     1.788323069599     0.092922968715    12.000000000000
         C           -3.385035920756    -1.003523930401     0.077069968715    12.000000000000
         C           -3.439157920756     0.350899069599    -0.124318031285    12.000000000000
         H            0.766198079244    -1.892848930401    -0.144454031285     1.007825032230
         H            3.851659079244     1.133372069599     0.044071968715     1.007825032230
         H           -1.582269920756    -2.312989930401     0.350282968715     1.007825032230
         H            3.883516079244    -1.831412930401     0.924681968715     1.007825032230
         H            3.112426079244    -2.541120930401    -0.500468031285     1.007825032230
         H            4.366477079244    -1.302983930401    -0.690426031285     1.007825032230
         H            2.041356079244     2.849208069599     0.145527968715     1.007825032230
         H           -4.229377920756    -1.675381930401     0.152939968715     1.007825032230
         H           -4.245774920756     1.057103069599    -0.256100031285     1.007825032230

  Basis Set: AUG-CC-PVTZ
    Blend: AUG-CC-PVTZ
  Basis Set: (AUG-CC-PVTZ AUX)
    Blend: AUG-CC-PVTZ-JKFIT
	 Reference Energy          =    -513.3760857782594940 [Eh]
	 Singles Energy            =      -0.0000000000000000 [Eh]
	 Same-Spin Energy          =      -0.5585224898041283 [Eh]
	 Opposite-Spin Energy      =      -1.7130111191956443 [Eh]
	 Correlation Energy        =      -2.2715336089997726 [Eh]
	 Total Energy              =    -515.6476193872592830 [Eh]

	 ================> DF-SCS-MP2 Energies <==================
	-----------------------------------------------------------
	 SCS Same-Spin Scale       =       0.3333333333333333 [-]
	 SCS Opposite-Spin Scale   =       1.2000000000000000 [-]
	 SCS Same-Spin Energy      =      -0.1861741632680428 [Eh]
	 SCS Opposite-Spin Energy  =      -2.0556133430347732 [Eh]
	 SCS Correlation Energy    =      -2.2417875063028161 [Eh]
	 SCS Total Energy          =    -515.6178732845622790 [Eh]
	-----------------------------------------------------------

  Dipole Moment: [D]
     X:     1.7165      Y:    -2.3297      Z:    -0.0077     Total:     2.8938

*** Psi4 exiting successfully. Buy a developer a beer!
