                               Psi4 1.4a3.dev225

  ==> Input File <==

--------------------------------------------------------------------------
#psi4
#
memory 32 gb

molecule  {
0 1
  O       -2.2261580     0.9189870    -0.1609950
  N        0.4211910     1.5299470     0.0903790
  C        0.0817250     0.2107030     0.0159890
  C        2.4145630    -0.5010270    -0.0428790
  C       -1.3880188    -0.0906020     0.0158085
  C        1.0420520    -0.8182650    -0.0594370
  C        2.7641530     0.8636850     0.0360660
  C       -2.0477590    -1.2949740     0.1722820
  C        3.4684270    -1.5756500    -0.0824610
  C        1.7493340     1.8260270     0.0926910
  C       -3.4286880    -0.9658200     0.0768380
  C       -3.4828100     0.3886030    -0.1245500
  H        0.7225460    -1.8551450    -0.1446860
  H        3.8080070     1.1710760     0.0438400
  H       -1.6259220    -2.2752860     0.3500510
  H        3.8398640    -1.7937090     0.9244500
  H        3.0687740    -2.5034170    -0.5007000
  H        4.3228250    -1.2652800    -0.6906580
  H        1.9977040     2.8869120     0.1452960
  H       -4.2730300    -1.6376780     0.1527080
  H       -4.2894270     1.0948070    -0.2563320
units angstrom
no_reorient  #important for SAPT in psi4, default
symmetry c1  #important for SAPT in psi4, default
}

set PROPERTIES_ORIGIN ["COM"]
properties('MP2/aug-cc-pvtz', properties = ['dipole'])
--------------------------------------------------------------------------

    Molecular point group: c1
  Charge       = 0
  Multiplicity = 1
  Basis Set: AUG-CC-PVTZ
    Blend: AUG-CC-PVTZ
  Basis Set: (AUG-CC-PVTZ AUX)
    Blend: AUG-CC-PVTZ-JKFIT

    Orbital Energies [Eh]
    ---------------------

    Doubly Occupied:

       1A    -20.627927     2A    -15.563788     3A    -11.298655
       4A    -11.296013     5A    -11.289893     6A    -11.278657
       7A    -11.272094     8A    -11.242886     9A    -11.239613
      10A    -11.238696    11A    -11.234905    12A    -11.233785
      13A     -1.474027    14A     -1.243478    15A     -1.104443
      16A     -1.088644    17A     -1.054803    18A     -0.985973
      19A     -0.968357    20A     -0.859954    21A     -0.834104
      22A     -0.806020    23A     -0.767129    24A     -0.728649
      25A     -0.673290    26A     -0.668040    27A     -0.645042
      28A     -0.638988    29A     -0.601394    30A     -0.590794
      31A     -0.577552    32A     -0.572172    33A     -0.558871
      34A     -0.548222    35A     -0.538788    36A     -0.524713
      37A     -0.505951    38A     -0.417880    39A     -0.401579
      40A     -0.374165    41A     -0.362089    42A     -0.289362

  @DF-RHF Final Energy:  -513.37676779090293

   => Energetics <=

    Nuclear Repulsion Energy =            629.1562386085914795
    One-Electron Energy =               -1944.6232427926966011
    Two-Electron Energy =                 802.0902363932020762
    Total Energy =                       -513.3767677909029317
  Basis Set: (AUG-CC-PVTZ AUX)
    Blend: AUG-CC-PVTZ-RI
    Molecular point group: c1

    Geometry (in Angstrom), charge = 0, multiplicity = 1:

       Center              X                  Y                   Z               Mass
    ------------   -----------------  -----------------  -----------------  -----------------
         O           -2.175846861463     0.878695035998    -0.160484585056    15.994914619570
         N            0.471502138537     1.489655035998     0.090889414944    14.003074004430
         C            0.132036138537     0.170411035998     0.016499414944    12.000000000000
         C            2.464874138537    -0.541318964002    -0.042368585056    12.000000000000
         C           -1.337707661463    -0.130893964002     0.016318914944    12.000000000000
         C            1.092363138537    -0.858556964002    -0.058926585056    12.000000000000
         C            2.814464138537     0.823393035998     0.036576414944    12.000000000000
         C           -1.997447861463    -1.335265964002     0.172792414944    12.000000000000
         C            3.518738138537    -1.615941964002    -0.081950585056    12.000000000000
         C            1.799645138537     1.785735035998     0.093201414944    12.000000000000
         C           -3.378376861463    -1.006111964002     0.077348414944    12.000000000000
         C           -3.432498861463     0.348311035998    -0.124039585056    12.000000000000
         H            0.772857138537    -1.895436964002    -0.144175585056     1.007825032230
         H            3.858318138537     1.130784035998     0.044350414944     1.007825032230
         H           -1.575610861463    -2.315577964002     0.350561414944     1.007825032230
         H            3.890175138537    -1.834000964002     0.924960414944     1.007825032230
         H            3.119085138537    -2.543708964002    -0.500189585056     1.007825032230
         H            4.373136138537    -1.305571964002    -0.690147585056     1.007825032230
         H            2.048015138537     2.846620035998     0.145806414944     1.007825032230
         H           -4.222718861463    -1.677969964002     0.153218414944     1.007825032230
         H           -4.239115861463     1.054515035998    -0.255821585056     1.007825032230

  Basis Set: AUG-CC-PVTZ
    Blend: AUG-CC-PVTZ
  Basis Set: (AUG-CC-PVTZ AUX)
    Blend: AUG-CC-PVTZ-JKFIT
	 Reference Energy          =    -513.3767677909029317 [Eh]
	 Singles Energy            =      -0.0000000000000000 [Eh]
	 Same-Spin Energy          =      -0.5585260269977577 [Eh]
	 Opposite-Spin Energy      =      -1.7122384066936680 [Eh]
	 Correlation Energy        =      -2.2707644336914257 [Eh]
	 Total Energy              =    -515.6475322245943289 [Eh]

	 ================> DF-SCS-MP2 Energies <==================
	-----------------------------------------------------------
	 SCS Same-Spin Scale       =       0.3333333333333333 [-]
	 SCS Opposite-Spin Scale   =       1.2000000000000000 [-]
	 SCS Same-Spin Energy      =      -0.1861753423325859 [Eh]
	 SCS Opposite-Spin Energy  =      -2.0546860880324016 [Eh]
	 SCS Correlation Energy    =      -2.2408614303649874 [Eh]
	 SCS Total Energy          =    -515.6176292212679755 [Eh]
	-----------------------------------------------------------

  Dipole Moment: [D]
     X:     1.4598      Y:    -2.3268      Z:    -0.0138     Total:     2.7469

*** Psi4 exiting successfully. Buy a developer a beer!
