                               Psi4 1.4a3.dev225

  ==> Input File <==

--------------------------------------------------------------------------
#psi4
#
memory 32 gb

molecule  {
0 1
  O       -2.2261580     0.9189870    -0.1609950
  N        0.4211910     1.5299470     0.0903790
  C        0.0817250     0.2107030     0.0159890
  C        2.4145630    -0.5010270    -0.0428790
  C       -1.3460660    -0.1139160     0.0206840
  C        1.0420520    -0.8182650    -0.0594370
  C        2.7641530     0.8636850     0.0360660
  C       -2.0477590    -1.2949740     0.1722820
  C        3.4684270    -1.5756500    -0.0824610
  C        1.7493340     1.8260270     0.0926910
  C       -3.4286880    -0.9658200     0.0768380
  C       -3.4828100     0.3886030    -0.1245500
  H        0.7225460    -1.8551450    -0.1446860
  H        3.8080070     1.1710760     0.0438400
  H       -1.6259220    -2.2752860     0.3500510
  H        3.8398640    -1.7937090     0.9244500
  H        3.0687740    -2.5034170    -0.5007000
  H        4.3228250    -1.2652800    -0.6906580
  H        1.9977040     2.8869120     0.1452960
  H       -4.2730300    -1.6376780     0.1527080
  H       -4.2744917     1.0817310    -0.2538919
units angstrom
no_reorient  #important for SAPT in psi4, default
symmetry c1  #important for SAPT in psi4, default
}

set PROPERTIES_ORIGIN ["COM"]
properties('MP2/aug-cc-pvtz', properties = ['dipole'])
--------------------------------------------------------------------------

    Molecular point group: c1
  Charge       = 0
  Multiplicity = 1
  Basis Set: AUG-CC-PVTZ
    Blend: AUG-CC-PVTZ
  Basis Set: (AUG-CC-PVTZ AUX)
    Blend: AUG-CC-PVTZ-JKFIT

    Orbital Energies [Eh]
    ---------------------

    Doubly Occupied:

       1A    -20.621749     2A    -15.563727     3A    -11.297268
       4A    -11.294434     5A    -11.291064     6A    -11.278739
       7A    -11.271856     8A    -11.242524     9A    -11.239492
      10A    -11.238885    11A    -11.238488    12A    -11.233818
      13A     -1.453838    14A     -1.244186    15A     -1.104292
      16A     -1.087767    17A     -1.057971    18A     -0.984981
      19A     -0.968189    20A     -0.863492    21A     -0.836720
      22A     -0.800872    23A     -0.765112    24A     -0.729276
      25A     -0.673470    26A     -0.668987    27A     -0.640491
      28A     -0.633589    29A     -0.600425    30A     -0.590619
      31A     -0.579149    32A     -0.566235    33A     -0.559098
      34A     -0.547823    35A     -0.541145    36A     -0.525386
      37A     -0.509833    38A     -0.417668    39A     -0.402413
      40A     -0.375948    41A     -0.362523    42A     -0.287944

  @DF-RHF Final Energy:  -513.37734052086296

   => Energetics <=

    Nuclear Repulsion Energy =            629.0395865827189255
    One-Electron Energy =               -1944.4508825208165490
    Two-Electron Energy =                 802.0339554172347789
    Total Energy =                       -513.3773405208629583
  Basis Set: (AUG-CC-PVTZ AUX)
    Blend: AUG-CC-PVTZ-RI
    Molecular point group: c1

    Geometry (in Angstrom), charge = 0, multiplicity = 1:

       Center              X                  Y                   Z               Mass
    ------------   -----------------  -----------------  -----------------  -----------------
         O           -2.179106375759     0.880536673272    -0.160867849039    15.994914619570
         N            0.468242624241     1.491496673272     0.090506150961    14.003074004430
         C            0.128776624241     0.172252673272     0.016116150961    12.000000000000
         C            2.461614624241    -0.539477326728    -0.042751849039    12.000000000000
         C           -1.299014375759    -0.152366326728     0.020811150961    12.000000000000
         C            1.089103624241    -0.856715326728    -0.059309849039    12.000000000000
         C            2.811204624241     0.825234673272     0.036193150961    12.000000000000
         C           -2.000707375759    -1.333424326728     0.172409150961    12.000000000000
         C            3.515478624241    -1.614100326728    -0.082333849039    12.000000000000
         C            1.796385624241     1.787576673272     0.092818150961    12.000000000000
         C           -3.381636375759    -1.004270326728     0.076965150961    12.000000000000
         C           -3.435758375759     0.350152673272    -0.124422849039    12.000000000000
         H            0.769597624241    -1.893595326728    -0.144558849039     1.007825032230
         H            3.855058624241     1.132625673272     0.043967150961     1.007825032230
         H           -1.578870375759    -2.313736326728     0.350178150961     1.007825032230
         H            3.886915624241    -1.832159326728     0.924577150961     1.007825032230
         H            3.115825624241    -2.541867326728    -0.500572849039     1.007825032230
         H            4.369876624241    -1.303730326728    -0.690530849039     1.007825032230
         H            2.044755624241     2.848461673272     0.145423150961     1.007825032230
         H           -4.225978375759    -1.676128326728     0.152835150961     1.007825032230
         H           -4.227440075759     1.043280673272    -0.253764749039     1.007825032230

  Basis Set: AUG-CC-PVTZ
    Blend: AUG-CC-PVTZ
  Basis Set: (AUG-CC-PVTZ AUX)
    Blend: AUG-CC-PVTZ-JKFIT
	 Reference Energy          =    -513.3773405208629583 [Eh]
	 Singles Energy            =      -0.0000000000000000 [Eh]
	 Same-Spin Energy          =      -0.5590304733968302 [Eh]
	 Opposite-Spin Energy      =      -1.7134720645712647 [Eh]
	 Correlation Energy        =      -2.2725025379680948 [Eh]
	 Total Energy              =    -515.6498430588310384 [Eh]

	 ================> DF-SCS-MP2 Energies <==================
	-----------------------------------------------------------
	 SCS Same-Spin Scale       =       0.3333333333333333 [-]
	 SCS Opposite-Spin Scale   =       1.2000000000000000 [-]
	 SCS Same-Spin Energy      =      -0.1863434911322767 [Eh]
	 SCS Opposite-Spin Energy  =      -2.0561664774855175 [Eh]
	 SCS Correlation Energy    =      -2.2425099686177941 [Eh]
	 SCS Total Energy          =    -515.6198504894807684 [Eh]
	-----------------------------------------------------------

  Dipole Moment: [D]
     X:     1.4844      Y:    -2.3748      Z:    -0.0043     Total:     2.8006

*** Psi4 exiting successfully. Buy a developer a beer!
