                               Psi4 1.4a3.dev225

  ==> Input File <==

--------------------------------------------------------------------------
#psi4
#
memory 32 gb

molecule  {
0 1
  O       -2.2261580     0.9189870    -0.1609950
  N        0.4211910     1.5299470     0.0903790
  C        0.0817250     0.2107030     0.0159890
  C        2.4145630    -0.5010270    -0.0428790
  C       -1.3460660    -0.1139160     0.0206840
  C        1.0761182    -0.8547662    -0.0621126
  C        2.7641530     0.8636850     0.0360660
  C       -2.0477590    -1.2949740     0.1722820
  C        3.4684270    -1.5756500    -0.0824610
  C        1.7493340     1.8260270     0.0926910
  C       -3.4286880    -0.9658200     0.0768380
  C       -3.4828100     0.3886030    -0.1245500
  H        0.7225460    -1.8551450    -0.1446860
  H        3.8080070     1.1710760     0.0438400
  H       -1.6259220    -2.2752860     0.3500510
  H        3.8398640    -1.7937090     0.9244500
  H        3.0687740    -2.5034170    -0.5007000
  H        4.3228250    -1.2652800    -0.6906580
  H        1.9977040     2.8869120     0.1452960
  H       -4.2730300    -1.6376780     0.1527080
  H       -4.2894270     1.0948070    -0.2563320
units angstrom
no_reorient  #important for SAPT in psi4, default
symmetry c1  #important for SAPT in psi4, default
}

set PROPERTIES_ORIGIN ["COM"]
properties('MP2/aug-cc-pvtz', properties = ['dipole'])
--------------------------------------------------------------------------

    Molecular point group: c1
  Charge       = 0
  Multiplicity = 1
  Basis Set: AUG-CC-PVTZ
    Blend: AUG-CC-PVTZ
  Basis Set: (AUG-CC-PVTZ AUX)
    Blend: AUG-CC-PVTZ-JKFIT

    Orbital Energies [Eh]
    ---------------------

    Doubly Occupied:

       1A    -20.623062     2A    -15.564304     3A    -11.300707
       4A    -11.298417     5A    -11.295049     6A    -11.278049
       7A    -11.267724     8A    -11.242668     9A    -11.241037
      10A    -11.237722    11A    -11.236967    12A    -11.235191
      13A     -1.455166    14A     -1.242362    15A     -1.106789
      16A     -1.088810    17A     -1.055437    18A     -0.984477
      19A     -0.964382    20A     -0.866613    21A     -0.834069
      22A     -0.801901    23A     -0.765336    24A     -0.725868
      25A     -0.676110    26A     -0.666721    27A     -0.642939
      28A     -0.634793    29A     -0.598102    30A     -0.589338
      31A     -0.580329    32A     -0.567510    33A     -0.559177
      34A     -0.544497    35A     -0.540492    36A     -0.522899
      37A     -0.514858    38A     -0.415610    39A     -0.403270
      40A     -0.376781    41A     -0.363055    42A     -0.287031

  @DF-RHF Final Energy:  -513.37430691989050

   => Energetics <=

    Nuclear Repulsion Energy =            628.3569747841316939
    One-Electron Energy =               -1943.0713281552721128
    Two-Electron Energy =                 801.3400464512500321
    Total Energy =                       -513.3743069198905005
  Basis Set: (AUG-CC-PVTZ AUX)
    Blend: AUG-CC-PVTZ-RI
    Molecular point group: c1

    Geometry (in Angstrom), charge = 0, multiplicity = 1:

       Center              X                  Y                   Z               Mass
    ------------   -----------------  -----------------  -----------------  -----------------
         O           -2.181581676927     0.883207449131    -0.160650543837    15.994914619570
         N            0.465767323073     1.494167449131     0.090723456163    14.003074004430
         C            0.126301323073     0.174923449131     0.016333456163    12.000000000000
         C            2.459139323073    -0.536806550869    -0.042534543837    12.000000000000
         C           -1.301489676927    -0.149695550869     0.021028456163    12.000000000000
         C            1.120694523073    -0.890545750869    -0.061768143837    12.000000000000
         C            2.808729323073     0.827905449131     0.036410456163    12.000000000000
         C           -2.003182676927    -1.330753550869     0.172626456163    12.000000000000
         C            3.513003323073    -1.611429550869    -0.082116543837    12.000000000000
         C            1.793910323073     1.790247449131     0.093035456163    12.000000000000
         C           -3.384111676927    -1.001599550869     0.077182456163    12.000000000000
         C           -3.438233676927     0.352823449131    -0.124205543837    12.000000000000
         H            0.767122323073    -1.890924550869    -0.144341543837     1.007825032230
         H            3.852583323073     1.135296449131     0.044184456163     1.007825032230
         H           -1.581345676927    -2.311065550869     0.350395456163     1.007825032230
         H            3.884440323073    -1.829488550869     0.924794456163     1.007825032230
         H            3.113350323073    -2.539196550869    -0.500355543837     1.007825032230
         H            4.367401323073    -1.301059550869    -0.690313543837     1.007825032230
         H            2.042280323073     2.851132449131     0.145640456163     1.007825032230
         H           -4.228453676927    -1.673457550869     0.153052456163     1.007825032230
         H           -4.244850676927     1.059027449131    -0.255987543837     1.007825032230

  Basis Set: AUG-CC-PVTZ
    Blend: AUG-CC-PVTZ
  Basis Set: (AUG-CC-PVTZ AUX)
    Blend: AUG-CC-PVTZ-JKFIT
	 Reference Energy          =    -513.3743069198905005 [Eh]
	 Singles Energy            =      -0.0000000000000000 [Eh]
	 Same-Spin Energy          =      -0.5589530088099099 [Eh]
	 Opposite-Spin Energy      =      -1.7136695831008268 [Eh]
	 Correlation Energy        =      -2.2726225919107366 [Eh]
	 Total Energy              =    -515.6469295118012042 [Eh]

	 ================> DF-SCS-MP2 Energies <==================
	-----------------------------------------------------------
	 SCS Same-Spin Scale       =       0.3333333333333333 [-]
	 SCS Opposite-Spin Scale   =       1.2000000000000000 [-]
	 SCS Same-Spin Energy      =      -0.1863176696033033 [Eh]
	 SCS Opposite-Spin Energy  =      -2.0564034997209921 [Eh]
	 SCS Correlation Energy    =      -2.2427211693242954 [Eh]
	 SCS Total Energy          =    -515.6170280892148412 [Eh]
	-----------------------------------------------------------

  Dipole Moment: [D]
     X:     1.3673      Y:    -2.3671      Z:    -0.0051     Total:     2.7336

*** Psi4 exiting successfully. Buy a developer a beer!
