                               Psi4 1.4a3.dev225

  ==> Input File <==

--------------------------------------------------------------------------
#psi4
#
memory 32 gb

molecule  {
0 1
  O       -2.2261580     0.9189870    -0.1609950
  N        0.4211910     1.5299470     0.0903790
  C        0.0817250     0.2107030     0.0159890
  C        2.4145630    -0.5010270    -0.0428790
  C       -1.3460660    -0.1139160     0.0206840
  C        1.0420520    -0.8182650    -0.0594370
  C        2.7641530     0.8636850     0.0360660
  C       -2.0477590    -1.2949740     0.1722820
  C        3.4684270    -1.5756500    -0.0824610
  C        1.6768315     1.8947803     0.0967365
  C       -3.4286880    -0.9658200     0.0768380
  C       -3.4828100     0.3886030    -0.1245500
  H        0.7225460    -1.8551450    -0.1446860
  H        3.8080070     1.1710760     0.0438400
  H       -1.6259220    -2.2752860     0.3500510
  H        3.8398640    -1.7937090     0.9244500
  H        3.0687740    -2.5034170    -0.5007000
  H        4.3228250    -1.2652800    -0.6906580
  H        1.9977040     2.8869120     0.1452960
  H       -4.2730300    -1.6376780     0.1527080
  H       -4.2894270     1.0948070    -0.2563320
units angstrom
no_reorient  #important for SAPT in psi4, default
symmetry c1  #important for SAPT in psi4, default
}

set PROPERTIES_ORIGIN ["COM"]
properties('MP2/aug-cc-pvtz', properties = ['dipole'])
--------------------------------------------------------------------------

    Molecular point group: c1
  Charge       = 0
  Multiplicity = 1
  Basis Set: AUG-CC-PVTZ
    Blend: AUG-CC-PVTZ
  Basis Set: (AUG-CC-PVTZ AUX)
    Blend: AUG-CC-PVTZ-JKFIT

    Orbital Energies [Eh]
    ---------------------

    Doubly Occupied:

       1A    -20.621224     2A    -15.562072     3A    -11.297182
       4A    -11.294412     5A    -11.291863     6A    -11.283927
       7A    -11.268645     8A    -11.245731     9A    -11.243938
      10A    -11.237900    11A    -11.237262    12A    -11.233177
      13A     -1.453302    14A     -1.253936    15A     -1.104492
      16A     -1.086239    17A     -1.057148    18A     -0.977751
      19A     -0.962273    20A     -0.869019    21A     -0.835207
      22A     -0.800874    23A     -0.763993    24A     -0.728084
      25A     -0.674529    26A     -0.666647    27A     -0.649554
      28A     -0.633503    29A     -0.599889    30A     -0.588747
      31A     -0.576026    32A     -0.565764    33A     -0.558218
      34A     -0.548172    35A     -0.540088    36A     -0.527772
      37A     -0.517444    38A     -0.406805    39A     -0.400883
      40A     -0.372971    41A     -0.367057    42A     -0.281605

  @DF-RHF Final Energy:  -513.36745434623197

   => Energetics <=

    Nuclear Repulsion Energy =            628.3783099708012969
    One-Electron Energy =               -1943.1208778885782067
    Two-Electron Energy =                 801.3751135715448299
    Total Energy =                       -513.3674543462319662
  Basis Set: (AUG-CC-PVTZ AUX)
    Blend: AUG-CC-PVTZ-RI
    Molecular point group: c1

    Geometry (in Angstrom), charge = 0, multiplicity = 1:

       Center              X                  Y                   Z               Mass
    ------------   -----------------  -----------------  -----------------  -----------------
         O           -2.173542215361     0.875267129813    -0.161157578502    15.994914619570
         N            0.473806784639     1.486227129813     0.090216421498    14.003074004430
         C            0.134340784639     0.166983129813     0.015826421498    12.000000000000
         C            2.467178784639    -0.544746870187    -0.043041578502    12.000000000000
         C           -1.293450215361    -0.157635870187     0.020521421498    12.000000000000
         C            1.094667784639    -0.861984870187    -0.059599578502    12.000000000000
         C            2.816768784639     0.819965129813     0.035903421498    12.000000000000
         C           -1.995143215361    -1.338693870187     0.172119421498    12.000000000000
         C            3.521042784639    -1.619369870187    -0.082623578502    12.000000000000
         C            1.729447284639     1.851060429813     0.096573921498    12.000000000000
         C           -3.376072215361    -1.009539870187     0.076675421498    12.000000000000
         C           -3.430194215361     0.344883129813    -0.124712578502    12.000000000000
         H            0.775161784639    -1.898864870187    -0.144848578502     1.007825032230
         H            3.860622784639     1.127356129813     0.043677421498     1.007825032230
         H           -1.573306215361    -2.319005870187     0.349888421498     1.007825032230
         H            3.892479784639    -1.837428870187     0.924287421498     1.007825032230
         H            3.121389784639    -2.547136870187    -0.500862578502     1.007825032230
         H            4.375440784639    -1.308999870187    -0.690820578502     1.007825032230
         H            2.050319784639     2.843192129813     0.145133421498     1.007825032230
         H           -4.220414215361    -1.681397870187     0.152545421498     1.007825032230
         H           -4.236811215361     1.051087129813    -0.256494578502     1.007825032230

  Basis Set: AUG-CC-PVTZ
    Blend: AUG-CC-PVTZ
  Basis Set: (AUG-CC-PVTZ AUX)
    Blend: AUG-CC-PVTZ-JKFIT
	 Reference Energy          =    -513.3674543462319662 [Eh]
	 Singles Energy            =      -0.0000000000000000 [Eh]
	 Same-Spin Energy          =      -0.5587854443406730 [Eh]
	 Opposite-Spin Energy      =      -1.7135119220405661 [Eh]
	 Correlation Energy        =      -2.2722973663812391 [Eh]
	 Total Energy              =    -515.6397517126132470 [Eh]

	 ================> DF-SCS-MP2 Energies <==================
	-----------------------------------------------------------
	 SCS Same-Spin Scale       =       0.3333333333333333 [-]
	 SCS Opposite-Spin Scale   =       1.2000000000000000 [-]
	 SCS Same-Spin Energy      =      -0.1862618147802243 [Eh]
	 SCS Opposite-Spin Energy  =      -2.0562143064486791 [Eh]
	 SCS Correlation Energy    =      -2.2424761212289033 [Eh]
	 SCS Total Energy          =    -515.6099304674609130 [Eh]
	-----------------------------------------------------------

  Dipole Moment: [D]
     X:     1.4691      Y:    -2.1979      Z:     0.0043     Total:     2.6437

*** Psi4 exiting successfully. Buy a developer a beer!
