                               Psi4 1.4a3.dev225

  ==> Input File <==

--------------------------------------------------------------------------
#psi4
#
memory 32 gb

molecule  {
0 1
  O       -2.2261580     0.9189870    -0.1609950
  N        0.4211910     1.5299470     0.0903790
  C        0.0817250     0.2107030     0.0159890
  C        2.4145630    -0.5010270    -0.0428790
  C       -1.3460660    -0.1139160     0.0206840
  C        1.0420520    -0.8182650    -0.0594370
  C        2.7641530     0.8636850     0.0360660
  C       -2.0477590    -1.2949740     0.1722820
  C        3.4684270    -1.5756500    -0.0824610
  C        1.7493340     1.8260270     0.0926910
  C       -3.3809603    -0.9628883     0.0780480
  C       -3.4828100     0.3886030    -0.1245500
  H        0.7225460    -1.8551450    -0.1446860
  H        3.8080070     1.1710760     0.0438400
  H       -1.6259220    -2.2752860     0.3500510
  H        3.8398640    -1.7937090     0.9244500
  H        3.0687740    -2.5034170    -0.5007000
  H        4.3228250    -1.2652800    -0.6906580
  H        1.9977040     2.8869120     0.1452960
  H       -4.2730300    -1.6376780     0.1527080
  H       -4.2894270     1.0948070    -0.2563320
units angstrom
no_reorient  #important for SAPT in psi4, default
symmetry c1  #important for SAPT in psi4, default
}

set PROPERTIES_ORIGIN ["COM"]
properties('MP2/aug-cc-pvtz', properties = ['dipole'])
--------------------------------------------------------------------------

    Molecular point group: c1
  Charge       = 0
  Multiplicity = 1
  Basis Set: AUG-CC-PVTZ
    Blend: AUG-CC-PVTZ
  Basis Set: (AUG-CC-PVTZ AUX)
    Blend: AUG-CC-PVTZ-JKFIT

    Orbital Energies [Eh]
    ---------------------

    Doubly Occupied:

       1A    -20.622507     2A    -15.563392     3A    -11.296994
       4A    -11.294200     5A    -11.291316     6A    -11.278632
       7A    -11.271797     8A    -11.242405     9A    -11.239453
      10A    -11.238264    11A    -11.235252    12A    -11.232752
      13A     -1.455060    14A     -1.243977    15A     -1.104432
      16A     -1.095802    17A     -1.058028    18A     -0.983734
      19A     -0.968140    20A     -0.862977    21A     -0.836926
      22A     -0.796982    23A     -0.766595    24A     -0.727945
      25A     -0.672923    26A     -0.668163    27A     -0.640123
      28A     -0.634499    29A     -0.598335    30A     -0.590581
      31A     -0.579003    32A     -0.566708    33A     -0.554530
      34A     -0.548848    35A     -0.542364    36A     -0.525257
      37A     -0.509564    38A     -0.417527    39A     -0.407676
      40A     -0.375917    41A     -0.362458    42A     -0.285487

  @DF-RHF Final Energy:  -513.37312651638581

   => Energetics <=

    Nuclear Repulsion Energy =            629.8676937392987156
    One-Electron Energy =               -1946.1065872034084805
    Two-Electron Energy =                 802.8657669477240688
    Total Energy =                       -513.3731265163858097
  Basis Set: (AUG-CC-PVTZ AUX)
    Blend: AUG-CC-PVTZ-RI
    Molecular point group: c1

    Geometry (in Angstrom), charge = 0, multiplicity = 1:

       Center              X                  Y                   Z               Mass
    ------------   -----------------  -----------------  -----------------  -----------------
         O           -2.182612290083     0.880232661187    -0.160943670542    15.994914619570
         N            0.464736709917     1.491192661187     0.090430329458    14.003074004430
         C            0.125270709917     0.171948661187     0.016040329458    12.000000000000
         C            2.458108709917    -0.539781338813    -0.042827670542    12.000000000000
         C           -1.302520290083    -0.152670338813     0.020735329458    12.000000000000
         C            1.085597709917    -0.857019338813    -0.059385670542    12.000000000000
         C            2.807698709917     0.824930661187     0.036117329458    12.000000000000
         C           -2.004213290083    -1.333728338813     0.172333329458    12.000000000000
         C            3.511972709917    -1.614404338813    -0.082409670542    12.000000000000
         C            1.792879709917     1.787272661187     0.092742329458    12.000000000000
         C           -3.337414590083    -1.001642638813     0.078099329458    12.000000000000
         C           -3.439264290083     0.349848661187    -0.124498670542    12.000000000000
         H            0.766091709917    -1.893899338813    -0.144634670542     1.007825032230
         H            3.851552709917     1.132321661187     0.043891329458     1.007825032230
         H           -1.582376290083    -2.314040338813     0.350102329458     1.007825032230
         H            3.883409709917    -1.832463338813     0.924501329458     1.007825032230
         H            3.112319709917    -2.542171338813    -0.500648670542     1.007825032230
         H            4.366370709917    -1.304034338813    -0.690606670542     1.007825032230
         H            2.041249709917     2.848157661187     0.145347329458     1.007825032230
         H           -4.229484290083    -1.676432338813     0.152759329458     1.007825032230
         H           -4.245881290083     1.056052661187    -0.256280670542     1.007825032230

  Basis Set: AUG-CC-PVTZ
    Blend: AUG-CC-PVTZ
  Basis Set: (AUG-CC-PVTZ AUX)
    Blend: AUG-CC-PVTZ-JKFIT
	 Reference Energy          =    -513.3731265163858097 [Eh]
	 Singles Energy            =      -0.0000000000000000 [Eh]
	 Same-Spin Energy          =      -0.5599656790545264 [Eh]
	 Opposite-Spin Energy      =      -1.7143329772641760 [Eh]
	 Correlation Energy        =      -2.2742986563187024 [Eh]
	 Total Energy              =    -515.6474251727045157 [Eh]

	 ================> DF-SCS-MP2 Energies <==================
	-----------------------------------------------------------
	 SCS Same-Spin Scale       =       0.3333333333333333 [-]
	 SCS Opposite-Spin Scale   =       1.2000000000000000 [-]
	 SCS Same-Spin Energy      =      -0.1866552263515088 [Eh]
	 SCS Opposite-Spin Energy  =      -2.0571995727170109 [Eh]
	 SCS Correlation Energy    =      -2.2438547990685196 [Eh]
	 SCS Total Energy          =    -515.6169813154543817 [Eh]
	-----------------------------------------------------------

  Dipole Moment: [D]
     X:     1.4586      Y:    -2.3664      Z:    -0.0061     Total:     2.7798

*** Psi4 exiting successfully. Buy a developer a beer!
