                               Psi4 1.4a3.dev225

  ==> Input File <==

--------------------------------------------------------------------------
#psi4
#
memory 32 gb

molecule  {
0 1
  O       -2.2261580     0.9189870    -0.1609950
  N        0.4211910     1.5299470     0.0903790
  C        0.0817250     0.2107030     0.0159890
  C        2.4145630    -0.5010270    -0.0428790
  C       -1.3948215    -0.1250009     0.0208443
  C        1.0420520    -0.8182650    -0.0594370
  C        2.7641530     0.8636850     0.0360660
  C       -2.0477590    -1.2949740     0.1722820
  C        3.4684270    -1.5756500    -0.0824610
  C        1.7493340     1.8260270     0.0926910
  C       -3.4286880    -0.9658200     0.0768380
  C       -3.4828100     0.3886030    -0.1245500
  H        0.7225460    -1.8551450    -0.1446860
  H        3.8080070     1.1710760     0.0438400
  H       -1.6259220    -2.2752860     0.3500510
  H        3.8398640    -1.7937090     0.9244500
  H        3.0687740    -2.5034170    -0.5007000
  H        4.3228250    -1.2652800    -0.6906580
  H        1.9977040     2.8869120     0.1452960
  H       -4.2730300    -1.6376780     0.1527080
  H       -4.2894270     1.0948070    -0.2563320
units angstrom
no_reorient  #important for SAPT in psi4, default
symmetry c1  #important for SAPT in psi4, default
}

set PROPERTIES_ORIGIN ["COM"]
properties('MP2/aug-cc-pvtz', properties = ['dipole'])
--------------------------------------------------------------------------

    Molecular point group: c1
  Charge       = 0
  Multiplicity = 1
  Basis Set: AUG-CC-PVTZ
    Blend: AUG-CC-PVTZ
  Basis Set: (AUG-CC-PVTZ AUX)
    Blend: AUG-CC-PVTZ-JKFIT

    Orbital Energies [Eh]
    ---------------------

    Doubly Occupied:

       1A    -20.624009     2A    -15.564100     3A    -11.297013
       4A    -11.295946     5A    -11.290625     6A    -11.278740
       7A    -11.271782     8A    -11.242270     9A    -11.239477
      10A    -11.238608    11A    -11.233786    12A    -11.232078
      13A     -1.464560    14A     -1.242834    15A     -1.104262
      16A     -1.093787    17A     -1.052497    18A     -0.986090
      19A     -0.968124    20A     -0.858753    21A     -0.832999
      22A     -0.805004    23A     -0.767241    24A     -0.727113
      25A     -0.673063    26A     -0.667757    27A     -0.640432
      28A     -0.635801    29A     -0.598523    30A     -0.590624
      31A     -0.580986    32A     -0.568575    33A     -0.559066
      34A     -0.548470    35A     -0.540904    36A     -0.524418
      37A     -0.506524    38A     -0.417138    39A     -0.404994
      40A     -0.373050    41A     -0.361753    42A     -0.293408

  @DF-RHF Final Energy:  -513.37682987069616

   => Energetics <=

    Nuclear Repulsion Energy =            629.0133548975168196
    One-Electron Energy =               -1944.3860021939135549
    Two-Electron Energy =                 801.9958174257005794
    Total Energy =                       -513.3768298706961559
  Basis Set: (AUG-CC-PVTZ AUX)
    Blend: AUG-CC-PVTZ-RI
    Molecular point group: c1

    Geometry (in Angstrom), charge = 0, multiplicity = 1:

       Center              X                  Y                   Z               Mass
    ------------   -----------------  -----------------  -----------------  -----------------
         O           -2.175333670956     0.881290062816    -0.160864481973    15.994914619570
         N            0.472015329044     1.492250062816     0.090509518027    14.003074004430
         C            0.132549329044     0.173006062816     0.016119518027    12.000000000000
         C            2.465387329044    -0.538723937184    -0.042748481973    12.000000000000
         C           -1.343997170956    -0.162697837184     0.020974818027    12.000000000000
         C            1.092876329044    -0.855961937184    -0.059306481973    12.000000000000
         C            2.814977329044     0.825988062816     0.036196518027    12.000000000000
         C           -1.996934670956    -1.332670937184     0.172412518027    12.000000000000
         C            3.519251329044    -1.613346937184    -0.082330481973    12.000000000000
         C            1.800158329044     1.788330062816     0.092821518027    12.000000000000
         C           -3.377863670956    -1.003516937184     0.076968518027    12.000000000000
         C           -3.431985670956     0.350906062816    -0.124419481973    12.000000000000
         H            0.773370329044    -1.892841937184    -0.144555481973     1.007825032230
         H            3.858831329044     1.133379062816     0.043970518027     1.007825032230
         H           -1.575097670956    -2.312982937184     0.350181518027     1.007825032230
         H            3.890688329044    -1.831405937184     0.924580518027     1.007825032230
         H            3.119598329044    -2.541113937184    -0.500569481973     1.007825032230
         H            4.373649329044    -1.302976937184    -0.690527481973     1.007825032230
         H            2.048528329044     2.849215062816     0.145426518027     1.007825032230
         H           -4.222205670956    -1.675374937184     0.152838518027     1.007825032230
         H           -4.238602670956     1.057110062816    -0.256201481973     1.007825032230

  Basis Set: AUG-CC-PVTZ
    Blend: AUG-CC-PVTZ
  Basis Set: (AUG-CC-PVTZ AUX)
    Blend: AUG-CC-PVTZ-JKFIT
	 Reference Energy          =    -513.3768298706961559 [Eh]
	 Singles Energy            =      -0.0000000000000000 [Eh]
	 Same-Spin Energy          =      -0.5579502116704165 [Eh]
	 Opposite-Spin Energy      =      -1.7118600749970589 [Eh]
	 Correlation Energy        =      -2.2698102866674752 [Eh]
	 Total Energy              =    -515.6466401573636631 [Eh]

	 ================> DF-SCS-MP2 Energies <==================
	-----------------------------------------------------------
	 SCS Same-Spin Scale       =       0.3333333333333333 [-]
	 SCS Opposite-Spin Scale   =       1.2000000000000000 [-]
	 SCS Same-Spin Energy      =      -0.1859834038901388 [Eh]
	 SCS Opposite-Spin Energy  =      -2.0542320899964706 [Eh]
	 SCS Correlation Energy    =      -2.2402154938866095 [Eh]
	 SCS Total Energy          =    -515.6170453645827365 [Eh]
	-----------------------------------------------------------

  Dipole Moment: [D]
     X:     1.5050      Y:    -2.3789      Z:    -0.0021     Total:     2.8150

*** Psi4 exiting successfully. Buy a developer a beer!
