                               Psi4 1.3.2 release

  ==> Input File <==

--------------------------------------------------------------------------
#psi4
#
memory 32 gb

molecule  {
-1 1
  S       -1.9699520     0.0002960    -0.4301720
  O       -0.2287560    -0.0011680     1.6042380
  C        0.8192725     0.1503510    -0.5192165
  C        1.6340270     1.2570650    -0.2212640
  C        1.6341410    -1.2566790    -0.2229280
  C       -0.4461550    -0.0002880     0.3723060
  H        0.5101060     0.0010330    -1.5685180
  H        1.8714700     1.2810570     0.8460150
  H        2.5686810     1.2824310    -0.7973980
  H        1.0553630     2.1549570    -0.4631840
  H        1.8715790    -1.2820640     0.8443200
  H        2.5688000    -1.2811950    -0.7990910
  H        1.0555640    -2.1543050    -0.4660390
units angstrom
no_reorient  #important for SAPT in psi4, default
symmetry c1  #important for SAPT in psi4, default
}

set PROPERTIES_ORIGIN ["COM"]
properties('MP2/aug-cc-pvtz', properties = ['dipole'])
--------------------------------------------------------------------------

    Molecular point group: c1
  Charge       = -1
  Multiplicity = 1
  Basis Set: AUG-CC-PVTZ
    Blend: AUG-CC-PVTZ
  Basis Set: (AUG-CC-PVTZ AUX)
    Blend: AUG-CC-PVTZ-JKFIT

    Orbital Energies [Eh]
    ---------------------

    Doubly Occupied:

       1A    -91.704636     2A    -20.344296     3A    -11.160378
       4A    -11.084900     5A    -11.084235     6A    -11.078201
       7A     -8.707052     8A     -6.388581     9A     -6.387114
      10A     -6.386624    11A     -1.172326    12A     -0.937782
      13A     -0.796147    14A     -0.776306    15A     -0.662106
      16A     -0.538880    17A     -0.478217    18A     -0.463437
      19A     -0.441046    20A     -0.407149    21A     -0.389590
      22A     -0.366314    23A     -0.353358    24A     -0.330763
      25A     -0.289976    26A     -0.204632    27A     -0.142523
      28A     -0.131740

  @DF-RHF Final Energy:  -628.06038838148629

   => Energetics <=

    Nuclear Repulsion Energy =            283.6227595848479837
    One-Electron Energy =               -1436.9496787171121923
    Two-Electron Energy =                 525.2665307507779744
    Total Energy =                       -628.0603883814862911
  Basis Set: (AUG-CC-PVTZ AUX)
    Blend: AUG-CC-PVTZ-RI
    Molecular point group: c1

    Geometry (in Angstrom), charge = -1, multiplicity = 1:

       Center              X                  Y                   Z               Mass
    ------------   -----------------  -----------------  -----------------  -----------------
         S           -1.859728790560    -0.017157580992    -0.453373161179    31.972071174400
         O           -0.118532790560    -0.018621580992     1.581036838821    15.994914619570
         C            0.929495709440     0.132897419008    -0.542417661179    12.000000000000
         C            1.744250209440     1.239611419008    -0.244465161179    12.000000000000
         C            1.744364209440    -1.274132580992    -0.246129161179    12.000000000000
         C           -0.335931790560    -0.017741580992     0.349104838821    12.000000000000
         H            0.620329209440    -0.016420580992    -1.591719161179     1.007825032230
         H            1.981693209440     1.263603419008     0.822813838821     1.007825032230
         H            2.678904209440     1.264977419008    -0.820599161179     1.007825032230
         H            1.165586209440     2.137503419008    -0.486385161179     1.007825032230
         H            1.981802209440    -1.299517580992     0.821118838821     1.007825032230
         H            2.679023209440    -1.298648580992    -0.822292161179     1.007825032230
         H            1.165787209440    -2.171758580992    -0.489240161179     1.007825032230

  Basis Set: AUG-CC-PVTZ
    Blend: AUG-CC-PVTZ
  Basis Set: (AUG-CC-PVTZ AUX)
    Blend: AUG-CC-PVTZ-JKFIT
	 Reference Energy          =    -628.0603883814862911 [Eh]
	 Singles Energy            =      -0.0000000000000000 [Eh]
	 Same-Spin Energy          =      -0.3004022619025677 [Eh]
	 Opposite-Spin Energy      =      -0.9584588654775272 [Eh]
	 Correlation Energy        =      -1.2588611273800949 [Eh]
	 Total Energy              =    -629.3192495088663918 [Eh]

	 ================> DF-SCS-MP2 Energies <==================
	-----------------------------------------------------------
	 SCS Same-Spin Scale       =       0.3333333333333333 [-]
	 SCS Opposite-Spin Scale   =       1.2000000000000000 [-]
	 SCS Same-Spin Energy      =      -0.1001340873008559 [Eh]
	 SCS Opposite-Spin Energy  =      -1.1501506385730327 [Eh]
	 SCS Correlation Energy    =      -1.2502847258738885 [Eh]
	 SCS Total Energy          =    -629.3106731073602305 [Eh]
	-----------------------------------------------------------

  Dipole Moment: [D]
     X:     5.2929      Y:     0.2778      Z:    -1.5106     Total:     5.5112

*** Psi4 exiting successfully. Buy a developer a beer!
