                               Psi4 1.3.2 release

  ==> Input File <==

--------------------------------------------------------------------------
#psi4
#
memory 32 gb

molecule  {
-1 1
  S       -1.9699520     0.0002960    -0.4301720
  O       -0.2287560    -0.0011680     1.6042380
  C        0.8192722     0.0503510    -0.5192882
  C        1.6340270     1.2570650    -0.2212640
  C        1.6341410    -1.2566790    -0.2229280
  C       -0.4461550    -0.0002880     0.3723060
  H        0.5101060     0.0010330    -1.5685180
  H        1.8714700     1.2810570     0.8460150
  H        2.5686810     1.2824310    -0.7973980
  H        1.0553630     2.1549570    -0.4631840
  H        1.8715790    -1.2820640     0.8443200
  H        2.5688000    -1.2811950    -0.7990910
  H        1.0555640    -2.1543050    -0.4660390
units angstrom
no_reorient  #important for SAPT in psi4, default
symmetry c1  #important for SAPT in psi4, default
}

set PROPERTIES_ORIGIN ["COM"]
properties('MP2/aug-cc-pvtz', properties = ['dipole'])
--------------------------------------------------------------------------

    Molecular point group: c1
  Charge       = -1
  Multiplicity = 1
  Basis Set: AUG-CC-PVTZ
    Blend: AUG-CC-PVTZ
  Basis Set: (AUG-CC-PVTZ AUX)
    Blend: AUG-CC-PVTZ-JKFIT

    Orbital Energies [Eh]
    ---------------------

    Doubly Occupied:

       1A    -91.704167     2A    -20.344152     3A    -11.159031
       4A    -11.083517     5A    -11.082262     6A    -11.080979
       7A     -8.706599     8A     -6.388127     9A     -6.386669
      10A     -6.386179    11A     -1.172208    12A     -0.930311
      13A     -0.796416    14A     -0.777216    15A     -0.663470
      16A     -0.538648    17A     -0.476121    18A     -0.461821
      19A     -0.433665    20A     -0.406057    21A     -0.383031
      22A     -0.366427    23A     -0.354740    24A     -0.329278
      25A     -0.309747    26A     -0.205330    27A     -0.142314
      28A     -0.131642

  @DF-RHF Final Energy:  -628.07852378587211

   => Energetics <=

    Nuclear Repulsion Energy =            283.6170009472081119
    One-Electron Energy =               -1436.9907996786728290
    Two-Electron Energy =                 525.2952749455927233
    Total Energy =                       -628.0785237858721075
  Basis Set: (AUG-CC-PVTZ AUX)
    Blend: AUG-CC-PVTZ-RI
    Molecular point group: c1

    Geometry (in Angstrom), charge = -1, multiplicity = 1:

       Center              X                  Y                   Z               Mass
    ------------   -----------------  -----------------  -----------------  -----------------
         S           -1.859728755616    -0.005509556457    -0.453364809546    31.972071174400
         O           -0.118532755616    -0.006973556457     1.581045190454    15.994914619570
         C            0.929495444384     0.044545443543    -0.542481009546    12.000000000000
         C            1.744250244384     1.251259443543    -0.244456809546    12.000000000000
         C            1.744364244384    -1.262484556457    -0.246120809546    12.000000000000
         C           -0.335931755616    -0.006093556457     0.349113190454    12.000000000000
         H            0.620329244384    -0.004772556457    -1.591710809546     1.007825032230
         H            1.981693244384     1.275251443543     0.822822190454     1.007825032230
         H            2.678904244384     1.276625443543    -0.820590809546     1.007825032230
         H            1.165586244384     2.149151443543    -0.486376809546     1.007825032230
         H            1.981802244384    -1.287869556457     0.821127190454     1.007825032230
         H            2.679023244384    -1.287000556457    -0.822283809546     1.007825032230
         H            1.165787244384    -2.160110556457    -0.489231809546     1.007825032230

  Basis Set: AUG-CC-PVTZ
    Blend: AUG-CC-PVTZ
  Basis Set: (AUG-CC-PVTZ AUX)
    Blend: AUG-CC-PVTZ-JKFIT
	 Reference Energy          =    -628.0785237858721075 [Eh]
	 Singles Energy            =      -0.0000000000000000 [Eh]
	 Same-Spin Energy          =      -0.2995446763503610 [Eh]
	 Opposite-Spin Energy      =      -0.9570207210207251 [Eh]
	 Correlation Energy        =      -1.2565653973710860 [Eh]
	 Total Energy              =    -629.3350891832432126 [Eh]

	 ================> DF-SCS-MP2 Energies <==================
	-----------------------------------------------------------
	 SCS Same-Spin Scale       =       0.3333333333333333 [-]
	 SCS Opposite-Spin Scale   =       1.2000000000000000 [-]
	 SCS Same-Spin Energy      =      -0.0998482254501203 [Eh]
	 SCS Opposite-Spin Energy  =      -1.1484248652248701 [Eh]
	 SCS Correlation Energy    =      -1.2482730906749904 [Eh]
	 SCS Total Energy          =    -629.3267968765470641 [Eh]
	-----------------------------------------------------------

  Dipole Moment: [D]
     X:     5.3228      Y:     0.0906      Z:    -1.5165     Total:     5.5354

*** Psi4 exiting successfully. Buy a developer a beer!
