                               Psi4 1.3.2 release

  ==> Input File <==

--------------------------------------------------------------------------
#psi4
#
memory 32 gb

molecule  {
-1 1
  S       -1.9699520     0.0002960    -0.4301720
  O       -0.2287560    -0.0011680     1.6042380
  C        0.8192726     0.2003509    -0.5191806
  C        1.6340270     1.2570650    -0.2212640
  C        1.6341410    -1.2566790    -0.2229280
  C       -0.4461550    -0.0002880     0.3723060
  H        0.5101060     0.0010330    -1.5685180
  H        1.8714700     1.2810570     0.8460150
  H        2.5686810     1.2824310    -0.7973980
  H        1.0553630     2.1549570    -0.4631840
  H        1.8715790    -1.2820640     0.8443200
  H        2.5688000    -1.2811950    -0.7990910
  H        1.0555640    -2.1543050    -0.4660390
units angstrom
no_reorient  #important for SAPT in psi4, default
symmetry c1  #important for SAPT in psi4, default
}

set PROPERTIES_ORIGIN ["COM"]
properties('MP2/aug-cc-pvtz', properties = ['dipole'])
--------------------------------------------------------------------------

    Molecular point group: c1
  Charge       = -1
  Multiplicity = 1
  Basis Set: AUG-CC-PVTZ
    Blend: AUG-CC-PVTZ
  Basis Set: (AUG-CC-PVTZ AUX)
    Blend: AUG-CC-PVTZ-JKFIT

    Orbital Energies [Eh]
    ---------------------

    Doubly Occupied:

       1A    -91.705054     2A    -20.344441     3A    -11.161557
       4A    -11.086099     5A    -11.084936     6A    -11.076780
       7A     -8.707455     8A     -6.388986     9A     -6.387509
      10A     -6.387021    11A     -1.172445    12A     -0.944275
      13A     -0.795829    14A     -0.775554    15A     -0.660923
      16A     -0.539207    17A     -0.480172    18A     -0.465098
      19A     -0.447175    20A     -0.407760    21A     -0.392159
      22A     -0.366301    23A     -0.352131    24A     -0.330820
      25A     -0.277345    26A     -0.203975    27A     -0.142709
      28A     -0.131819

  @DF-RHF Final Energy:  -628.04423360888302

   => Energetics <=

    Nuclear Repulsion Energy =            283.6284346241253047
    One-Electron Energy =               -1436.9142655330110756
    Two-Electron Energy =                 525.2415973000028089
    Total Energy =                       -628.0442336088830189
  Basis Set: (AUG-CC-PVTZ AUX)
    Blend: AUG-CC-PVTZ-RI
    Molecular point group: c1

    Geometry (in Angstrom), charge = -1, multiplicity = 1:

       Center              X                  Y                   Z               Mass
    ------------   -----------------  -----------------  -----------------  -----------------
         S           -1.859728802208    -0.022981581612    -0.453377342820    31.972071174400
         O           -0.118532802208    -0.024445581612     1.581032657180    15.994914619570
         C            0.929495797792     0.177073318388    -0.542385942820    12.000000000000
         C            1.744250197792     1.233787418388    -0.244469342820    12.000000000000
         C            1.744364197792    -1.279956581612    -0.246133342820    12.000000000000
         C           -0.335931802208    -0.023565581612     0.349100657180    12.000000000000
         H            0.620329197792    -0.022244581612    -1.591723342820     1.007825032230
         H            1.981693197792     1.257779418388     0.822809657180     1.007825032230
         H            2.678904197792     1.259153418388    -0.820603342820     1.007825032230
         H            1.165586197792     2.131679418388    -0.486389342820     1.007825032230
         H            1.981802197792    -1.305341581612     0.821114657180     1.007825032230
         H            2.679023197792    -1.304472581612    -0.822296342820     1.007825032230
         H            1.165787197792    -2.177582581612    -0.489244342820     1.007825032230

  Basis Set: AUG-CC-PVTZ
    Blend: AUG-CC-PVTZ
  Basis Set: (AUG-CC-PVTZ AUX)
    Blend: AUG-CC-PVTZ-JKFIT
	 Reference Energy          =    -628.0442336088830189 [Eh]
	 Singles Energy            =      -0.0000000000000000 [Eh]
	 Same-Spin Energy          =      -0.3011580848572805 [Eh]
	 Opposite-Spin Energy      =      -0.9597167176601888 [Eh]
	 Correlation Energy        =      -1.2608748025174694 [Eh]
	 Total Energy              =    -629.3051084114005107 [Eh]

	 ================> DF-SCS-MP2 Energies <==================
	-----------------------------------------------------------
	 SCS Same-Spin Scale       =       0.3333333333333333 [-]
	 SCS Opposite-Spin Scale   =       1.2000000000000000 [-]
	 SCS Same-Spin Energy      =      -0.1003860282857602 [Eh]
	 SCS Opposite-Spin Energy  =      -1.1516600611922265 [Eh]
	 SCS Correlation Energy    =      -1.2520460894779868 [Eh]
	 SCS Total Energy          =    -629.2962796983609906 [Eh]
	-----------------------------------------------------------

  Dipole Moment: [D]
     X:     5.2659      Y:     0.3798      Z:    -1.5054     Total:     5.4901

*** Psi4 exiting successfully. Buy a developer a beer!
