                               Psi4 1.3.2 release

  ==> Input File <==

--------------------------------------------------------------------------
#psi4
#
memory 32 gb

molecule  {
-1 1
  S       -1.9699520     0.0002960    -0.4301720
  O       -0.2287560    -0.0011680     1.6042380
  C        0.8192728     0.2503509    -0.5191448
  C        1.6340270     1.2570650    -0.2212640
  C        1.6341410    -1.2566790    -0.2229280
  C       -0.4461550    -0.0002880     0.3723060
  H        0.5101060     0.0010330    -1.5685180
  H        1.8714700     1.2810570     0.8460150
  H        2.5686810     1.2824310    -0.7973980
  H        1.0553630     2.1549570    -0.4631840
  H        1.8715790    -1.2820640     0.8443200
  H        2.5688000    -1.2811950    -0.7990910
  H        1.0555640    -2.1543050    -0.4660390
units angstrom
no_reorient  #important for SAPT in psi4, default
symmetry c1  #important for SAPT in psi4, default
}

set PROPERTIES_ORIGIN ["COM"]
properties('MP2/aug-cc-pvtz', properties = ['dipole'])
--------------------------------------------------------------------------

    Molecular point group: c1
  Charge       = -1
  Multiplicity = 1
  Basis Set: AUG-CC-PVTZ
    Blend: AUG-CC-PVTZ
  Basis Set: (AUG-CC-PVTZ AUX)
    Blend: AUG-CC-PVTZ-JKFIT

    Orbital Energies [Eh]
    ---------------------

    Doubly Occupied:

       1A    -91.705599     2A    -20.344654     3A    -11.163073
       4A    -11.088341     5A    -11.084591     6A    -11.075458
       7A     -8.707983     8A     -6.389515     9A     -6.388028
      10A     -6.387541    11A     -1.172620    12A     -0.952550
      13A     -0.795344    14A     -0.774618    15A     -0.659422
      16A     -0.539794    17A     -0.482878    18A     -0.467811
      19A     -0.453772    20A     -0.408133    21A     -0.393708
      22A     -0.366366    23A     -0.350622    24A     -0.330508
      25A     -0.264076    26A     -0.203051    27A     -0.142953
      28A     -0.131908

  @DF-RHF Final Energy:  -628.02309366354098

   => Energetics <=

    Nuclear Repulsion Energy =            283.6365345089960215
    One-Electron Energy =               -1436.8694185449405722
    Two-Electron Energy =                 525.2097903724036314
    Total Energy =                       -628.0230936635409762
  Basis Set: (AUG-CC-PVTZ AUX)
    Blend: AUG-CC-PVTZ-RI
    Molecular point group: c1

    Geometry (in Angstrom), charge = -1, multiplicity = 1:

       Center              X                  Y                   Z               Mass
    ------------   -----------------  -----------------  -----------------  -----------------
         S           -1.859728825504    -0.028805593879    -0.453381512813    31.972071174400
         O           -0.118532825504    -0.030269593879     1.581028487187    15.994914619570
         C            0.929495974496     0.221249306121    -0.542354312813    12.000000000000
         C            1.744250174496     1.227963406121    -0.244473512813    12.000000000000
         C            1.744364174496    -1.285780593879    -0.246137512813    12.000000000000
         C           -0.335931825504    -0.029389593879     0.349096487187    12.000000000000
         H            0.620329174496    -0.028068593879    -1.591727512813     1.007825032230
         H            1.981693174496     1.251955406121     0.822805487187     1.007825032230
         H            2.678904174496     1.253329406121    -0.820607512813     1.007825032230
         H            1.165586174496     2.125855406121    -0.486393512813     1.007825032230
         H            1.981802174496    -1.311165593879     0.821110487187     1.007825032230
         H            2.679023174496    -1.310296593879    -0.822300512813     1.007825032230
         H            1.165787174496    -2.183406593879    -0.489248512813     1.007825032230

  Basis Set: AUG-CC-PVTZ
    Blend: AUG-CC-PVTZ
  Basis Set: (AUG-CC-PVTZ AUX)
    Blend: AUG-CC-PVTZ-JKFIT
	 Reference Energy          =    -628.0230936635409762 [Eh]
	 Singles Energy            =      -0.0000000000000000 [Eh]
	 Same-Spin Energy          =      -0.3021349536433433 [Eh]
	 Opposite-Spin Energy      =      -0.9613267911215948 [Eh]
	 Correlation Energy        =      -1.2634617447649381 [Eh]
	 Total Energy              =    -629.2865554083059578 [Eh]

	 ================> DF-SCS-MP2 Energies <==================
	-----------------------------------------------------------
	 SCS Same-Spin Scale       =       0.3333333333333333 [-]
	 SCS Opposite-Spin Scale   =       1.2000000000000000 [-]
	 SCS Same-Spin Energy      =      -0.1007116512144478 [Eh]
	 SCS Opposite-Spin Energy  =      -1.1535921493459138 [Eh]
	 SCS Correlation Energy    =      -1.2543038005603615 [Eh]
	 SCS Total Energy          =    -629.2773974641013410 [Eh]
	-----------------------------------------------------------

  Dipole Moment: [D]
     X:     5.2305      Y:     0.4909      Z:    -1.4988     Total:     5.4631

*** Psi4 exiting successfully. Buy a developer a beer!
