                               Psi4 1.3.2 release

  ==> Input File <==

--------------------------------------------------------------------------
#psi4
#
memory 32 gb

molecule  {
-1 1
  S       -1.9699520     0.0002960    -0.4301720
  O       -0.2287560    -0.0011680     1.6042380
  C        0.8192723     0.1003510    -0.5192523
  C        1.6340270     1.2570650    -0.2212640
  C        1.6341410    -1.2566790    -0.2229280
  C       -0.4461550    -0.0002880     0.3723060
  H        0.5101060     0.0010330    -1.5685180
  H        1.8714700     1.2810570     0.8460150
  H        2.5686810     1.2824310    -0.7973980
  H        1.0553630     2.1549570    -0.4631840
  H        1.8715790    -1.2820640     0.8443200
  H        2.5688000    -1.2811950    -0.7990910
  H        1.0555640    -2.1543050    -0.4660390
units angstrom
no_reorient  #important for SAPT in psi4, default
symmetry c1  #important for SAPT in psi4, default
}

set PROPERTIES_ORIGIN ["COM"]
properties('MP2/aug-cc-pvtz', properties = ['dipole'])
--------------------------------------------------------------------------

    Molecular point group: c1
  Charge       = -1
  Multiplicity = 1
  Basis Set: AUG-CC-PVTZ
    Blend: AUG-CC-PVTZ
  Basis Set: (AUG-CC-PVTZ AUX)
    Blend: AUG-CC-PVTZ-JKFIT

    Orbital Energies [Eh]
    ---------------------

    Doubly Occupied:

       1A    -91.704342     2A    -20.344203     3A    -11.159536
       4A    -11.084348     5A    -11.082995     6A    -11.079636
       7A     -8.706768     8A     -6.388296     9A     -6.386835
      10A     -6.386345    11A     -1.172250    12A     -0.933118
      13A     -0.796329    14A     -0.776867    15A     -0.662957
      16A     -0.538717    17A     -0.476891    18A     -0.462401
      19A     -0.436416    20A     -0.406513    21A     -0.386208
      22A     -0.366370    23A     -0.354234    24A     -0.330258
      25A     -0.301206    26A     -0.205074    27A     -0.142391
      28A     -0.131680

  @DF-RHF Final Energy:  -628.07176513751438

   => Energetics <=

    Nuclear Repulsion Energy =            283.6190695413247909
    One-Electron Energy =               -1436.9753003192522556
    Two-Electron Energy =                 525.2844656404131456
    Total Energy =                       -628.0717651375143760
  Basis Set: (AUG-CC-PVTZ AUX)
    Blend: AUG-CC-PVTZ-RI
    Molecular point group: c1

    Geometry (in Angstrom), charge = -1, multiplicity = 1:

       Center              X                  Y                   Z               Mass
    ------------   -----------------  -----------------  -----------------  -----------------
         S           -1.859728767264    -0.011333568725    -0.453368991186    31.972071174400
         O           -0.118532767264    -0.012797568725     1.581041008814    15.994914619570
         C            0.929495532736     0.088721431275    -0.542449291186    12.000000000000
         C            1.744250232736     1.245435431275    -0.244460991186    12.000000000000
         C            1.744364232736    -1.268308568725    -0.246124991186    12.000000000000
         C           -0.335931767264    -0.011917568725     0.349109008814    12.000000000000
         H            0.620329232736    -0.010596568725    -1.591714991186     1.007825032230
         H            1.981693232736     1.269427431275     0.822818008814     1.007825032230
         H            2.678904232736     1.270801431275    -0.820594991186     1.007825032230
         H            1.165586232736     2.143327431275    -0.486380991186     1.007825032230
         H            1.981802232736    -1.293693568725     0.821123008814     1.007825032230
         H            2.679023232736    -1.292824568725    -0.822287991186     1.007825032230
         H            1.165787232736    -2.165934568725    -0.489235991186     1.007825032230

  Basis Set: AUG-CC-PVTZ
    Blend: AUG-CC-PVTZ
  Basis Set: (AUG-CC-PVTZ AUX)
    Blend: AUG-CC-PVTZ-JKFIT
	 Reference Energy          =    -628.0717651375143760 [Eh]
	 Singles Energy            =      -0.0000000000000000 [Eh]
	 Same-Spin Energy          =      -0.2998653659548343 [Eh]
	 Opposite-Spin Energy      =      -0.9575597396457590 [Eh]
	 Correlation Energy        =      -1.2574251056005932 [Eh]
	 Total Energy              =    -629.3291902431150220 [Eh]

	 ================> DF-SCS-MP2 Energies <==================
	-----------------------------------------------------------
	 SCS Same-Spin Scale       =       0.3333333333333333 [-]
	 SCS Opposite-Spin Scale   =       1.2000000000000000 [-]
	 SCS Same-Spin Energy      =      -0.0999551219849447 [Eh]
	 SCS Opposite-Spin Energy  =      -1.1490716875749107 [Eh]
	 SCS Correlation Energy    =      -1.2490268095598556 [Eh]
	 SCS Total Energy          =    -629.3207919470742127 [Eh]
	-----------------------------------------------------------

  Dipole Moment: [D]
     X:     5.3117      Y:     0.1821      Z:    -1.5143     Total:     5.5263

*** Psi4 exiting successfully. Buy a developer a beer!
