                               Psi4 1.3.2 release

  ==> Input File <==

--------------------------------------------------------------------------
#psi4
#
memory 32 gb

molecule  {
0 1
  N        0.1712930    -1.0406060    -0.0000250
  N        1.5395640     0.7140220    -0.0006150
  C       -0.6486520     0.0688480    -0.0000100
  C       -2.1370900    -0.0166370     0.0000170
  C        0.2282570     1.1348590     0.0002090
  C        1.4683060    -0.6083830     0.0003860
  H       -0.1378750    -2.0050800    -0.0000100
  H       -2.5173940    -0.5355380     0.8864280
  H       -2.5554930     0.9924890    -0.0004510
  H       -2.5174040    -0.5363680    -0.8859050
  H       -0.0217869     2.1884072    -0.2997240
  H        2.3089220    -1.2898710     0.0005270
units angstrom
no_reorient  #important for SAPT in psi4, default
symmetry c1  #important for SAPT in psi4, default
}

set PROPERTIES_ORIGIN ["COM"]
properties('MP2/aug-cc-pvtz', properties = ['dipole'])
--------------------------------------------------------------------------

    Molecular point group: c1
  Charge       = 0
  Multiplicity = 1
  Basis Set: AUG-CC-PVTZ
    Blend: AUG-CC-PVTZ
  Basis Set: (AUG-CC-PVTZ AUX)
    Blend: AUG-CC-PVTZ-JKFIT

    Orbital Energies [Eh]
    ---------------------

    Doubly Occupied:

       1A    -15.619387     2A    -15.543612     3A    -11.294469
       4A    -11.266750     5A    -11.241651     6A    -11.239418
       7A     -1.334893     8A     -1.162353     9A     -1.044021
      10A     -0.937479    11A     -0.822064    12A     -0.784789
      13A     -0.721118    14A     -0.618757    15A     -0.614104
      16A     -0.571163    17A     -0.560785    18A     -0.550369
      19A     -0.549141    20A     -0.432375    21A     -0.395057
      22A     -0.306934

  @DF-RHF Final Energy:  -263.94308025247136

   => Energetics <=

    Nuclear Repulsion Energy =            223.6195673198381257
    One-Electron Energy =                -799.9039159537575188
    Two-Electron Energy =                 312.3412683814480602
    Total Energy =                       -263.9430802524713613
  Basis Set: (AUG-CC-PVTZ AUX)
    Blend: AUG-CC-PVTZ-RI
    Molecular point group: c1

    Geometry (in Angstrom), charge = 0, multiplicity = 1:

       Center              X                  Y                   Z               Mass
    ------------   -----------------  -----------------  -----------------  -----------------
         N            0.105439276518    -1.054936026819     0.003670335277    14.003074004430
         N            1.473710276518     0.699691973181     0.003080335277    14.003074004430
         C           -0.714505723482     0.054517973181     0.003685335277    12.000000000000
         C           -2.202943723482    -0.030967026819     0.003712335277    12.000000000000
         C            0.162403276518     1.120528973181     0.003904335277    12.000000000000
         C            1.402452276518    -0.622713026819     0.004081335277    12.000000000000
         H           -0.203728723482    -2.019410026819     0.003685335277     1.007825032230
         H           -2.583247723482    -0.549868026819     0.890123335277     1.007825032230
         H           -2.621346723482     0.978158973181     0.003244335277     1.007825032230
         H           -2.583257723482    -0.550698026819    -0.882209664723     1.007825032230
         H           -0.087640623482     2.174077173181    -0.296028664723     1.007825032230
         H            2.243068276518    -1.304201026819     0.004222335277     1.007825032230

  Basis Set: AUG-CC-PVTZ
    Blend: AUG-CC-PVTZ
  Basis Set: (AUG-CC-PVTZ AUX)
    Blend: AUG-CC-PVTZ-JKFIT
	 Reference Energy          =    -263.9430802524713613 [Eh]
	 Singles Energy            =      -0.0000000000000000 [Eh]
	 Same-Spin Energy          =      -0.2870602426828011 [Eh]
	 Opposite-Spin Energy      =      -0.8976677686087242 [Eh]
	 Correlation Energy        =      -1.1847280112915253 [Eh]
	 Total Energy              =    -265.1278082637628586 [Eh]

	 ================> DF-SCS-MP2 Energies <==================
	-----------------------------------------------------------
	 SCS Same-Spin Scale       =       0.3333333333333333 [-]
	 SCS Opposite-Spin Scale   =       1.2000000000000000 [-]
	 SCS Same-Spin Energy      =      -0.0956867475609337 [Eh]
	 SCS Opposite-Spin Energy  =      -1.0772013223304691 [Eh]
	 SCS Correlation Energy    =      -1.1728880698914028 [Eh]
	 SCS Total Energy          =    -265.1159683223627894 [Eh]
	-----------------------------------------------------------

  Dipole Moment: [D]
     X:    -2.7864      Y:    -3.0667      Z:    -0.2202     Total:     4.1493

*** Psi4 exiting successfully. Buy a developer a beer!
