                               Psi4 1.3.2 release

  ==> Input File <==

--------------------------------------------------------------------------
#psi4
#
memory 32 gb

molecule  {
0 1
  N        0.1712930    -1.0406060    -0.0000250
  N        1.5395640     0.7140220    -0.0006150
  C       -0.6486520     0.0688480    -0.0000100
  C       -2.1370900    -0.0166370     0.0000170
  C        0.2282570     1.1348590     0.0002090
  C        1.4683060    -0.6083830     0.0003860
  H       -0.1378242    -2.0050675    -0.2500100
  H       -2.5173940    -0.5355380     0.8864280
  H       -2.5554930     0.9924890    -0.0004510
  H       -2.5174040    -0.5363680    -0.8859050
  H       -0.0216830     2.1883360     0.0002760
  H        2.3089220    -1.2898710     0.0005270
units angstrom
no_reorient  #important for SAPT in psi4, default
symmetry c1  #important for SAPT in psi4, default
}

set PROPERTIES_ORIGIN ["COM"]
properties('MP2/aug-cc-pvtz', properties = ['dipole'])
--------------------------------------------------------------------------

    Molecular point group: c1
  Charge       = 0
  Multiplicity = 1
  Basis Set: AUG-CC-PVTZ
    Blend: AUG-CC-PVTZ
  Basis Set: (AUG-CC-PVTZ AUX)
    Blend: AUG-CC-PVTZ-JKFIT

    Orbital Energies [Eh]
    ---------------------

    Doubly Occupied:

       1A    -15.619750     2A    -15.543904     3A    -11.293966
       4A    -11.265039     5A    -11.240998     6A    -11.236619
       7A     -1.333166     8A     -1.159673     9A     -1.043131
      10A     -0.937675    11A     -0.814313    12A     -0.788131
      13A     -0.719346    14A     -0.622910    15A     -0.608212
      16A     -0.570159    17A     -0.562391    18A     -0.556337
      19A     -0.548406    20A     -0.432337    21A     -0.396097
      22A     -0.306988

  @DF-RHF Final Energy:  -263.94583181283360

   => Energetics <=

    Nuclear Repulsion Energy =            223.6324410620898107
    One-Electron Energy =                -799.9574429772916346
    Two-Electron Energy =                 312.3791701023682208
    Total Energy =                       -263.9458318128336032
  Basis Set: (AUG-CC-PVTZ AUX)
    Blend: AUG-CC-PVTZ-RI
    Molecular point group: c1

    Geometry (in Angstrom), charge = 0, multiplicity = 1:

       Center              X                  Y                   Z               Mass
    ------------   -----------------  -----------------  -----------------  -----------------
         N            0.105437376401    -1.054935305831     0.003056205491    14.003074004430
         N            1.473708376401     0.699692694169     0.002466205491    14.003074004430
         C           -0.714507623599     0.054518694169     0.003071205491    12.000000000000
         C           -2.202945623599    -0.030966305831     0.003098205491    12.000000000000
         C            0.162401376401     1.120529694169     0.003290205491    12.000000000000
         C            1.402450376401    -0.622712305831     0.003467205491    12.000000000000
         H           -0.203679823599    -2.019396805831    -0.246928794509     1.007825032230
         H           -2.583249623599    -0.549867305831     0.889509205491     1.007825032230
         H           -2.621348623599     0.978159694169     0.002630205491     1.007825032230
         H           -2.583259623599    -0.550697305831    -0.882823794509     1.007825032230
         H           -0.087538623599     2.174006694169     0.003357205491     1.007825032230
         H            2.243066376401    -1.304200305831     0.003608205491     1.007825032230

  Basis Set: AUG-CC-PVTZ
    Blend: AUG-CC-PVTZ
  Basis Set: (AUG-CC-PVTZ AUX)
    Blend: AUG-CC-PVTZ-JKFIT
	 Reference Energy          =    -263.9458318128336032 [Eh]
	 Singles Energy            =      -0.0000000000000000 [Eh]
	 Same-Spin Energy          =      -0.2869452537916171 [Eh]
	 Opposite-Spin Energy      =      -0.8974652715127804 [Eh]
	 Correlation Energy        =      -1.1844105253043975 [Eh]
	 Total Energy              =    -265.1302423381379754 [Eh]

	 ================> DF-SCS-MP2 Energies <==================
	-----------------------------------------------------------
	 SCS Same-Spin Scale       =       0.3333333333333333 [-]
	 SCS Opposite-Spin Scale   =       1.2000000000000000 [-]
	 SCS Same-Spin Energy      =      -0.0956484179305390 [Eh]
	 SCS Opposite-Spin Energy  =      -1.0769583258153366 [Eh]
	 SCS Correlation Energy    =      -1.1726067437458756 [Eh]
	 SCS Total Energy          =    -265.1184385565794628 [Eh]
	-----------------------------------------------------------

  Dipole Moment: [D]
     X:    -2.7830      Y:    -2.9455      Z:    -0.3549     Total:     4.0678

*** Psi4 exiting successfully. Buy a developer a beer!
