                               Psi4 1.3.2 release

  ==> Input File <==

--------------------------------------------------------------------------
#psi4
#
memory 32 gb

molecule  {
0 1
  N        0.1712930    -1.0406060    -0.0000250
  N        1.5395640     0.7140220    -0.0006150
  C       -0.6486520     0.0688480    -0.0000100
  C       -2.1370900    -0.0166370     0.0000170
  C        0.2282658     1.1348910    -0.2997910
  C        1.4683060    -0.6083830     0.0003860
  H       -0.1378750    -2.0050800    -0.0000100
  H       -2.5173940    -0.5355380     0.8864280
  H       -2.5554930     0.9924890    -0.0004510
  H       -2.5174040    -0.5363680    -0.8859050
  H       -0.0216830     2.1883360     0.0002760
  H        2.3089220    -1.2898710     0.0005270
units angstrom
no_reorient  #important for SAPT in psi4, default
symmetry c1  #important for SAPT in psi4, default
}

set PROPERTIES_ORIGIN ["COM"]
properties('MP2/aug-cc-pvtz', properties = ['dipole'])
--------------------------------------------------------------------------

    Molecular point group: c1
  Charge       = 0
  Multiplicity = 1
  Basis Set: AUG-CC-PVTZ
    Blend: AUG-CC-PVTZ
  Basis Set: (AUG-CC-PVTZ AUX)
    Blend: AUG-CC-PVTZ-JKFIT

    Orbital Energies [Eh]
    ---------------------

    Doubly Occupied:

       1A    -15.621758     2A    -15.545897     3A    -11.294557
       4A    -11.277921     5A    -11.243886     6A    -11.242288
       7A     -1.332897     8A     -1.157719     9A     -1.044478
      10A     -0.936498    11A     -0.817009    12A     -0.786260
      13A     -0.719673    14A     -0.620154    15A     -0.612118
      16A     -0.569321    17A     -0.563149    18A     -0.550981
      19A     -0.535331    20A     -0.432076    21A     -0.390439
      22A     -0.306930

  @DF-RHF Final Energy:  -263.92069335086296

   => Energetics <=

    Nuclear Repulsion Energy =            222.7334487020832228
    One-Electron Energy =                -798.1056065376270681
    Two-Electron Energy =                 311.4514644846808551
    Total Energy =                       -263.9206933508629618
  Basis Set: (AUG-CC-PVTZ AUX)
    Blend: AUG-CC-PVTZ-RI
    Molecular point group: c1

    Geometry (in Angstrom), charge = 0, multiplicity = 1:

       Center              X                  Y                   Z               Mass
    ------------   -----------------  -----------------  -----------------  -----------------
         N            0.105436713385    -1.054939832195     0.043859585440    14.003074004430
         N            1.473707713385     0.699688167805     0.043269585440    14.003074004430
         C           -0.714508286615     0.054514167805     0.043874585440    12.000000000000
         C           -2.202946286615    -0.030970832195     0.043901585440    12.000000000000
         C            0.162409513385     1.120557167805    -0.255906414560    12.000000000000
         C            1.402449713385    -0.622716832195     0.044270585440    12.000000000000
         H           -0.203731286615    -2.019413832195     0.043874585440     1.007825032230
         H           -2.583250286615    -0.549871832195     0.930312585440     1.007825032230
         H           -2.621349286615     0.978155167805     0.043433585440     1.007825032230
         H           -2.583260286615    -0.550701832195    -0.842020414560     1.007825032230
         H           -0.087539286615     2.174002167805     0.044160585440     1.007825032230
         H            2.243065713385    -1.304204832195     0.044411585440     1.007825032230

  Basis Set: AUG-CC-PVTZ
    Blend: AUG-CC-PVTZ
  Basis Set: (AUG-CC-PVTZ AUX)
    Blend: AUG-CC-PVTZ-JKFIT
	 Reference Energy          =    -263.9206933508629618 [Eh]
	 Singles Energy            =      -0.0000000000000000 [Eh]
	 Same-Spin Energy          =      -0.2880777107544336 [Eh]
	 Opposite-Spin Energy      =      -0.9011381897384532 [Eh]
	 Correlation Energy        =      -1.1892159004928868 [Eh]
	 Total Energy              =    -265.1099092513558730 [Eh]

	 ================> DF-SCS-MP2 Energies <==================
	-----------------------------------------------------------
	 SCS Same-Spin Scale       =       0.3333333333333333 [-]
	 SCS Opposite-Spin Scale   =       1.2000000000000000 [-]
	 SCS Same-Spin Energy      =      -0.0960259035848112 [Eh]
	 SCS Opposite-Spin Energy  =      -1.0813658276861438 [Eh]
	 SCS Correlation Energy    =      -1.1773917312709550 [Eh]
	 SCS Total Energy          =    -265.0980850821339345 [Eh]
	-----------------------------------------------------------

  Dipole Moment: [D]
     X:    -2.8053      Y:    -3.2069      Z:     0.2197     Total:     4.2664

*** Psi4 exiting successfully. Buy a developer a beer!
