                               Psi4 1.3.2 release

  ==> Input File <==

--------------------------------------------------------------------------
#psi4
#
memory 32 gb

molecule  {
0 1
  N        0.1712930    -1.0406060    -0.0000250
  N        1.5395640     0.7140220    -0.0006150
  C       -0.6486520     0.0688480    -0.0000100
  C       -2.1370900    -0.0166370     0.0000170
  C        0.2282585     1.1348643    -0.0497910
  C        1.4683060    -0.6083830     0.0003860
  H       -0.1378750    -2.0050800    -0.0000100
  H       -2.5173940    -0.5355380     0.8864280
  H       -2.5554930     0.9924890    -0.0004510
  H       -2.5174040    -0.5363680    -0.8859050
  H       -0.0216830     2.1883360     0.0002760
  H        2.3089220    -1.2898710     0.0005270
units angstrom
no_reorient  #important for SAPT in psi4, default
symmetry c1  #important for SAPT in psi4, default
}

set PROPERTIES_ORIGIN ["COM"]
properties('MP2/aug-cc-pvtz', properties = ['dipole'])
--------------------------------------------------------------------------

    Molecular point group: c1
  Charge       = 0
  Multiplicity = 1
  Basis Set: AUG-CC-PVTZ
    Blend: AUG-CC-PVTZ
  Basis Set: (AUG-CC-PVTZ AUX)
    Blend: AUG-CC-PVTZ-JKFIT

    Orbital Energies [Eh]
    ---------------------

    Doubly Occupied:

       1A    -15.618637     2A    -15.543322     3A    -11.293904
       4A    -11.265662     5A    -11.241271     6A    -11.236285
       7A     -1.334079     8A     -1.161787     9A     -1.043789
      10A     -0.937638    11A     -0.821443    12A     -0.789308
      13A     -0.720828    14A     -0.617985    15A     -0.614746
      16A     -0.570389    17A     -0.561959    18A     -0.556844
      19A     -0.549847    20A     -0.431981    21A     -0.395363
      22A     -0.306715

  @DF-RHF Final Energy:  -263.94819691260176

   => Energetics <=

    Nuclear Repulsion Energy =            223.7431929911751354
    One-Electron Energy =                -800.1552137994946179
    Two-Electron Energy =                 312.4638238957177805
    Total Energy =                       -263.9481969126017589
  Basis Set: (AUG-CC-PVTZ AUX)
    Blend: AUG-CC-PVTZ-RI
    Molecular point group: c1

    Geometry (in Angstrom), charge = 0, multiplicity = 1:

       Center              X                  Y                   Z               Mass
    ------------   -----------------  -----------------  -----------------  -----------------
         N            0.105437780986    -1.054935927406     0.007297894709    14.003074004430
         N            1.473708780986     0.699692072594     0.006707894709    14.003074004430
         C           -0.714507219014     0.054518072594     0.007312894709    12.000000000000
         C           -2.202945219014    -0.030966927406     0.007339894709    12.000000000000
         C            0.162403280986     1.120534372594    -0.042468105291    12.000000000000
         C            1.402450780986    -0.622712927406     0.007708894709    12.000000000000
         H           -0.203730219014    -2.019409927406     0.007312894709     1.007825032230
         H           -2.583249219014    -0.549867927406     0.893750894709     1.007825032230
         H           -2.621348219014     0.978159072594     0.006871894709     1.007825032230
         H           -2.583259219014    -0.550697927406    -0.878582105291     1.007825032230
         H           -0.087538219014     2.174006072594     0.007598894709     1.007825032230
         H            2.243066780986    -1.304200927406     0.007849894709     1.007825032230

  Basis Set: AUG-CC-PVTZ
    Blend: AUG-CC-PVTZ
  Basis Set: (AUG-CC-PVTZ AUX)
    Blend: AUG-CC-PVTZ-JKFIT
	 Reference Energy          =    -263.9481969126017589 [Eh]
	 Singles Energy            =      -0.0000000000000000 [Eh]
	 Same-Spin Energy          =      -0.2868182609755161 [Eh]
	 Opposite-Spin Energy      =      -0.8970699577831465 [Eh]
	 Correlation Energy        =      -1.1838882187586626 [Eh]
	 Total Energy              =    -265.1320851313604408 [Eh]

	 ================> DF-SCS-MP2 Energies <==================
	-----------------------------------------------------------
	 SCS Same-Spin Scale       =       0.3333333333333333 [-]
	 SCS Opposite-Spin Scale   =       1.2000000000000000 [-]
	 SCS Same-Spin Energy      =      -0.0956060869918387 [Eh]
	 SCS Opposite-Spin Energy  =      -1.0764839493397758 [Eh]
	 SCS Correlation Energy    =      -1.1720900363316145 [Eh]
	 SCS Total Energy          =    -265.1202869489333693 [Eh]
	-----------------------------------------------------------

  Dipole Moment: [D]
     X:    -2.8036      Y:    -2.9973      Z:     0.0349     Total:     4.1043

*** Psi4 exiting successfully. Buy a developer a beer!
