                               Psi4 1.3.2 release

  ==> Input File <==

--------------------------------------------------------------------------
#psi4
#
memory 32 gb

molecule  {
0 1
  N        0.1712930    -1.0406060    -0.0000250
  N        1.5395640     0.7140220    -0.0006150
  C       -0.6486520     0.0688480    -0.0000100
  C       -2.1370900    -0.0166370     0.0000170
  C        0.2282570     1.1348590     0.0002090
  C        1.4683060    -0.6083830     0.0003860
  H       -0.1378648    -2.0050775    -0.0500100
  H       -2.5173940    -0.5355380     0.8864280
  H       -2.5554930     0.9924890    -0.0004510
  H       -2.5174040    -0.5363680    -0.8859050
  H       -0.0216830     2.1883360     0.0002760
  H        2.3089220    -1.2898710     0.0005270
units angstrom
no_reorient  #important for SAPT in psi4, default
symmetry c1  #important for SAPT in psi4, default
}

set PROPERTIES_ORIGIN ["COM"]
properties('MP2/aug-cc-pvtz', properties = ['dipole'])
--------------------------------------------------------------------------

    Molecular point group: c1
  Charge       = 0
  Multiplicity = 1
  Basis Set: AUG-CC-PVTZ
    Blend: AUG-CC-PVTZ
  Basis Set: (AUG-CC-PVTZ AUX)
    Blend: AUG-CC-PVTZ-JKFIT

    Orbital Energies [Eh]
    ---------------------

    Doubly Occupied:

       1A    -15.618599     2A    -15.543267     3A    -11.293896
       4A    -11.265293     5A    -11.241189     6A    -11.236126
       7A     -1.334081     8A     -1.161809     9A     -1.043747
      10A     -0.937667    11A     -0.821273    12A     -0.789370
      13A     -0.720809    14A     -0.618427    15A     -0.614255
      16A     -0.570418    17A     -0.561944    18A     -0.557420
      19A     -0.549753    20A     -0.431993    21A     -0.395533
      22A     -0.306732

  @DF-RHF Final Energy:  -263.94885987090157

   => Energetics <=

    Nuclear Repulsion Energy =            223.7668870511574539
    One-Electron Energy =                -800.2042933436256362
    Two-Electron Energy =                 312.4885464215665820
    Total Energy =                       -263.9488598709015719
  Basis Set: (AUG-CC-PVTZ AUX)
    Blend: AUG-CC-PVTZ-RI
    Molecular point group: c1

    Geometry (in Angstrom), charge = 0, multiplicity = 1:

       Center              X                  Y                   Z               Mass
    ------------   -----------------  -----------------  -----------------  -----------------
         N            0.105437875074    -1.054935183005     0.000599686349    14.003074004430
         N            1.473708875074     0.699692816995     0.000009686349    14.003074004430
         C           -0.714507124926     0.054518816995     0.000614686349    12.000000000000
         C           -2.202945124926    -0.030966183005     0.000641686349    12.000000000000
         C            0.162401875074     1.120529816995     0.000833686349    12.000000000000
         C            1.402450875074    -0.622712183005     0.001010686349    12.000000000000
         H           -0.203719924926    -2.019406683005    -0.049385313651     1.007825032230
         H           -2.583249124926    -0.549867183005     0.887052686349     1.007825032230
         H           -2.621348124926     0.978159816995     0.000173686349     1.007825032230
         H           -2.583259124926    -0.550697183005    -0.885280313651     1.007825032230
         H           -0.087538124926     2.174006816995     0.000900686349     1.007825032230
         H            2.243066875074    -1.304200183005     0.001151686349     1.007825032230

  Basis Set: AUG-CC-PVTZ
    Blend: AUG-CC-PVTZ
  Basis Set: (AUG-CC-PVTZ AUX)
    Blend: AUG-CC-PVTZ-JKFIT
	 Reference Energy          =    -263.9488598709015719 [Eh]
	 Singles Energy            =      -0.0000000000000000 [Eh]
	 Same-Spin Energy          =      -0.2867864369118098 [Eh]
	 Opposite-Spin Energy      =      -0.8969898345066947 [Eh]
	 Correlation Energy        =      -1.1837762714185045 [Eh]
	 Total Energy              =    -265.1326361423200524 [Eh]

	 ================> DF-SCS-MP2 Energies <==================
	-----------------------------------------------------------
	 SCS Same-Spin Scale       =       0.3333333333333333 [-]
	 SCS Opposite-Spin Scale   =       1.2000000000000000 [-]
	 SCS Same-Spin Energy      =      -0.0955954789706033 [Eh]
	 SCS Opposite-Spin Energy  =      -1.0763878014080335 [Eh]
	 SCS Correlation Energy    =      -1.1719832803786367 [Eh]
	 SCS Total Energy          =    -265.1208431512802122 [Eh]
	-----------------------------------------------------------

  Dipole Moment: [D]
     X:    -2.8025      Y:    -2.9891      Z:    -0.0708     Total:     4.0980

*** Psi4 exiting successfully. Buy a developer a beer!
