                               Psi4 1.3.2 release

  ==> Input File <==

--------------------------------------------------------------------------
#psi4
#
memory 32 gb

molecule  {
0 1
  N        0.1712930    -1.0406060    -0.0000250
  N        1.5395640     0.7140220    -0.0006150
  C       -0.6486520     0.0688480    -0.0000100
  C       -2.1370900    -0.0166370     0.0000170
  C        0.2282570     1.1348590     0.0002090
  C        1.4683060    -0.6083830     0.0003860
  H       -0.1378750    -2.0050800    -0.0000100
  H       -2.5173940    -0.5355380     0.8864280
  H       -2.5554930     0.9924890    -0.0004510
  H       -2.5174040    -0.5363680    -0.8859050
  H       -0.0217696     2.1883954    -0.2497240
  H        2.3089220    -1.2898710     0.0005270
units angstrom
no_reorient  #important for SAPT in psi4, default
symmetry c1  #important for SAPT in psi4, default
}

set PROPERTIES_ORIGIN ["COM"]
properties('MP2/aug-cc-pvtz', properties = ['dipole'])
--------------------------------------------------------------------------

    Molecular point group: c1
  Charge       = 0
  Multiplicity = 1
  Basis Set: AUG-CC-PVTZ
    Blend: AUG-CC-PVTZ
  Basis Set: (AUG-CC-PVTZ AUX)
    Blend: AUG-CC-PVTZ-JKFIT

    Orbital Energies [Eh]
    ---------------------

    Doubly Occupied:

       1A    -15.619135     2A    -15.543494     3A    -11.294293
       4A    -11.266314     5A    -11.241516     6A    -11.238425
       7A     -1.334660     8A     -1.162214     9A     -1.043941
      10A     -0.937523    11A     -0.821912    12A     -0.786104
      13A     -0.721040    14A     -0.618535    15A     -0.614277
      16A     -0.570939    17A     -0.560838    18A     -0.552117
      19A     -0.550029    20A     -0.432257    21A     -0.395191
      22A     -0.306866

  @DF-RHF Final Energy:  -263.94501989748926

   => Energetics <=

    Nuclear Repulsion Energy =            223.6649633298075059
    One-Electron Energy =                -799.9967212829070604
    Two-Electron Energy =                 312.3867380556102944
    Total Energy =                       -263.9450198974892601
  Basis Set: (AUG-CC-PVTZ AUX)
    Blend: AUG-CC-PVTZ-RI
    Molecular point group: c1

    Geometry (in Angstrom), charge = 0, multiplicity = 1:

       Center              X                  Y                   Z               Mass
    ------------   -----------------  -----------------  -----------------  -----------------
         N            0.105439064029    -1.054935881885     0.003056205491    14.003074004430
         N            1.473710064029     0.699692118115     0.002466205491    14.003074004430
         C           -0.714505935971     0.054518118115     0.003071205491    12.000000000000
         C           -2.202943935971    -0.030966881885     0.003098205491    12.000000000000
         C            0.162403064029     1.120529118115     0.003290205491    12.000000000000
         C            1.402452064029    -0.622712881885     0.003467205491    12.000000000000
         H           -0.203728935971    -2.019409881885     0.003071205491     1.007825032230
         H           -2.583247935971    -0.549867881885     0.889509205491     1.007825032230
         H           -2.621346935971     0.978159118115     0.002630205491     1.007825032230
         H           -2.583257935971    -0.550697881885    -0.882823794509     1.007825032230
         H           -0.087623535971     2.174065518115    -0.246642794509     1.007825032230
         H            2.243068064029    -1.304200881885     0.003608205491     1.007825032230

  Basis Set: AUG-CC-PVTZ
    Blend: AUG-CC-PVTZ
  Basis Set: (AUG-CC-PVTZ AUX)
    Blend: AUG-CC-PVTZ-JKFIT
	 Reference Energy          =    -263.9450198974892601 [Eh]
	 Singles Energy            =      -0.0000000000000000 [Eh]
	 Same-Spin Energy          =      -0.2869767444918902 [Eh]
	 Opposite-Spin Energy      =      -0.8974469785511817 [Eh]
	 Correlation Energy        =      -1.1844237230430719 [Eh]
	 Total Energy              =    -265.1294436205323564 [Eh]

	 ================> DF-SCS-MP2 Energies <==================
	-----------------------------------------------------------
	 SCS Same-Spin Scale       =       0.3333333333333333 [-]
	 SCS Opposite-Spin Scale   =       1.2000000000000000 [-]
	 SCS Same-Spin Energy      =      -0.0956589148306301 [Eh]
	 SCS Opposite-Spin Energy  =      -1.0769363742614180 [Eh]
	 SCS Correlation Energy    =      -1.1725952890920481 [Eh]
	 SCS Total Energy          =    -265.1176151865813040 [Eh]
	-----------------------------------------------------------

  Dipole Moment: [D]
     X:    -2.7916      Y:    -3.0440      Z:    -0.1848     Total:     4.1344

*** Psi4 exiting successfully. Buy a developer a beer!
