                               Psi4 1.3.2 release

  ==> Input File <==

--------------------------------------------------------------------------
#psi4
#
memory 32 gb

molecule  {
0 1
  N        0.1712930    -1.0406060    -0.0000250
  N        1.5395640     0.7140220    -0.0006150
  C       -0.6486520     0.0688480    -0.0000100
  C       -2.1370900    -0.0166370     0.0000170
  C        0.2282643     1.1348857    -0.2497910
  C        1.4683060    -0.6083830     0.0003860
  H       -0.1378750    -2.0050800    -0.0000100
  H       -2.5173940    -0.5355380     0.8864280
  H       -2.5554930     0.9924890    -0.0004510
  H       -2.5174040    -0.5363680    -0.8859050
  H       -0.0216830     2.1883360     0.0002760
  H        2.3089220    -1.2898710     0.0005270
units angstrom
no_reorient  #important for SAPT in psi4, default
symmetry c1  #important for SAPT in psi4, default
}

set PROPERTIES_ORIGIN ["COM"]
properties('MP2/aug-cc-pvtz', properties = ['dipole'])
--------------------------------------------------------------------------

    Molecular point group: c1
  Charge       = 0
  Multiplicity = 1
  Basis Set: AUG-CC-PVTZ
    Blend: AUG-CC-PVTZ
  Basis Set: (AUG-CC-PVTZ AUX)
    Blend: AUG-CC-PVTZ-JKFIT

    Orbital Energies [Eh]
    ---------------------

    Doubly Occupied:

       1A    -15.620757     2A    -15.545169     3A    -11.294311
       4A    -11.274150     5A    -11.243064     6A    -11.240470
       7A     -1.333197     8A     -1.158971     9A     -1.044234
      10A     -0.936884    11A     -0.818243    12A     -0.787087
      13A     -0.719982    14A     -0.619748    15A     -0.612629
      16A     -0.569615    17A     -0.562787    18A     -0.550779
      19A     -0.541866    20A     -0.432103    21A     -0.391893
      22A     -0.306774

  @DF-RHF Final Energy:  -263.92938183573830

   => Energetics <=

    Nuclear Repulsion Energy =            223.0443760091631589
    One-Electron Energy =                -798.7380918904519831
    Two-Electron Energy =                 311.7643340455505836
    Total Energy =                       -263.9293818357382975
  Basis Set: (AUG-CC-PVTZ AUX)
    Blend: AUG-CC-PVTZ-RI
    Molecular point group: c1

    Geometry (in Angstrom), charge = 0, multiplicity = 1:

       Center              X                  Y                   Z               Mass
    ------------   -----------------  -----------------  -----------------  -----------------
         N            0.105436932755    -1.054939057087     0.036547247294    14.003074004430
         N            1.473707932755     0.699688942913     0.035957247294    14.003074004430
         C           -0.714508067245     0.054514942913     0.036562247294    12.000000000000
         C           -2.202946067245    -0.030970057087     0.036589247294    12.000000000000
         C            0.162408232755     1.120552642913    -0.213218752706    12.000000000000
         C            1.402449932755    -0.622716057087     0.036958247294    12.000000000000
         H           -0.203731067245    -2.019413057087     0.036562247294     1.007825032230
         H           -2.583250067245    -0.549871057087     0.923000247294     1.007825032230
         H           -2.621349067245     0.978155942913     0.036121247294     1.007825032230
         H           -2.583260067245    -0.550701057087    -0.849332752706     1.007825032230
         H           -0.087539067245     2.174002942913     0.036848247294     1.007825032230
         H            2.243065932755    -1.304204057087     0.037099247294     1.007825032230

  Basis Set: AUG-CC-PVTZ
    Blend: AUG-CC-PVTZ
  Basis Set: (AUG-CC-PVTZ AUX)
    Blend: AUG-CC-PVTZ-JKFIT
	 Reference Energy          =    -263.9293818357382975 [Eh]
	 Singles Energy            =      -0.0000000000000000 [Eh]
	 Same-Spin Energy          =      -0.2877051402454385 [Eh]
	 Opposite-Spin Energy      =      -0.8998588030491919 [Eh]
	 Correlation Energy        =      -1.1875639432946303 [Eh]
	 Total Energy              =    -265.1169457790329034 [Eh]

	 ================> DF-SCS-MP2 Energies <==================
	-----------------------------------------------------------
	 SCS Same-Spin Scale       =       0.3333333333333333 [-]
	 SCS Opposite-Spin Scale   =       1.2000000000000000 [-]
	 SCS Same-Spin Energy      =      -0.0959017134151462 [Eh]
	 SCS Opposite-Spin Energy  =      -1.0798305636590302 [Eh]
	 SCS Correlation Energy    =      -1.1757322770741763 [Eh]
	 SCS Total Energy          =    -265.1051141128124868 [Eh]
	-----------------------------------------------------------

  Dipole Moment: [D]
     X:    -2.8058      Y:    -3.1437      Z:     0.1797     Total:     4.2176

*** Psi4 exiting successfully. Buy a developer a beer!
