                               Psi4 1.3.2 release

  ==> Input File <==

--------------------------------------------------------------------------
#psi4
#
memory 32 gb

molecule  {
0 1
  N        0.1712930    -1.0406060    -0.0000250
  N        1.5395640     0.7140220    -0.0006150
  C       -0.6486520     0.0688480    -0.0000100
  C       -2.1370900    -0.0166370     0.0000170
  C        0.2282570     1.1348590     0.0002090
  C        1.4683060    -0.6083830     0.0003860
  H       -0.1378750    -2.0050800    -0.0000100
  H       -2.5173940    -0.5355380     0.8864280
  H       -2.5554930     0.9924890    -0.0004510
  H       -2.5174040    -0.5363680    -0.8859050
  H       -0.0216830     2.1883360     0.0002760
  H        2.3089622    -1.2899696    -0.1994730
units angstrom
no_reorient  #important for SAPT in psi4, default
symmetry c1  #important for SAPT in psi4, default
}

set PROPERTIES_ORIGIN ["COM"]
properties('MP2/aug-cc-pvtz', properties = ['dipole'])
--------------------------------------------------------------------------

    Molecular point group: c1
  Charge       = 0
  Multiplicity = 1
  Basis Set: AUG-CC-PVTZ
    Blend: AUG-CC-PVTZ
  Basis Set: (AUG-CC-PVTZ AUX)
    Blend: AUG-CC-PVTZ-JKFIT

    Orbital Energies [Eh]
    ---------------------

    Doubly Occupied:

       1A    -15.618591     2A    -15.543759     3A    -11.295121
       4A    -11.265896     5A    -11.241478     6A    -11.236488
       7A     -1.334291     8A     -1.162164     9A     -1.043801
      10A     -0.937232    11A     -0.821031    12A     -0.788844
      13A     -0.718502    14A     -0.619564    15A     -0.612587
      16A     -0.570620    17A     -0.563265    18A     -0.555521
      19A     -0.548287    20A     -0.432306    21A     -0.395635
      22A     -0.306885

  @DF-RHF Final Energy:  -263.94656696152339

   => Energetics <=

    Nuclear Repulsion Energy =            223.7033398232624677
    One-Electron Energy =                -800.0760784080847543
    Two-Electron Energy =                 312.4261716232988988
    Total Energy =                       -263.9465669615233878
  Basis Set: (AUG-CC-PVTZ AUX)
    Blend: AUG-CC-PVTZ-RI
    Molecular point group: c1

    Geometry (in Angstrom), charge = 0, multiplicity = 1:

       Center              X                  Y                   Z               Mass
    ------------   -----------------  -----------------  -----------------  -----------------
         N            0.105437506596    -1.054933941235     0.002442075706    14.003074004430
         N            1.473708506596     0.699694058765     0.001852075706    14.003074004430
         C           -0.714507493404     0.054520058765     0.002457075706    12.000000000000
         C           -2.202945493404    -0.030964941235     0.002484075706    12.000000000000
         C            0.162401506596     1.120531058765     0.002676075706    12.000000000000
         C            1.402450506596    -0.622710941235     0.002853075706    12.000000000000
         H           -0.203730493404    -2.019407941235     0.002457075706     1.007825032230
         H           -2.583249493404    -0.549865941235     0.888895075706     1.007825032230
         H           -2.621348493404     0.978161058765     0.002016075706     1.007825032230
         H           -2.583259493404    -0.550695941235    -0.883437924294     1.007825032230
         H           -0.087538493404     2.174008058765     0.002743075706     1.007825032230
         H            2.243106706596    -1.304297541235    -0.197005924294     1.007825032230

  Basis Set: AUG-CC-PVTZ
    Blend: AUG-CC-PVTZ
  Basis Set: (AUG-CC-PVTZ AUX)
    Blend: AUG-CC-PVTZ-JKFIT
	 Reference Energy          =    -263.9465669615233878 [Eh]
	 Singles Energy            =      -0.0000000000000000 [Eh]
	 Same-Spin Energy          =      -0.2869754243705038 [Eh]
	 Opposite-Spin Energy      =      -0.8973395701260677 [Eh]
	 Correlation Energy        =      -1.1843149944965714 [Eh]
	 Total Energy              =    -265.1308819560199481 [Eh]

	 ================> DF-SCS-MP2 Energies <==================
	-----------------------------------------------------------
	 SCS Same-Spin Scale       =       0.3333333333333333 [-]
	 SCS Opposite-Spin Scale   =       1.2000000000000000 [-]
	 SCS Same-Spin Energy      =      -0.0956584747901679 [Eh]
	 SCS Opposite-Spin Energy  =      -1.0768074841512811 [Eh]
	 SCS Correlation Energy    =      -1.1724659589414490 [Eh]
	 SCS Total Energy          =    -265.1190329204648606 [Eh]
	-----------------------------------------------------------

  Dipole Moment: [D]
     X:    -2.8376      Y:    -2.9602      Z:    -0.1545     Total:     4.1035

*** Psi4 exiting successfully. Buy a developer a beer!
