                               Psi4 1.3.2 release

  ==> Input File <==

--------------------------------------------------------------------------
#psi4
#
memory 32 gb

molecule  {
0 1
  N        0.1712930    -1.0406060    -0.0000250
  N        1.5395640     0.7140220    -0.0006150
  C       -0.6486520     0.0688480    -0.0000100
  C       -2.1370900    -0.0166370     0.0000170
  C        0.2282570     1.1348590     0.0002090
  C        1.4683060    -0.6083830     0.0003860
  H       -0.1378750    -2.0050800    -0.0000100
  H       -2.5173940    -0.5355380     0.8864280
  H       -2.5554930     0.9924890    -0.0004510
  H       -2.5174040    -0.5363680    -0.8859050
  H       -0.0216830     2.1883360     0.0002760
  H        2.3089320    -1.2898956    -0.0494730
units angstrom
no_reorient  #important for SAPT in psi4, default
symmetry c1  #important for SAPT in psi4, default
}

set PROPERTIES_ORIGIN ["COM"]
properties('MP2/aug-cc-pvtz', properties = ['dipole'])
--------------------------------------------------------------------------

    Molecular point group: c1
  Charge       = 0
  Multiplicity = 1
  Basis Set: AUG-CC-PVTZ
    Blend: AUG-CC-PVTZ
  Basis Set: (AUG-CC-PVTZ AUX)
    Blend: AUG-CC-PVTZ-JKFIT

    Orbital Energies [Eh]
    ---------------------

    Doubly Occupied:

       1A    -15.618553     2A    -15.543273     3A    -11.293970
       4A    -11.265342     5A    -11.241215     6A    -11.236130
       7A     -1.334133     8A     -1.161921     9A     -1.043775
      10A     -0.937638    11A     -0.821551    12A     -0.789377
      13A     -0.720714    14A     -0.618002    15A     -0.614703
      16A     -0.570439    17A     -0.562049    18A     -0.557288
      19A     -0.549733    20A     -0.431998    21A     -0.395519
      22A     -0.306733

  @DF-RHF Final Energy:  -263.94882266728615

   => Energetics <=

    Nuclear Repulsion Energy =            223.7682157793961721
    One-Electron Energy =                -800.2059629480290823
    Two-Electron Energy =                 312.4889245013467303
    Total Energy =                       -263.9488226672861515
  Basis Set: (AUG-CC-PVTZ AUX)
    Blend: AUG-CC-PVTZ-RI
    Molecular point group: c1

    Geometry (in Angstrom), charge = 0, multiplicity = 1:

       Center              X                  Y                   Z               Mass
    ------------   -----------------  -----------------  -----------------  -----------------
         N            0.105437877530    -1.054934850147     0.000599686349    14.003074004430
         N            1.473708877530     0.699693149853     0.000009686349    14.003074004430
         C           -0.714507122470     0.054519149853     0.000614686349    12.000000000000
         C           -2.202945122470    -0.030965850147     0.000641686349    12.000000000000
         C            0.162401877530     1.120530149853     0.000833686349    12.000000000000
         C            1.402450877530    -0.622711850147     0.001010686349    12.000000000000
         H           -0.203730122470    -2.019408850147     0.000614686349     1.007825032230
         H           -2.583249122470    -0.549866850147     0.887052686349     1.007825032230
         H           -2.621348122470     0.978160149853     0.000173686349     1.007825032230
         H           -2.583259122470    -0.550696850147    -0.885280313651     1.007825032230
         H           -0.087538122470     2.174007149853     0.000900686349     1.007825032230
         H            2.243076877530    -1.304224450147    -0.048848313651     1.007825032230

  Basis Set: AUG-CC-PVTZ
    Blend: AUG-CC-PVTZ
  Basis Set: (AUG-CC-PVTZ AUX)
    Blend: AUG-CC-PVTZ-JKFIT
	 Reference Energy          =    -263.9488226672861515 [Eh]
	 Singles Energy            =      -0.0000000000000000 [Eh]
	 Same-Spin Energy          =      -0.2867923552824067 [Eh]
	 Opposite-Spin Energy      =      -0.8969933849274212 [Eh]
	 Correlation Energy        =      -1.1837857402098280 [Eh]
	 Total Energy              =    -265.1326084074959795 [Eh]

	 ================> DF-SCS-MP2 Energies <==================
	-----------------------------------------------------------
	 SCS Same-Spin Scale       =       0.3333333333333333 [-]
	 SCS Opposite-Spin Scale   =       1.2000000000000000 [-]
	 SCS Same-Spin Energy      =      -0.0955974517608022 [Eh]
	 SCS Opposite-Spin Energy  =      -1.0763920619129055 [Eh]
	 SCS Correlation Energy    =      -1.1719895136737077 [Eh]
	 SCS Total Energy          =    -265.1208121809598310 [Eh]
	-----------------------------------------------------------

  Dipole Moment: [D]
     X:    -2.8056      Y:    -2.9889      Z:    -0.0381     Total:     4.0996

*** Psi4 exiting successfully. Buy a developer a beer!
