                               Psi4 1.3.2 release

  ==> Input File <==

--------------------------------------------------------------------------
#psi4
#
memory 32 gb

molecule  {
0 1
  N        0.1712930    -1.0406060    -0.0000250
  N        1.5395640     0.7140220    -0.0006150
  C       -0.6486520     0.0688480    -0.0000100
  C       -2.1370900    -0.0166370     0.0000170
  C        0.2282570     1.1348590     0.0002090
  C        1.4683060    -0.6083830     0.0003860
  H       -0.1378750    -2.0050800    -0.0000100
  H       -2.5173940    -0.5355380     0.8864280
  H       -2.5554930     0.9924890    -0.0004510
  H       -2.5174040    -0.5363680    -0.8859050
  H       -0.0217350     2.1883716    -0.1497240
  H        2.3089220    -1.2898710     0.0005270
units angstrom
no_reorient  #important for SAPT in psi4, default
symmetry c1  #important for SAPT in psi4, default
}

set PROPERTIES_ORIGIN ["COM"]
properties('MP2/aug-cc-pvtz', properties = ['dipole'])
--------------------------------------------------------------------------

    Molecular point group: c1
  Charge       = 0
  Multiplicity = 1
  Basis Set: AUG-CC-PVTZ
    Blend: AUG-CC-PVTZ
  Basis Set: (AUG-CC-PVTZ AUX)
    Blend: AUG-CC-PVTZ-JKFIT

    Orbital Energies [Eh]
    ---------------------

    Doubly Occupied:

       1A    -15.618763     2A    -15.543329     3A    -11.294036
       4A    -11.265672     5A    -11.241315     6A    -11.236951
       7A     -1.334317     8A     -1.162015     9A     -1.043832
      10A     -0.937607    11A     -0.821702    12A     -0.788168
      13A     -0.720929    14A     -0.618122    15A     -0.614639
      16A     -0.570612    17A     -0.561228    18A     -0.555816
      19A     -0.549901    20A     -0.432079    21A     -0.395396
      22A     -0.306772

  @DF-RHF Final Energy:  -263.94762640637475

   => Energetics <=

    Nuclear Repulsion Energy =            223.7331092728254589
    One-Electron Energy =                -800.1350674305973598
    Two-Electron Energy =                 312.4543317513971488
    Total Energy =                       -263.9476264063747522
  Basis Set: (AUG-CC-PVTZ AUX)
    Blend: AUG-CC-PVTZ-RI
    Molecular point group: c1

    Geometry (in Angstrom), charge = 0, multiplicity = 1:

       Center              X                  Y                   Z               Mass
    ------------   -----------------  -----------------  -----------------  -----------------
         N            0.105438639051    -1.054935589559     0.001827945920    14.003074004430
         N            1.473709639051     0.699692410441     0.001237945920    14.003074004430
         C           -0.714506360949     0.054518410441     0.001842945920    12.000000000000
         C           -2.202944360949    -0.030966589559     0.001869945920    12.000000000000
         C            0.162402639051     1.120529410441     0.002061945920    12.000000000000
         C            1.402451639051    -0.622712589559     0.002238945920    12.000000000000
         H           -0.203729360949    -2.019409589559     0.001842945920     1.007825032230
         H           -2.583248360949    -0.549867589559     0.888280945920     1.007825032230
         H           -2.621347360949     0.978159410441     0.001401945920     1.007825032230
         H           -2.583258360949    -0.550697589559    -0.884052054080     1.007825032230
         H           -0.087589360949     2.174042010441    -0.147871054080     1.007825032230
         H            2.243067639051    -1.304200589559     0.002379945920     1.007825032230

  Basis Set: AUG-CC-PVTZ
    Blend: AUG-CC-PVTZ
  Basis Set: (AUG-CC-PVTZ AUX)
    Blend: AUG-CC-PVTZ-JKFIT
	 Reference Energy          =    -263.9476264063747522 [Eh]
	 Singles Energy            =      -0.0000000000000000 [Eh]
	 Same-Spin Energy          =      -0.2868519787621281 [Eh]
	 Opposite-Spin Energy      =      -0.8971362750512051 [Eh]
	 Correlation Energy        =      -1.1839882538133333 [Eh]
	 Total Energy              =    -265.1316146601880632 [Eh]

	 ================> DF-SCS-MP2 Energies <==================
	-----------------------------------------------------------
	 SCS Same-Spin Scale       =       0.3333333333333333 [-]
	 SCS Opposite-Spin Scale   =       1.2000000000000000 [-]
	 SCS Same-Spin Energy      =      -0.0956173262540427 [Eh]
	 SCS Opposite-Spin Energy  =      -1.0765635300614460 [Eh]
	 SCS Correlation Energy    =      -1.1721808563154887 [Eh]
	 SCS Total Energy          =    -265.1198072626902444 [Eh]
	-----------------------------------------------------------

  Dipole Moment: [D]
     X:    -2.7992      Y:    -3.0104      Z:    -0.1117     Total:     4.1122

*** Psi4 exiting successfully. Buy a developer a beer!
