                               Psi4 1.3.2 release

  ==> Input File <==

--------------------------------------------------------------------------
#psi4
#
memory 32 gb

molecule  {
0 1
  N        0.1712930    -1.0406060    -0.0000250
  N        1.5395640     0.7140220    -0.0006150
  C       -0.6486520     0.0688480    -0.0000100
  C       -2.1370900    -0.0166370     0.0000170
  C        0.2282599     1.1348697    -0.0997910
  C        1.4683060    -0.6083830     0.0003860
  H       -0.1378750    -2.0050800    -0.0000100
  H       -2.5173940    -0.5355380     0.8864280
  H       -2.5554930     0.9924890    -0.0004510
  H       -2.5174040    -0.5363680    -0.8859050
  H       -0.0216830     2.1883360     0.0002760
  H        2.3089220    -1.2898710     0.0005270
units angstrom
no_reorient  #important for SAPT in psi4, default
symmetry c1  #important for SAPT in psi4, default
}

set PROPERTIES_ORIGIN ["COM"]
properties('MP2/aug-cc-pvtz', properties = ['dipole'])
--------------------------------------------------------------------------

    Molecular point group: c1
  Charge       = 0
  Multiplicity = 1
  Basis Set: AUG-CC-PVTZ
    Blend: AUG-CC-PVTZ
  Basis Set: (AUG-CC-PVTZ AUX)
    Blend: AUG-CC-PVTZ-JKFIT

    Orbital Energies [Eh]
    ---------------------

    Doubly Occupied:

       1A    -15.618896     2A    -15.543572     3A    -11.293944
       4A    -11.266741     5A    -11.241494     6A    -11.236826
       7A     -1.333951     8A     -1.161430     9A     -1.043837
      10A     -0.937550    11A     -0.821003    12A     -0.788994
      13A     -0.720709    14A     -0.618377    15A     -0.614309
      16A     -0.570280    17A     -0.562063    18A     -0.554953
      19A     -0.549966    20A     -0.432008    21A     -0.394908
      22A     -0.306699

  @DF-RHF Final Energy:  -263.94586631362029

   => Energetics <=

    Nuclear Repulsion Energy =            223.6543781081175837
    One-Electron Energy =                -799.9754729199356689
    Two-Electron Energy =                 312.3752284981977709
    Total Energy =                       -263.9458663136202858
  Basis Set: (AUG-CC-PVTZ AUX)
    Blend: AUG-CC-PVTZ-RI
    Molecular point group: c1

    Geometry (in Angstrom), charge = 0, multiplicity = 1:

       Center              X                  Y                   Z               Mass
    ------------   -----------------  -----------------  -----------------  -----------------
         N            0.105437576241    -1.054936717139     0.014610232856    14.003074004430
         N            1.473708576241     0.699691282861     0.014020232856    14.003074004430
         C           -0.714507423759     0.054517282861     0.014625232856    12.000000000000
         C           -2.202945423759    -0.030967717139     0.014652232856    12.000000000000
         C            0.162404476241     1.120538982861    -0.085155767144    12.000000000000
         C            1.402450576241    -0.622713717139     0.015021232856    12.000000000000
         H           -0.203730423759    -2.019410717139     0.014625232856     1.007825032230
         H           -2.583249423759    -0.549868717139     0.901063232856     1.007825032230
         H           -2.621348423759     0.978158282861     0.014184232856     1.007825032230
         H           -2.583259423759    -0.550698717139    -0.871269767144     1.007825032230
         H           -0.087538423759     2.174005282861     0.014911232856     1.007825032230
         H            2.243066576241    -1.304201717139     0.015162232856     1.007825032230

  Basis Set: AUG-CC-PVTZ
    Blend: AUG-CC-PVTZ
  Basis Set: (AUG-CC-PVTZ AUX)
    Blend: AUG-CC-PVTZ-JKFIT
	 Reference Energy          =    -263.9458663136202858 [Eh]
	 Singles Energy            =      -0.0000000000000000 [Eh]
	 Same-Spin Energy          =      -0.2869336922120155 [Eh]
	 Opposite-Spin Energy      =      -0.8973905409838925 [Eh]
	 Correlation Energy        =      -1.1843242331959081 [Eh]
	 Total Energy              =    -265.1301905468162090 [Eh]

	 ================> DF-SCS-MP2 Energies <==================
	-----------------------------------------------------------
	 SCS Same-Spin Scale       =       0.3333333333333333 [-]
	 SCS Opposite-Spin Scale   =       1.2000000000000000 [-]
	 SCS Same-Spin Energy      =      -0.0956445640706718 [Eh]
	 SCS Opposite-Spin Energy  =      -1.0768686491806709 [Eh]
	 SCS Correlation Energy    =      -1.1725132132513427 [Eh]
	 SCS Total Energy          =    -265.1183795268716494 [Eh]
	-----------------------------------------------------------

  Dipole Moment: [D]
     X:    -2.8041      Y:    -3.0163      Z:     0.0691     Total:     4.1189

*** Psi4 exiting successfully. Buy a developer a beer!
