                               Psi4 1.3.2 release

  ==> Input File <==

--------------------------------------------------------------------------
#psi4
#
memory 32 gb

molecule  {
0 1
  N        0.1712930    -1.0406060    -0.0000250
  N        1.5395640     0.7140220    -0.0006150
  C       -0.6486520     0.0688480    -0.0000100
  C       -2.1370900    -0.0166370     0.0000170
  C        0.2282570     1.1348590     0.0002090
  C        1.4683060    -0.6083830     0.0003860
  H       -0.1378344    -2.0050700    -0.2000100
  H       -2.5173940    -0.5355380     0.8864280
  H       -2.5554930     0.9924890    -0.0004510
  H       -2.5174040    -0.5363680    -0.8859050
  H       -0.0216830     2.1883360     0.0002760
  H        2.3089220    -1.2898710     0.0005270
units angstrom
no_reorient  #important for SAPT in psi4, default
symmetry c1  #important for SAPT in psi4, default
}

set PROPERTIES_ORIGIN ["COM"]
properties('MP2/aug-cc-pvtz', properties = ['dipole'])
--------------------------------------------------------------------------

    Molecular point group: c1
  Charge       = 0
  Multiplicity = 1
  Basis Set: AUG-CC-PVTZ
    Blend: AUG-CC-PVTZ
  Basis Set: (AUG-CC-PVTZ AUX)
    Blend: AUG-CC-PVTZ-JKFIT

    Orbital Energies [Eh]
    ---------------------

    Doubly Occupied:

       1A    -15.619325     2A    -15.543671     3A    -11.293938
       4A    -11.265131     5A    -11.241069     6A    -11.236437
       7A     -1.333493     8A     -1.160441     9A     -1.043354
      10A     -0.937672    11A     -0.816773    12A     -0.788633
      13A     -0.719910    14A     -0.621879    15A     -0.609833
      16A     -0.570263    17A     -0.562240    18A     -0.556696
      19A     -0.548936    20A     -0.432213    21A     -0.395889
      22A     -0.306894

  @DF-RHF Final Energy:  -263.94708972478736

   => Energetics <=

    Nuclear Repulsion Energy =            223.6818009857876461
    One-Electron Energy =                -800.0484042574875048
    Two-Electron Energy =                 312.4195135469125262
    Total Energy =                       -263.9470897247873609
  Basis Set: (AUG-CC-PVTZ AUX)
    Blend: AUG-CC-PVTZ-RI
    Molecular point group: c1

    Geometry (in Angstrom), charge = 0, multiplicity = 1:

       Center              X                  Y                   Z               Mass
    ------------   -----------------  -----------------  -----------------  -----------------
         N            0.105437501683    -1.054935275125     0.002442075706    14.003074004430
         N            1.473708501683     0.699692724875     0.001852075706    14.003074004430
         C           -0.714507498317     0.054518724875     0.002457075706    12.000000000000
         C           -2.202945498317    -0.030966275125     0.002484075706    12.000000000000
         C            0.162401501683     1.120529724875     0.002676075706    12.000000000000
         C            1.402450501683    -0.622712275125     0.002853075706    12.000000000000
         H           -0.203689898317    -2.019399275125    -0.197542924294     1.007825032230
         H           -2.583249498317    -0.549867275125     0.888895075706     1.007825032230
         H           -2.621348498317     0.978159724875     0.002016075706     1.007825032230
         H           -2.583259498317    -0.550697275125    -0.883437924294     1.007825032230
         H           -0.087538498317     2.174006724875     0.002743075706     1.007825032230
         H            2.243066501683    -1.304200275125     0.002994075706     1.007825032230

  Basis Set: AUG-CC-PVTZ
    Blend: AUG-CC-PVTZ
  Basis Set: (AUG-CC-PVTZ AUX)
    Blend: AUG-CC-PVTZ-JKFIT
	 Reference Energy          =    -263.9470897247873609 [Eh]
	 Singles Energy            =      -0.0000000000000000 [Eh]
	 Same-Spin Energy          =      -0.2868856738677505 [Eh]
	 Opposite-Spin Energy      =      -0.8972811910983873 [Eh]
	 Correlation Energy        =      -1.1841668649661379 [Eh]
	 Total Energy              =    -265.1312565897534910 [Eh]

	 ================> DF-SCS-MP2 Energies <==================
	-----------------------------------------------------------
	 SCS Same-Spin Scale       =       0.3333333333333333 [-]
	 SCS Opposite-Spin Scale   =       1.2000000000000000 [-]
	 SCS Same-Spin Energy      =      -0.0956285579559168 [Eh]
	 SCS Opposite-Spin Energy  =      -1.0767374293180647 [Eh]
	 SCS Correlation Energy    =      -1.1723659872739816 [Eh]
	 SCS Total Energy          =    -265.1194557120613240 [Eh]
	-----------------------------------------------------------

  Dipole Moment: [D]
     X:    -2.7902      Y:    -2.9615      Z:    -0.2849     Total:     4.0788

*** Psi4 exiting successfully. Buy a developer a beer!
