                               Psi4 1.3.2 release

  ==> Input File <==

--------------------------------------------------------------------------
#psi4
#
memory 32 gb

molecule  {
0 1
  N        0.1712930    -1.0406060    -0.0000250
  N        1.5395640     0.7140220    -0.0006150
  C       -0.6486520     0.0688480    -0.0000100
  C       -2.1370900    -0.0166370     0.0000170
  C        0.2282570     1.1348590     0.0002090
  C        1.4683060    -0.6083830     0.0003860
  H       -0.1378445    -2.0050725    -0.1500100
  H       -2.5173940    -0.5355380     0.8864280
  H       -2.5554930     0.9924890    -0.0004510
  H       -2.5174040    -0.5363680    -0.8859050
  H       -0.0216830     2.1883360     0.0002760
  H        2.3089220    -1.2898710     0.0005270
units angstrom
no_reorient  #important for SAPT in psi4, default
symmetry c1  #important for SAPT in psi4, default
}

set PROPERTIES_ORIGIN ["COM"]
properties('MP2/aug-cc-pvtz', properties = ['dipole'])
--------------------------------------------------------------------------

    Molecular point group: c1
  Charge       = 0
  Multiplicity = 1
  Basis Set: AUG-CC-PVTZ
    Blend: AUG-CC-PVTZ
  Basis Set: (AUG-CC-PVTZ AUX)
    Blend: AUG-CC-PVTZ-JKFIT

    Orbital Energies [Eh]
    ---------------------

    Doubly Occupied:

       1A    -15.618988     2A    -15.543485     3A    -11.293918
       4A    -11.265205     5A    -11.241124     6A    -11.236293
       7A     -1.333761     8A     -1.161065     9A     -1.043534
      10A     -0.937669    11A     -0.818812    12A     -0.788991
      13A     -0.720336    14A     -0.620749    15A     -0.611418
      16A     -0.570338    17A     -0.562110    18A     -0.557012
      19A     -0.549328    20A     -0.432113    21A     -0.395724
      22A     -0.306819

  @DF-RHF Final Energy:  -263.94796981980198

   => Energetics <=

    Nuclear Repulsion Energy =            223.7210608477745097
    One-Electron Energy =                -800.1204781433425524
    Two-Electron Energy =                 312.4514474757660309
    Total Energy =                       -263.9479698198019832
  Basis Set: (AUG-CC-PVTZ AUX)
    Blend: AUG-CC-PVTZ-RI
    Molecular point group: c1

    Geometry (in Angstrom), charge = 0, multiplicity = 1:

       Center              X                  Y                   Z               Mass
    ------------   -----------------  -----------------  -----------------  -----------------
         N            0.105437625737    -1.054935244418     0.001827945920    14.003074004430
         N            1.473708625737     0.699692755582     0.001237945920    14.003074004430
         C           -0.714507374263     0.054518755582     0.001842945920    12.000000000000
         C           -2.202945374263    -0.030966244418     0.001869945920    12.000000000000
         C            0.162401625737     1.120529755582     0.002061945920    12.000000000000
         C            1.402450625737    -0.622712244418     0.002238945920    12.000000000000
         H           -0.203699874263    -2.019401744418    -0.148157054080     1.007825032230
         H           -2.583249374263    -0.549867244418     0.888280945920     1.007825032230
         H           -2.621348374263     0.978159755582     0.001401945920     1.007825032230
         H           -2.583259374263    -0.550697244418    -0.884052054080     1.007825032230
         H           -0.087538374263     2.174006755582     0.002128945920     1.007825032230
         H            2.243066625737    -1.304200244418     0.002379945920     1.007825032230

  Basis Set: AUG-CC-PVTZ
    Blend: AUG-CC-PVTZ
  Basis Set: (AUG-CC-PVTZ AUX)
    Blend: AUG-CC-PVTZ-JKFIT
	 Reference Energy          =    -263.9479698198019832 [Eh]
	 Singles Energy            =      -0.0000000000000000 [Eh]
	 Same-Spin Energy          =      -0.2868393196222501 [Eh]
	 Opposite-Spin Energy      =      -0.8971423083158825 [Eh]
	 Correlation Energy        =      -1.1839816279381326 [Eh]
	 Total Energy              =    -265.1319514477401071 [Eh]

	 ================> DF-SCS-MP2 Energies <==================
	-----------------------------------------------------------
	 SCS Same-Spin Scale       =       0.3333333333333333 [-]
	 SCS Opposite-Spin Scale   =       1.2000000000000000 [-]
	 SCS Same-Spin Energy      =      -0.0956131065407500 [Eh]
	 SCS Opposite-Spin Energy  =      -1.0765707699790590 [Eh]
	 SCS Correlation Energy    =      -1.1721838765198089 [Eh]
	 SCS Total Energy          =    -265.1201536963217791 [Eh]
	-----------------------------------------------------------

  Dipole Moment: [D]
     X:    -2.7959      Y:    -2.9742      Z:    -0.2141     Total:     4.0876

*** Psi4 exiting successfully. Buy a developer a beer!
