                               Psi4 1.3.2 release

  ==> Input File <==

--------------------------------------------------------------------------
#psi4
#
memory 32 gb

molecule  {
0 1
  N        0.1712930    -1.0406060    -0.0000250
  N        1.5395640     0.7140220    -0.0006150
  C       -0.6486520     0.0688480    -0.0000100
  C       -2.1370900    -0.0166370     0.0000170
  C        0.2282570     1.1348590     0.0002090
  C        1.4683060    -0.6083830     0.0003860
  H       -0.1378750    -2.0050800    -0.0000100
  H       -2.5173940    -0.5355380     0.8864280
  H       -2.5554930     0.9924890    -0.0004510
  H       -2.5174040    -0.5363680    -0.8859050
  H       -0.0217523     2.1883835    -0.1997240
  H        2.3089220    -1.2898710     0.0005270
units angstrom
no_reorient  #important for SAPT in psi4, default
symmetry c1  #important for SAPT in psi4, default
}

set PROPERTIES_ORIGIN ["COM"]
properties('MP2/aug-cc-pvtz', properties = ['dipole'])
--------------------------------------------------------------------------

    Molecular point group: c1
  Charge       = 0
  Multiplicity = 1
  Basis Set: AUG-CC-PVTZ
    Blend: AUG-CC-PVTZ
  Basis Set: (AUG-CC-PVTZ AUX)
    Blend: AUG-CC-PVTZ-JKFIT

    Orbital Energies [Eh]
    ---------------------

    Doubly Occupied:

       1A    -15.618927     2A    -15.543401     3A    -11.294148
       4A    -11.265954     5A    -11.241404     6A    -11.237601
       7A     -1.334468     8A     -1.162102     9A     -1.043879
      10A     -0.937567    11A     -0.821792    12A     -0.787243
      13A     -0.720977    14A     -0.618320    15A     -0.614461
      16A     -0.570755    17A     -0.560981    18A     -0.554254
      19A     -0.549969    20A     -0.432158    21A     -0.395305
      22A     -0.306812

  @DF-RHF Final Energy:  -263.94651994540163

   => Energetics <=

    Nuclear Repulsion Energy =            223.7029753203575240
    One-Electron Energy =                -800.0740354389026834
    Two-Electron Energy =                 312.4245401731435550
    Total Energy =                       -263.9465199454016329
  Basis Set: (AUG-CC-PVTZ AUX)
    Blend: AUG-CC-PVTZ-RI
    Molecular point group: c1

    Geometry (in Angstrom), charge = 0, multiplicity = 1:

       Center              X                  Y                   Z               Mass
    ------------   -----------------  -----------------  -----------------  -----------------
         N            0.105438851540    -1.054935735722     0.002442075706    14.003074004430
         N            1.473709851540     0.699692264278     0.001852075706    14.003074004430
         C           -0.714506148460     0.054518264278     0.002457075706    12.000000000000
         C           -2.202944148460    -0.030966735722     0.002484075706    12.000000000000
         C            0.162402851540     1.120529264278     0.002676075706    12.000000000000
         C            1.402451851540    -0.622712735722     0.002853075706    12.000000000000
         H           -0.203729148460    -2.019409735722     0.002457075706     1.007825032230
         H           -2.583248148460    -0.549867735722     0.888895075706     1.007825032230
         H           -2.621347148460     0.978159264278     0.002016075706     1.007825032230
         H           -2.583258148460    -0.550697735722    -0.883437924294     1.007825032230
         H           -0.087606448460     2.174053764278    -0.197256924294     1.007825032230
         H            2.243067851540    -1.304200735722     0.002994075706     1.007825032230

  Basis Set: AUG-CC-PVTZ
    Blend: AUG-CC-PVTZ
  Basis Set: (AUG-CC-PVTZ AUX)
    Blend: AUG-CC-PVTZ-JKFIT
	 Reference Energy          =    -263.9465199454016329 [Eh]
	 Singles Energy            =      -0.0000000000000000 [Eh]
	 Same-Spin Energy          =      -0.2869070566615589 [Eh]
	 Opposite-Spin Energy      =      -0.8972701530180800 [Eh]
	 Correlation Energy        =      -1.1841772096796390 [Eh]
	 Total Energy              =    -265.1306971550812932 [Eh]

	 ================> DF-SCS-MP2 Energies <==================
	-----------------------------------------------------------
	 SCS Same-Spin Scale       =       0.3333333333333333 [-]
	 SCS Opposite-Spin Scale   =       1.2000000000000000 [-]
	 SCS Same-Spin Energy      =      -0.0956356855538530 [Eh]
	 SCS Opposite-Spin Energy  =      -1.0767241836216959 [Eh]
	 SCS Correlation Energy    =      -1.1723598691755488 [Eh]
	 SCS Total Energy          =    -265.1188798145771557 [Eh]
	-----------------------------------------------------------

  Dipole Moment: [D]
     X:    -2.7959      Y:    -3.0252      Z:    -0.1486     Total:     4.1220

*** Psi4 exiting successfully. Buy a developer a beer!
