                               Psi4 1.3.2 release

  ==> Input File <==

--------------------------------------------------------------------------
#psi4
#
memory 32 gb

molecule  {
0 1
  N        0.1712930    -1.0406060    -0.0000250
  N        1.5395640     0.7140220    -0.0006150
  C       -0.6486520     0.0688480    -0.0000100
  C       -2.1370900    -0.0166370     0.0000170
  C        0.2282570     1.1348590     0.0002090
  C        1.4683060    -0.6083830     0.0003860
  H       -0.1378141    -2.0050650    -0.3000100
  H       -2.5173940    -0.5355380     0.8864280
  H       -2.5554930     0.9924890    -0.0004510
  H       -2.5174040    -0.5363680    -0.8859050
  H       -0.0216830     2.1883360     0.0002760
  H        2.3089220    -1.2898710     0.0005270
units angstrom
no_reorient  #important for SAPT in psi4, default
symmetry c1  #important for SAPT in psi4, default
}

set PROPERTIES_ORIGIN ["COM"]
properties('MP2/aug-cc-pvtz', properties = ['dipole'])
--------------------------------------------------------------------------

    Molecular point group: c1
  Charge       = 0
  Multiplicity = 1
  Basis Set: AUG-CC-PVTZ
    Blend: AUG-CC-PVTZ
  Basis Set: (AUG-CC-PVTZ AUX)
    Blend: AUG-CC-PVTZ-JKFIT

    Orbital Energies [Eh]
    ---------------------

    Doubly Occupied:

       1A    -15.620260     2A    -15.544181     3A    -11.294001
       4A    -11.264932     5A    -11.240913     6A    -11.236837
       7A     -1.332790     8A     -1.158785     9A     -1.042872
      10A     -0.937681    11A     -0.811559    12A     -0.787445
      13A     -0.718635    14A     -0.623818    15A     -0.606575
      16A     -0.570024    17A     -0.562558    18A     -0.555959
      19A     -0.547724    20A     -0.432482    21A     -0.396344
      22A     -0.307102

  @DF-RHF Final Energy:  -263.94412183457035

   => Energetics <=

    Nuclear Repulsion Energy =            223.5737410643432099
    One-Electron Energy =                -799.8487755575065421
    Two-Electron Energy =                 312.3309126585929221
    Total Energy =                       -263.9441218345703533
  Basis Set: (AUG-CC-PVTZ AUX)
    Blend: AUG-CC-PVTZ-RI
    Molecular point group: c1

    Geometry (in Angstrom), charge = 0, multiplicity = 1:

       Center              X                  Y                   Z               Mass
    ------------   -----------------  -----------------  -----------------  -----------------
         N            0.105437252346    -1.054935336538     0.003670335277    14.003074004430
         N            1.473708252346     0.699692663462     0.003080335277    14.003074004430
         C           -0.714507747654     0.054518663462     0.003685335277    12.000000000000
         C           -2.202945747654    -0.030966336538     0.003712335277    12.000000000000
         C            0.162401252346     1.120529663462     0.003904335277    12.000000000000
         C            1.402450252346    -0.622712336538     0.004081335277    12.000000000000
         H           -0.203669847654    -2.019394336538    -0.296314664723     1.007825032230
         H           -2.583249747654    -0.549867336538     0.890123335277     1.007825032230
         H           -2.621348747654     0.978159663462     0.003244335277     1.007825032230
         H           -2.583259747654    -0.550697336538    -0.882209664723     1.007825032230
         H           -0.087538747654     2.174006663462     0.003971335277     1.007825032230
         H            2.243066252346    -1.304200336538     0.004222335277     1.007825032230

  Basis Set: AUG-CC-PVTZ
    Blend: AUG-CC-PVTZ
  Basis Set: (AUG-CC-PVTZ AUX)
    Blend: AUG-CC-PVTZ-JKFIT
	 Reference Energy          =    -263.9441218345703533 [Eh]
	 Singles Energy            =      -0.0000000000000000 [Eh]
	 Same-Spin Energy          =      -0.2870178857567510 [Eh]
	 Opposite-Spin Energy      =      -0.8976963022237645 [Eh]
	 Correlation Energy        =      -1.1847141879805156 [Eh]
	 Total Energy              =    -265.1288360225508427 [Eh]

	 ================> DF-SCS-MP2 Energies <==================
	-----------------------------------------------------------
	 SCS Same-Spin Scale       =       0.3333333333333333 [-]
	 SCS Opposite-Spin Scale   =       1.2000000000000000 [-]
	 SCS Same-Spin Energy      =      -0.0956726285855837 [Eh]
	 SCS Opposite-Spin Energy  =      -1.0772355626685173 [Eh]
	 SCS Correlation Energy    =      -1.1729081912541011 [Eh]
	 SCS Total Energy          =    -265.1170300258244765 [Eh]
	-----------------------------------------------------------

  Dipole Moment: [D]
     X:    -2.7745      Y:    -2.9264      Z:    -0.4240     Total:     4.0548

*** Psi4 exiting successfully. Buy a developer a beer!
