                               Psi4 1.3.2 release

  ==> Input File <==

--------------------------------------------------------------------------
#psi4
#
memory 32 gb

molecule  {
0 1
  N        0.1712930    -1.0406060    -0.0000250
  N        1.5395640     0.7140220    -0.0006150
  C       -0.6486520     0.0688480    -0.0000100
  C       -2.1370900    -0.0166370     0.0000170
  C        0.2282570     1.1348590     0.0002090
  C        1.4683060    -0.6083830     0.0003860
  H       -0.1378750    -2.0050800    -0.0000100
  H       -2.5173940    -0.5355380     0.8864280
  H       -2.5554930     0.9924890    -0.0004510
  H       -2.5174040    -0.5363680    -0.8859050
  H       -0.0216830     2.1883360     0.0002760
  H        2.3089521    -1.2899449    -0.1494730
units angstrom
no_reorient  #important for SAPT in psi4, default
symmetry c1  #important for SAPT in psi4, default
}

set PROPERTIES_ORIGIN ["COM"]
properties('MP2/aug-cc-pvtz', properties = ['dipole'])
--------------------------------------------------------------------------

    Molecular point group: c1
  Charge       = 0
  Multiplicity = 1
  Basis Set: AUG-CC-PVTZ
    Blend: AUG-CC-PVTZ
  Basis Set: (AUG-CC-PVTZ AUX)
    Blend: AUG-CC-PVTZ-JKFIT

    Orbital Energies [Eh]
    ---------------------

    Doubly Occupied:

       1A    -15.618572     2A    -15.543534     3A    -11.294586
       4A    -11.265640     5A    -11.241356     6A    -11.236322
       7A     -1.334217     8A     -1.162051     9A     -1.043787
      10A     -0.937414    11A     -0.821262    12A     -0.789085
      13A     -0.719518    14A     -0.619009    15A     -0.613395
      16A     -0.570537    17A     -0.562809    18A     -0.556155
      19A     -0.549050    20A     -0.432165    21A     -0.395580
      22A     -0.306815

  @DF-RHF Final Energy:  -263.94765379596799

   => Energetics <=

    Nuclear Repulsion Energy =            223.7332988366388236
    One-Electron Energy =                -800.1361894195489413
    Two-Electron Energy =                 312.4552367869421232
    Total Energy =                       -263.9476537959679945
  Basis Set: (AUG-CC-PVTZ AUX)
    Blend: AUG-CC-PVTZ-RI
    Molecular point group: c1

    Geometry (in Angstrom), charge = 0, multiplicity = 1:

       Center              X                  Y                   Z               Mass
    ------------   -----------------  -----------------  -----------------  -----------------
         N            0.105437630650    -1.054934244615     0.001827945920    14.003074004430
         N            1.473708630650     0.699693755385     0.001237945920    14.003074004430
         C           -0.714507369350     0.054519755385     0.001842945920    12.000000000000
         C           -2.202945369350    -0.030965244615     0.001869945920    12.000000000000
         C            0.162401630650     1.120530755385     0.002061945920    12.000000000000
         C            1.402450630650    -0.622711244615     0.002238945920    12.000000000000
         H           -0.203730369350    -2.019408244615     0.001842945920     1.007825032230
         H           -2.583249369350    -0.549866244615     0.888280945920     1.007825032230
         H           -2.621348369350     0.978160755385     0.001401945920     1.007825032230
         H           -2.583259369350    -0.550696244615    -0.884052054080     1.007825032230
         H           -0.087538369350     2.174007755385     0.002128945920     1.007825032230
         H            2.243096730650    -1.304273144615    -0.147620054080     1.007825032230

  Basis Set: AUG-CC-PVTZ
    Blend: AUG-CC-PVTZ
  Basis Set: (AUG-CC-PVTZ AUX)
    Blend: AUG-CC-PVTZ-JKFIT
	 Reference Energy          =    -263.9476537959679945 [Eh]
	 Singles Energy            =      -0.0000000000000000 [Eh]
	 Same-Spin Energy          =      -0.2868906291737739 [Eh]
	 Opposite-Spin Energy      =      -0.8971744603824461 [Eh]
	 Correlation Energy        =      -1.1840650895562201 [Eh]
	 Total Energy              =    -265.1317188855242080 [Eh]

	 ================> DF-SCS-MP2 Energies <==================
	-----------------------------------------------------------
	 SCS Same-Spin Scale       =       0.3333333333333333 [-]
	 SCS Opposite-Spin Scale   =       1.2000000000000000 [-]
	 SCS Same-Spin Energy      =      -0.0956302097245913 [Eh]
	 SCS Opposite-Spin Energy  =      -1.0766093524589353 [Eh]
	 SCS Correlation Energy    =      -1.1722395621835267 [Eh]
	 SCS Total Energy          =    -265.1198933581515007 [Eh]
	-----------------------------------------------------------

  Dipole Moment: [D]
     X:    -2.8228      Y:    -2.9735      Z:    -0.1161     Total:     4.1016

*** Psi4 exiting successfully. Buy a developer a beer!
