                               Psi4 1.3.2 release

  ==> Input File <==

--------------------------------------------------------------------------
#psi4
#
memory 32 gb

molecule  {
0 1
  N        0.1712930    -1.0406060    -0.0000250
  N        1.5395640     0.7140220    -0.0006150
  C       -0.6486520     0.0688480    -0.0000100
  C       -2.1370900    -0.0166370     0.0000170
  C        0.2282570     1.1348590     0.0002090
  C        1.4683060    -0.6083830     0.0003860
  H       -0.1378750    -2.0050800    -0.0000100
  H       -2.5173940    -0.5355380     0.8864280
  H       -2.5554930     0.9924890    -0.0004510
  H       -2.5174040    -0.5363680    -0.8859050
  H       -0.0216830     2.1883360     0.0002760
  H        2.3089822    -1.2900188    -0.2994730
units angstrom
no_reorient  #important for SAPT in psi4, default
symmetry c1  #important for SAPT in psi4, default
}

set PROPERTIES_ORIGIN ["COM"]
properties('MP2/aug-cc-pvtz', properties = ['dipole'])
--------------------------------------------------------------------------

    Molecular point group: c1
  Charge       = 0
  Multiplicity = 1
  Basis Set: AUG-CC-PVTZ
    Blend: AUG-CC-PVTZ
  Basis Set: (AUG-CC-PVTZ AUX)
    Blend: AUG-CC-PVTZ-JKFIT

    Orbital Energies [Eh]
    ---------------------

    Doubly Occupied:

       1A    -15.618661     2A    -15.544388     3A    -11.296618
       4A    -11.266611     5A    -11.241819     6A    -11.236956
       7A     -1.334503     8A     -1.162486     9A     -1.043859
      10A     -0.936779    11A     -0.820470    12A     -0.788223
      13A     -0.715750    14A     -0.620566    15A     -0.610911
      16A     -0.570844    17A     -0.564136    18A     -0.554686
      19A     -0.545499    20A     -0.432685    21A     -0.395794
      22A     -0.307085

  @DF-RHF Final Energy:  -263.94317541317366

   => Energetics <=

    Nuclear Repulsion Energy =            223.6204659750987105
    One-Electron Energy =                -799.9086269239166995
    Two-Electron Energy =                 312.3449855356443550
    Total Energy =                       -263.9431754131736625
  Basis Set: (AUG-CC-PVTZ AUX)
    Blend: AUG-CC-PVTZ-RI
    Molecular point group: c1

    Geometry (in Angstrom), charge = 0, multiplicity = 1:

       Center              X                  Y                   Z               Mass
    ------------   -----------------  -----------------  -----------------  -----------------
         N            0.105437260944    -1.054933336931     0.003670335277    14.003074004430
         N            1.473708260944     0.699694663069     0.003080335277    14.003074004430
         C           -0.714507739056     0.054520663069     0.003685335277    12.000000000000
         C           -2.202945739056    -0.030964336931     0.003712335277    12.000000000000
         C            0.162401260944     1.120531663069     0.003904335277    12.000000000000
         C            1.402450260944    -0.622710336931     0.004081335277    12.000000000000
         H           -0.203730739056    -2.019407336931     0.003685335277     1.007825032230
         H           -2.583249739056    -0.549865336931     0.890123335277     1.007825032230
         H           -2.621348739056     0.978161663069     0.003244335277     1.007825032230
         H           -2.583259739056    -0.550695336931    -0.882209664723     1.007825032230
         H           -0.087538739056     2.174008663069     0.003971335277     1.007825032230
         H            2.243126460944    -1.304346136931    -0.295777664723     1.007825032230

  Basis Set: AUG-CC-PVTZ
    Blend: AUG-CC-PVTZ
  Basis Set: (AUG-CC-PVTZ AUX)
    Blend: AUG-CC-PVTZ-JKFIT
	 Reference Energy          =    -263.9431754131736625 [Eh]
	 Singles Energy            =      -0.0000000000000000 [Eh]
	 Same-Spin Energy          =      -0.2872116378131481 [Eh]
	 Opposite-Spin Energy      =      -0.8978310473351367 [Eh]
	 Correlation Energy        =      -1.1850426851482849 [Eh]
	 Total Energy              =    -265.1282180983219519 [Eh]

	 ================> DF-SCS-MP2 Energies <==================
	-----------------------------------------------------------
	 SCS Same-Spin Scale       =       0.3333333333333333 [-]
	 SCS Opposite-Spin Scale   =       1.2000000000000000 [-]
	 SCS Same-Spin Energy      =      -0.0957372126043827 [Eh]
	 SCS Opposite-Spin Energy  =      -1.0773972568021641 [Eh]
	 SCS Correlation Energy    =      -1.1731344694065469 [Eh]
	 SCS Total Energy          =    -265.1163098825801967 [Eh]
	-----------------------------------------------------------

  Dipole Moment: [D]
     X:    -2.8790      Y:    -2.9234      Z:    -0.2292     Total:     4.1094

*** Psi4 exiting successfully. Buy a developer a beer!
