                               Psi4 1.3.2 release

  ==> Input File <==

--------------------------------------------------------------------------
#psi4
#
memory 32 gb

molecule  {
0 1
  N        0.1712930    -1.0406060    -0.0000250
  N        1.5395640     0.7140220    -0.0006150
  C       -0.6486520     0.0688480    -0.0000100
  C       -2.1370900    -0.0166370     0.0000170
  C        0.2282570     1.1348590     0.0002090
  C        1.4683060    -0.6083830     0.0003860
  H       -0.1378750    -2.0050800    -0.0000100
  H       -2.5173940    -0.5355380     0.8864280
  H       -2.5554930     0.9924890    -0.0004510
  H       -2.5174040    -0.5363680    -0.8859050
  H       -0.0216830     2.1883360     0.0002760
  H        2.3089722    -1.2899942    -0.2494730
units angstrom
no_reorient  #important for SAPT in psi4, default
symmetry c1  #important for SAPT in psi4, default
}

set PROPERTIES_ORIGIN ["COM"]
properties('MP2/aug-cc-pvtz', properties = ['dipole'])
--------------------------------------------------------------------------

    Molecular point group: c1
  Charge       = 0
  Multiplicity = 1
  Basis Set: AUG-CC-PVTZ
    Blend: AUG-CC-PVTZ
  Basis Set: (AUG-CC-PVTZ AUX)
    Blend: AUG-CC-PVTZ-JKFIT

    Orbital Energies [Eh]
    ---------------------

    Doubly Occupied:

       1A    -15.618620     2A    -15.544044     3A    -11.295800
       4A    -11.266221     5A    -11.241633     6A    -11.236700
       7A     -1.334386     8A     -1.162309     9A     -1.043824
      10A     -0.937017    11A     -0.820762    12A     -0.788553
      13A     -0.717236    14A     -0.620089    15A     -0.611750
      16A     -0.570723    17A     -0.563713    18A     -0.555014
      19A     -0.547120    20A     -0.432481    21A     -0.395706
      22A     -0.306974

  @DF-RHF Final Energy:  -263.94508997414323

   => Energetics <=

    Nuclear Repulsion Energy =            223.6655634968757624
    One-Electron Energy =                -799.9999610688108760
    Two-Electron Energy =                 312.3893075977919125
    Total Energy =                       -263.9450899741432295
  Basis Set: (AUG-CC-PVTZ AUX)
    Blend: AUG-CC-PVTZ-RI
    Molecular point group: c1

    Geometry (in Angstrom), charge = 0, multiplicity = 1:

       Center              X                  Y                   Z               Mass
    ------------   -----------------  -----------------  -----------------  -----------------
         N            0.105437383770    -1.054933639083     0.003056205491    14.003074004430
         N            1.473708383770     0.699694360917     0.002466205491    14.003074004430
         C           -0.714507616230     0.054520360917     0.003071205491    12.000000000000
         C           -2.202945616230    -0.030964639083     0.003098205491    12.000000000000
         C            0.162401383770     1.120531360917     0.003290205491    12.000000000000
         C            1.402450383770    -0.622710639083     0.003467205491    12.000000000000
         H           -0.203730616230    -2.019407639083     0.003071205491     1.007825032230
         H           -2.583249616230    -0.549865639083     0.889509205491     1.007825032230
         H           -2.621348616230     0.978161360917     0.002630205491     1.007825032230
         H           -2.583259616230    -0.550695639083    -0.882823794509     1.007825032230
         H           -0.087538616230     2.174008360917     0.003357205491     1.007825032230
         H            2.243116583770    -1.304321839083    -0.246391794509     1.007825032230

  Basis Set: AUG-CC-PVTZ
    Blend: AUG-CC-PVTZ
  Basis Set: (AUG-CC-PVTZ AUX)
    Blend: AUG-CC-PVTZ-JKFIT
	 Reference Energy          =    -263.9450899741432295 [Eh]
	 Singles Energy            =      -0.0000000000000000 [Eh]
	 Same-Spin Energy          =      -0.2870828355697971 [Eh]
	 Opposite-Spin Energy      =      -0.8975579850483366 [Eh]
	 Correlation Energy        =      -1.1846408206181338 [Eh]
	 Total Energy              =    -265.1297307947613717 [Eh]

	 ================> DF-SCS-MP2 Energies <==================
	-----------------------------------------------------------
	 SCS Same-Spin Scale       =       0.3333333333333333 [-]
	 SCS Opposite-Spin Scale   =       1.2000000000000000 [-]
	 SCS Same-Spin Energy      =      -0.0956942785232657 [Eh]
	 SCS Opposite-Spin Energy  =      -1.0770695820580038 [Eh]
	 SCS Correlation Energy    =      -1.1727638605812696 [Eh]
	 SCS Total Energy          =    -265.1178538347244853 [Eh]
	-----------------------------------------------------------

  Dipole Moment: [D]
     X:    -2.8564      Y:    -2.9435      Z:    -0.1922     Total:     4.1061

*** Psi4 exiting successfully. Buy a developer a beer!
