                               Psi4 1.3.2 release

  ==> Input File <==

--------------------------------------------------------------------------
#psi4
#
memory 32 gb

molecule  {
0 1
  N        0.1712930    -1.0406060    -0.0000250
  N        1.5395640     0.7140220    -0.0006150
  C       -0.6486520     0.0688480    -0.0000100
  C       -2.1370900    -0.0166370     0.0000170
  C        0.2282628     1.1348804    -0.1997910
  C        1.4683060    -0.6083830     0.0003860
  H       -0.1378750    -2.0050800    -0.0000100
  H       -2.5173940    -0.5355380     0.8864280
  H       -2.5554930     0.9924890    -0.0004510
  H       -2.5174040    -0.5363680    -0.8859050
  H       -0.0216830     2.1883360     0.0002760
  H        2.3089220    -1.2898710     0.0005270
units angstrom
no_reorient  #important for SAPT in psi4, default
symmetry c1  #important for SAPT in psi4, default
}

set PROPERTIES_ORIGIN ["COM"]
properties('MP2/aug-cc-pvtz', properties = ['dipole'])
--------------------------------------------------------------------------

    Molecular point group: c1
  Charge       = 0
  Multiplicity = 1
  Basis Set: AUG-CC-PVTZ
    Blend: AUG-CC-PVTZ
  Basis Set: (AUG-CC-PVTZ AUX)
    Blend: AUG-CC-PVTZ-JKFIT

    Orbital Energies [Eh]
    ---------------------

    Doubly Occupied:

       1A    -15.619950     2A    -15.544518     3A    -11.294136
       4A    -11.271007     5A    -11.242390     6A    -11.238938
       7A     -1.333490     8A     -1.160014     9A     -1.044052
      10A     -0.937181    11A     -0.819359    12A     -0.787846
      13A     -0.720271    14A     -0.619312    15A     -0.613186
      16A     -0.569885    17A     -0.562480    18A     -0.550559
      19A     -0.547312    20A     -0.432087    21A     -0.393145
      22A     -0.306704

  @DF-RHF Final Energy:  -263.93647020037088

   => Energetics <=

    Nuclear Repulsion Energy =            223.3031460451146017
    One-Electron Energy =                -799.2635894360543034
    Two-Electron Energy =                 312.0239731905687677
    Total Energy =                       -263.9364702003708771
  Basis Set: (AUG-CC-PVTZ AUX)
    Blend: AUG-CC-PVTZ-RI
    Molecular point group: c1

    Geometry (in Angstrom), charge = 0, multiplicity = 1:

       Center              X                  Y                   Z               Mass
    ------------   -----------------  -----------------  -----------------  -----------------
         N            0.105437152125    -1.054938281979     0.029234909148    14.003074004430
         N            1.473708152125     0.699689718021     0.028644909148    14.003074004430
         C           -0.714507847875     0.054515718021     0.029249909148    12.000000000000
         C           -2.202945847875    -0.030969281979     0.029276909148    12.000000000000
         C            0.162406952125     1.120548118021    -0.170531090852    12.000000000000
         C            1.402450152125    -0.622715281979     0.029645909148    12.000000000000
         H           -0.203730847875    -2.019412281979     0.029249909148     1.007825032230
         H           -2.583249847875    -0.549870281979     0.915687909148     1.007825032230
         H           -2.621348847875     0.978156718021     0.028808909148     1.007825032230
         H           -2.583259847875    -0.550700281979    -0.856645090852     1.007825032230
         H           -0.087538847875     2.174003718021     0.029535909148     1.007825032230
         H            2.243066152125    -1.304203281979     0.029786909148     1.007825032230

  Basis Set: AUG-CC-PVTZ
    Blend: AUG-CC-PVTZ
  Basis Set: (AUG-CC-PVTZ AUX)
    Blend: AUG-CC-PVTZ-JKFIT
	 Reference Energy          =    -263.9364702003708771 [Eh]
	 Singles Energy            =      -0.0000000000000000 [Eh]
	 Same-Spin Energy          =      -0.2873836112650270 [Eh]
	 Opposite-Spin Energy      =      -0.8987905510954416 [Eh]
	 Correlation Energy        =      -1.1861741623604685 [Eh]
	 Total Energy              =    -265.1226443627313643 [Eh]

	 ================> DF-SCS-MP2 Energies <==================
	-----------------------------------------------------------
	 SCS Same-Spin Scale       =       0.3333333333333333 [-]
	 SCS Opposite-Spin Scale   =       1.2000000000000000 [-]
	 SCS Same-Spin Energy      =      -0.0957945370883423 [Eh]
	 SCS Opposite-Spin Energy  =      -1.0785486613145299 [Eh]
	 SCS Correlation Energy    =      -1.1743431984028723 [Eh]
	 SCS Total Energy          =    -265.1108133987737574 [Eh]
	-----------------------------------------------------------

  Dipole Moment: [D]
     X:    -2.8055      Y:    -3.0902      Z:     0.1412     Total:     4.1762

*** Psi4 exiting successfully. Buy a developer a beer!
