                               Psi4 1.3.2 release

  ==> Input File <==

--------------------------------------------------------------------------
#psi4
#
memory 32 gb

molecule  {
0 1
  N        0.1712930    -1.0406060    -0.0000250
  N        1.5395640     0.7140220    -0.0006150
  C       -0.6486520     0.0688480    -0.0000100
  C       -2.1370900    -0.0166370     0.0000170
  C        0.2282570     1.1348590     0.0002090
  C        1.4683060    -0.6083830     0.0003860
  H       -0.1378750    -2.0050800    -0.0000100
  H       -2.5173940    -0.5355380     0.8864280
  H       -2.5554930     0.9924890    -0.0004510
  H       -2.5174040    -0.5363680    -0.8859050
  H       -0.0216830     2.1883360     0.0002760
  H        2.3089421    -1.2899203    -0.0994730
units angstrom
no_reorient  #important for SAPT in psi4, default
symmetry c1  #important for SAPT in psi4, default
}

set PROPERTIES_ORIGIN ["COM"]
properties('MP2/aug-cc-pvtz', properties = ['dipole'])
--------------------------------------------------------------------------

    Molecular point group: c1
  Charge       = 0
  Multiplicity = 1
  Basis Set: AUG-CC-PVTZ
    Blend: AUG-CC-PVTZ
  Basis Set: (AUG-CC-PVTZ AUX)
    Blend: AUG-CC-PVTZ-JKFIT

    Orbital Energies [Eh]
    ---------------------

    Doubly Occupied:

       1A    -15.618560     2A    -15.543372     3A    -11.294202
       4A    -11.265455     5A    -11.241268     6A    -11.236202
       7A     -1.334164     8A     -1.161970     9A     -1.043779
      10A     -0.937552    11A     -0.821439    12A     -0.789265
      13A     -0.720261    14A     -0.618459    15A     -0.614131
      16A     -0.570476    17A     -0.562379    18A     -0.556795
      19A     -0.549502    20A     -0.432062    21A     -0.395542
      22A     -0.306764

  @DF-RHF Final Energy:  -263.94839400528014

   => Energetics <=

    Nuclear Repulsion Energy =            223.7550268799618038
    One-Electron Energy =                -800.1796437576232393
    Two-Electron Energy =                 312.4762228723813564
    Total Energy =                       -263.9483940052801358
  Basis Set: (AUG-CC-PVTZ AUX)
    Blend: AUG-CC-PVTZ-RI
    Molecular point group: c1

    Geometry (in Angstrom), charge = 0, multiplicity = 1:

       Center              X                  Y                   Z               Mass
    ------------   -----------------  -----------------  -----------------  -----------------
         N            0.105437753476    -1.054934546767     0.001213816134    14.003074004430
         N            1.473708753476     0.699693453233     0.000623816134    14.003074004430
         C           -0.714507246524     0.054519453233     0.001228816134    12.000000000000
         C           -2.202945246524    -0.030965546767     0.001255816134    12.000000000000
         C            0.162401753476     1.120530453233     0.001447816134    12.000000000000
         C            1.402450753476    -0.622711546767     0.001624816134    12.000000000000
         H           -0.203730246524    -2.019408546767     0.001228816134     1.007825032230
         H           -2.583249246524    -0.549866546767     0.887666816134     1.007825032230
         H           -2.621348246524     0.978160453233     0.000787816134     1.007825032230
         H           -2.583259246524    -0.550696546767    -0.884666183866     1.007825032230
         H           -0.087538246524     2.174007453233     0.001514816134     1.007825032230
         H            2.243086853476    -1.304248846767    -0.098234183866     1.007825032230

  Basis Set: AUG-CC-PVTZ
    Blend: AUG-CC-PVTZ
  Basis Set: (AUG-CC-PVTZ AUX)
    Blend: AUG-CC-PVTZ-JKFIT
	 Reference Energy          =    -263.9483940052801358 [Eh]
	 Singles Energy            =      -0.0000000000000000 [Eh]
	 Same-Spin Energy          =      -0.2868293953810479 [Eh]
	 Opposite-Spin Energy      =      -0.8970601369453297 [Eh]
	 Correlation Energy        =      -1.1838895323263776 [Eh]
	 Total Energy              =    -265.1322835376064972 [Eh]

	 ================> DF-SCS-MP2 Energies <==================
	-----------------------------------------------------------
	 SCS Same-Spin Scale       =       0.3333333333333333 [-]
	 SCS Opposite-Spin Scale   =       1.2000000000000000 [-]
	 SCS Same-Spin Energy      =      -0.0956097984603493 [Eh]
	 SCS Opposite-Spin Energy  =      -1.0764721643343955 [Eh]
	 SCS Correlation Energy    =      -1.1720819627947447 [Eh]
	 SCS Total Energy          =    -265.1204759680748566 [Eh]
	-----------------------------------------------------------

  Dipole Moment: [D]
     X:    -2.8121      Y:    -2.9831      Z:    -0.0773     Total:     4.1003

*** Psi4 exiting successfully. Buy a developer a beer!
