                               Psi4 1.3.2 release

  ==> Input File <==

--------------------------------------------------------------------------
#psi4
#
memory 32 gb

molecule  {
0 1
  N        0.1712930    -1.0406060    -0.0000250
  N        1.5395640     0.7140220    -0.0006150
  C       -0.6486520     0.0688480    -0.0000100
  C       -2.1370900    -0.0166370     0.0000170
  C        0.2282570     1.1348590     0.0002090
  C        1.4683060    -0.6083830     0.0003860
  H       -0.1378547    -2.0050750    -0.1000100
  H       -2.5173940    -0.5355380     0.8864280
  H       -2.5554930     0.9924890    -0.0004510
  H       -2.5174040    -0.5363680    -0.8859050
  H       -0.0216830     2.1883360     0.0002760
  H        2.3089220    -1.2898710     0.0005270
units angstrom
no_reorient  #important for SAPT in psi4, default
symmetry c1  #important for SAPT in psi4, default
}

set PROPERTIES_ORIGIN ["COM"]
properties('MP2/aug-cc-pvtz', properties = ['dipole'])
--------------------------------------------------------------------------

    Molecular point group: c1
  Charge       = 0
  Multiplicity = 1
  Basis Set: AUG-CC-PVTZ
    Blend: AUG-CC-PVTZ
  Basis Set: (AUG-CC-PVTZ AUX)
    Blend: AUG-CC-PVTZ-JKFIT

    Orbital Energies [Eh]
    ---------------------

    Doubly Occupied:

       1A    -15.618745     2A    -15.543349     3A    -11.293904
       4A    -11.265259     5A    -11.241165     6A    -11.236189
       7A     -1.333959     8A     -1.161526     9A     -1.043666
      10A     -0.937668    11A     -0.820334    12A     -0.789231
      13A     -0.720634    14A     -0.619561    15A     -0.612929
      16A     -0.570388    17A     -0.562009    18A     -0.557261
      19A     -0.549596    20A     -0.432039    21A     -0.395605
      22A     -0.306765

  @DF-RHF Final Energy:  -263.94854115885454

   => Energetics <=

    Nuclear Repulsion Energy =            223.7495832946889323
    One-Electron Energy =                -800.1726853828860158
    Two-Electron Energy =                 312.4745609293425446
    Total Energy =                       -263.9485411588545389
  Basis Set: (AUG-CC-PVTZ AUX)
    Blend: AUG-CC-PVTZ-RI
    Molecular point group: c1

    Geometry (in Angstrom), charge = 0, multiplicity = 1:

       Center              X                  Y                   Z               Mass
    ------------   -----------------  -----------------  -----------------  -----------------
         N            0.105437751020    -1.054935213712     0.001213816134    14.003074004430
         N            1.473708751020     0.699692786288     0.000623816134    14.003074004430
         C           -0.714507248980     0.054518786288     0.001228816134    12.000000000000
         C           -2.202945248980    -0.030966213712     0.001255816134    12.000000000000
         C            0.162401751020     1.120529786288     0.001447816134    12.000000000000
         C            1.402450751020    -0.622712213712     0.001624816134    12.000000000000
         H           -0.203709948980    -2.019404213712    -0.098771183866     1.007825032230
         H           -2.583249248980    -0.549867213712     0.887666816134     1.007825032230
         H           -2.621348248980     0.978159786288     0.000787816134     1.007825032230
         H           -2.583259248980    -0.550697213712    -0.884666183866     1.007825032230
         H           -0.087538248980     2.174006786288     0.001514816134     1.007825032230
         H            2.243066751020    -1.304200213712     0.001765816134     1.007825032230

  Basis Set: AUG-CC-PVTZ
    Blend: AUG-CC-PVTZ
  Basis Set: (AUG-CC-PVTZ AUX)
    Blend: AUG-CC-PVTZ-JKFIT
	 Reference Energy          =    -263.9485411588545389 [Eh]
	 Singles Energy            =      -0.0000000000000000 [Eh]
	 Same-Spin Energy          =      -0.2868062468760715 [Eh]
	 Opposite-Spin Energy      =      -0.8970461001801671 [Eh]
	 Correlation Energy        =      -1.1838523470562385 [Eh]
	 Total Energy              =    -265.1323935059107839 [Eh]

	 ================> DF-SCS-MP2 Energies <==================
	-----------------------------------------------------------
	 SCS Same-Spin Scale       =       0.3333333333333333 [-]
	 SCS Opposite-Spin Scale   =       1.2000000000000000 [-]
	 SCS Same-Spin Energy      =      -0.0956020822920238 [Eh]
	 SCS Opposite-Spin Energy  =      -1.0764553202162004 [Eh]
	 SCS Correlation Energy    =      -1.1720574025082242 [Eh]
	 SCS Total Energy          =    -265.1205985613627831 [Eh]
	-----------------------------------------------------------

  Dipole Moment: [D]
     X:    -2.8000      Y:    -2.9835      Z:    -0.1426     Total:     4.0941

*** Psi4 exiting successfully. Buy a developer a beer!
