                               Psi4 1.3.2 release

  ==> Input File <==

--------------------------------------------------------------------------
#psi4
#
memory 32 gb

molecule  {
0 1
  N        0.1712930    -1.0406060    -0.0000250
  N        1.5395640     0.7140220    -0.0006150
  C       -0.6486520     0.0688480    -0.0000100
  C       -2.1370900    -0.0166370     0.0000170
  C        0.2282570     1.1348590     0.0002090
  C        1.4683060    -0.6083830     0.0003860
  H       -0.1378750    -2.0050800    -0.0000100
  H       -2.5173940    -0.5355380     0.8864280
  H       -2.5554930     0.9924890    -0.0004510
  H       -2.5174040    -0.5363680    -0.8859050
  H       -0.0217176     2.1883597    -0.0997240
  H        2.3089220    -1.2898710     0.0005270
units angstrom
no_reorient  #important for SAPT in psi4, default
symmetry c1  #important for SAPT in psi4, default
}

set PROPERTIES_ORIGIN ["COM"]
properties('MP2/aug-cc-pvtz', properties = ['dipole'])
--------------------------------------------------------------------------

    Molecular point group: c1
  Charge       = 0
  Multiplicity = 1
  Basis Set: AUG-CC-PVTZ
    Blend: AUG-CC-PVTZ
  Basis Set: (AUG-CC-PVTZ AUX)
    Blend: AUG-CC-PVTZ-JKFIT

    Orbital Energies [Eh]
    ---------------------

    Doubly Occupied:

       1A    -15.618646     2A    -15.543279     3A    -11.293956
       4A    -11.265469     5A    -11.241250     6A    -11.236483
       7A     -1.334209     8A     -1.161953     9A     -1.043800
      10A     -0.937639    11A     -0.821639    12A     -0.788853
      13A     -0.720895    14A     -0.617959    15A     -0.614793
      16A     -0.570509    17A     -0.561542    18A     -0.556804
      19A     -0.549848    20A     -0.432021    21A     -0.395461
      22A     -0.306744

  @DF-RHF Final Energy:  -263.94838158704982

   => Energetics <=

    Nuclear Repulsion Energy =            223.7549556943875189
    One-Electron Energy =                -800.1791701114096895
    Two-Electron Energy =                 312.4758328299723757
    Total Energy =                       -263.9483815870498233
  Basis Set: (AUG-CC-PVTZ AUX)
    Blend: AUG-CC-PVTZ-RI
    Molecular point group: c1

    Geometry (in Angstrom), charge = 0, multiplicity = 1:

       Center              X                  Y                   Z               Mass
    ------------   -----------------  -----------------  -----------------  -----------------
         N            0.105438425334    -1.054935443396     0.001213816134    14.003074004430
         N            1.473709425334     0.699692556604     0.000623816134    14.003074004430
         C           -0.714506574666     0.054518556604     0.001228816134    12.000000000000
         C           -2.202944574666    -0.030966443396     0.001255816134    12.000000000000
         C            0.162402425334     1.120529556604     0.001447816134    12.000000000000
         C            1.402451425334    -0.622712443396     0.001624816134    12.000000000000
         H           -0.203729574666    -2.019409443396     0.001228816134     1.007825032230
         H           -2.583248574666    -0.549867443396     0.887666816134     1.007825032230
         H           -2.621347574666     0.978159556604     0.000787816134     1.007825032230
         H           -2.583258574666    -0.550697443396    -0.884666183866     1.007825032230
         H           -0.087572174666     2.174030256604    -0.098485183866     1.007825032230
         H            2.243067425334    -1.304200443396     0.001765816134     1.007825032230

  Basis Set: AUG-CC-PVTZ
    Blend: AUG-CC-PVTZ
  Basis Set: (AUG-CC-PVTZ AUX)
    Blend: AUG-CC-PVTZ-JKFIT
	 Reference Energy          =    -263.9483815870498233 [Eh]
	 Singles Energy            =      -0.0000000000000000 [Eh]
	 Same-Spin Energy          =      -0.2868121478228540 [Eh]
	 Opposite-Spin Energy      =      -0.8970434492704843 [Eh]
	 Correlation Energy        =      -1.1838555970933382 [Eh]
	 Total Energy              =    -265.1322371841431504 [Eh]

	 ================> DF-SCS-MP2 Energies <==================
	-----------------------------------------------------------
	 SCS Same-Spin Scale       =       0.3333333333333333 [-]
	 SCS Opposite-Spin Scale   =       1.2000000000000000 [-]
	 SCS Same-Spin Energy      =      -0.0956040492742847 [Eh]
	 SCS Opposite-Spin Energy  =      -1.0764521391245812 [Eh]
	 SCS Correlation Energy    =      -1.1720561883988658 [Eh]
	 SCS Total Energy          =    -265.1204377754486927 [Eh]
	-----------------------------------------------------------

  Dipole Moment: [D]
     X:    -2.8015      Y:    -2.9996      Z:    -0.0743     Total:     4.1051

*** Psi4 exiting successfully. Buy a developer a beer!
