                               Psi4 1.3.2 release

  ==> Input File <==

--------------------------------------------------------------------------
#psi4
#
memory 32 gb

molecule  {
0 1
  N        0.1712930    -1.0406060    -0.0000250
  N        1.5395640     0.7140220    -0.0006150
  C       -0.6486520     0.0688480    -0.0000100
  C       -2.1370900    -0.0166370     0.0000170
  C        0.2282614     1.1348750    -0.1497910
  C        1.4683060    -0.6083830     0.0003860
  H       -0.1378750    -2.0050800    -0.0000100
  H       -2.5173940    -0.5355380     0.8864280
  H       -2.5554930     0.9924890    -0.0004510
  H       -2.5174040    -0.5363680    -0.8859050
  H       -0.0216830     2.1883360     0.0002760
  H        2.3089220    -1.2898710     0.0005270
units angstrom
no_reorient  #important for SAPT in psi4, default
symmetry c1  #important for SAPT in psi4, default
}

set PROPERTIES_ORIGIN ["COM"]
properties('MP2/aug-cc-pvtz', properties = ['dipole'])
--------------------------------------------------------------------------

    Molecular point group: c1
  Charge       = 0
  Multiplicity = 1
  Basis Set: AUG-CC-PVTZ
    Blend: AUG-CC-PVTZ
  Basis Set: (AUG-CC-PVTZ AUX)
    Blend: AUG-CC-PVTZ-JKFIT

    Orbital Energies [Eh]
    ---------------------

    Doubly Occupied:

       1A    -15.619331     2A    -15.543977     3A    -11.294018
       4A    -11.268528     5A    -11.241867     6A    -11.237716
       7A     -1.333749     8A     -1.160837     9A     -1.043922
      10A     -0.937400    11A     -0.820296    12A     -0.788495
      13A     -0.720519    14A     -0.618845    15A     -0.613761
      16A     -0.570109    17A     -0.562237    18A     -0.551891
      19A     -0.550079    20A     -0.432049    21A     -0.394160
      22A     -0.306689

  @DF-RHF Final Energy:  -263.94196152169485

   => Energetics <=

    Nuclear Repulsion Energy =            223.5071808541575820
    One-Electron Energy =                -799.6773325113958890
    Two-Electron Energy =                 312.2281901355434570
    Total Energy =                       -263.9419615216948500
  Basis Set: (AUG-CC-PVTZ AUX)
    Blend: AUG-CC-PVTZ-RI
    Molecular point group: c1

    Geometry (in Angstrom), charge = 0, multiplicity = 1:

       Center              X                  Y                   Z               Mass
    ------------   -----------------  -----------------  -----------------  -----------------
         N            0.105437356871    -1.054937492247     0.021922571002    14.003074004430
         N            1.473708356871     0.699690507753     0.021332571002    14.003074004430
         C           -0.714507643129     0.054516507753     0.021937571002    12.000000000000
         C           -2.202945643129    -0.030968492247     0.021964571002    12.000000000000
         C            0.162405756871     1.120543507753    -0.127843428998    12.000000000000
         C            1.402450356871    -0.622714492247     0.022333571002    12.000000000000
         H           -0.203730643129    -2.019411492247     0.021937571002     1.007825032230
         H           -2.583249643129    -0.549869492247     0.908375571002     1.007825032230
         H           -2.621348643129     0.978157507753     0.021496571002     1.007825032230
         H           -2.583259643129    -0.550699492247    -0.863957428998     1.007825032230
         H           -0.087538643129     2.174004507753     0.022223571002     1.007825032230
         H            2.243066356871    -1.304202492247     0.022474571002     1.007825032230

  Basis Set: AUG-CC-PVTZ
    Blend: AUG-CC-PVTZ
  Basis Set: (AUG-CC-PVTZ AUX)
    Blend: AUG-CC-PVTZ-JKFIT
	 Reference Energy          =    -263.9419615216948500 [Eh]
	 Singles Energy            =      -0.0000000000000000 [Eh]
	 Same-Spin Energy          =      -0.2871238388971474 [Eh]
	 Opposite-Spin Energy      =      -0.8979625460469958 [Eh]
	 Correlation Energy        =      -1.1850863849441433 [Eh]
	 Total Energy              =    -265.1270479066390067 [Eh]

	 ================> DF-SCS-MP2 Energies <==================
	-----------------------------------------------------------
	 SCS Same-Spin Scale       =       0.3333333333333333 [-]
	 SCS Opposite-Spin Scale   =       1.2000000000000000 [-]
	 SCS Same-Spin Energy      =      -0.0957079462990491 [Eh]
	 SCS Opposite-Spin Energy  =      -1.0775550552563948 [Eh]
	 SCS Correlation Energy    =      -1.1732630015554439 [Eh]
	 SCS Total Energy          =    -265.1152245232502764 [Eh]
	-----------------------------------------------------------

  Dipole Moment: [D]
     X:    -2.8048      Y:    -3.0474      Z:     0.1044     Total:     4.1431

*** Psi4 exiting successfully. Buy a developer a beer!
