                               Psi4 1.3.2 release

  ==> Input File <==

--------------------------------------------------------------------------
#psi4
#
memory 32 gb

molecule  {
0 1
  N        0.1712930    -1.0406060    -0.0000250
  N        1.5395640     0.7140220    -0.0006150
  C       -0.6486520     0.0688480    -0.0000100
  C       -2.1370900    -0.0166370     0.0000170
  C        0.2282570     1.1348590     0.0002090
  C        1.4683060    -0.6083830     0.0003860
  H       -0.1378750    -2.0050800    -0.0000100
  H       -2.5173940    -0.5355380     0.8864280
  H       -2.5554930     0.9924890    -0.0004510
  H       -2.5174040    -0.5363680    -0.8859050
  H       -0.0217003     2.1883479    -0.0497240
  H        2.3089220    -1.2898710     0.0005270
units angstrom
no_reorient  #important for SAPT in psi4, default
symmetry c1  #important for SAPT in psi4, default
}

set PROPERTIES_ORIGIN ["COM"]
properties('MP2/aug-cc-pvtz', properties = ['dipole'])
--------------------------------------------------------------------------

    Molecular point group: c1
  Charge       = 0
  Multiplicity = 1
  Basis Set: AUG-CC-PVTZ
    Blend: AUG-CC-PVTZ
  Basis Set: (AUG-CC-PVTZ AUX)
    Blend: AUG-CC-PVTZ-JKFIT

    Orbital Energies [Eh]
    ---------------------

    Doubly Occupied:

       1A    -15.618575     2A    -15.543249     3A    -11.293908
       4A    -11.265346     5A    -11.241211     6A    -11.236200
       7A     -1.334144     8A     -1.161916     9A     -1.043780
      10A     -0.937660    11A     -0.821602    12A     -0.789273
      13A     -0.720874    14A     -0.617850    15A     -0.614898
      16A     -0.570448    17A     -0.561813    18A     -0.557319
      19A     -0.549816    20A     -0.431987    21A     -0.395500
      22A     -0.306727

  @DF-RHF Final Energy:  -263.94881958238858

   => Energetics <=

    Nuclear Repulsion Energy =            223.7682065052389078
    One-Electron Energy =                -800.2058615452910999
    Two-Electron Energy =                 312.4888354576635834
    Total Energy =                       -263.9488195823885803
  Basis Set: (AUG-CC-PVTZ AUX)
    Blend: AUG-CC-PVTZ-RI
    Molecular point group: c1

    Geometry (in Angstrom), charge = 0, multiplicity = 1:

       Center              X                  Y                   Z               Mass
    ------------   -----------------  -----------------  -----------------  -----------------
         N            0.105438212845    -1.054935298461     0.000599686349    14.003074004430
         N            1.473709212845     0.699692701539     0.000009686349    14.003074004430
         C           -0.714506787155     0.054518701539     0.000614686349    12.000000000000
         C           -2.202944787155    -0.030966298461     0.000641686349    12.000000000000
         C            0.162402212845     1.120529701539     0.000833686349    12.000000000000
         C            1.402451212845    -0.622712298461     0.001010686349    12.000000000000
         H           -0.203729787155    -2.019409298461     0.000614686349     1.007825032230
         H           -2.583248787155    -0.549867298461     0.887052686349     1.007825032230
         H           -2.621347787155     0.978159701539     0.000173686349     1.007825032230
         H           -2.583258787155    -0.550697298461    -0.885280313651     1.007825032230
         H           -0.087555087155     2.174018601539    -0.049099313651     1.007825032230
         H            2.243067212845    -1.304200298461     0.001151686349     1.007825032230

  Basis Set: AUG-CC-PVTZ
    Blend: AUG-CC-PVTZ
  Basis Set: (AUG-CC-PVTZ AUX)
    Blend: AUG-CC-PVTZ-JKFIT
	 Reference Energy          =    -263.9488195823885803 [Eh]
	 Singles Energy            =      -0.0000000000000000 [Eh]
	 Same-Spin Energy          =      -0.2867880173264231 [Eh]
	 Opposite-Spin Energy      =      -0.8969892181650441 [Eh]
	 Correlation Energy        =      -1.1837772354914673 [Eh]
	 Total Energy              =    -265.1325968178800281 [Eh]

	 ================> DF-SCS-MP2 Energies <==================
	-----------------------------------------------------------
	 SCS Same-Spin Scale       =       0.3333333333333333 [-]
	 SCS Opposite-Spin Scale   =       1.2000000000000000 [-]
	 SCS Same-Spin Energy      =      -0.0955960057754744 [Eh]
	 SCS Opposite-Spin Energy  =      -1.0763870617980529 [Eh]
	 SCS Correlation Energy    =      -1.1719830675735272 [Eh]
	 SCS Total Energy          =    -265.1208026499621155 [Eh]
	-----------------------------------------------------------

  Dipole Moment: [D]
     X:    -2.8029      Y:    -2.9931      Z:    -0.0366     Total:     4.1008

*** Psi4 exiting successfully. Buy a developer a beer!
