                               Psi4 1.3.2 release

  ==> Input File <==

--------------------------------------------------------------------------
#psi4
#
memory 32 gb

molecule  {
0 1
  C        0.8906310    -0.4594820    -0.0000050
  C        1.6569550     0.1328190    -1.1912600
  C        1.5155590     0.1881859     1.2438401
  C        3.1340990     0.0195060    -0.7766230
  C        3.1340970     0.0194780     0.7766250
  C       -0.5942150    -0.2116140    -0.0000020
  C       -1.4969670    -1.2829160    -0.0000100
  C       -1.1118120     1.0929450     0.0000090
  C       -2.8761960    -1.0641450    -0.0000080
  C       -2.4886110     1.3169940     0.0000100
  C       -3.3769130     0.2384400     0.0000020
  H        1.0572190    -1.5476170    -0.0000160
  H        1.3709970     1.1847810    -1.3110530
  H        1.4307960    -0.3756260    -2.1343410
  H        1.4307900    -0.3756630     2.1343350
  H        1.3710040     1.1847570     1.3110690
  H        3.7365840     0.8333760    -1.1915700
  H        3.5617080    -0.9139040    -1.1569620
  H        3.5616920    -0.9139530     1.1569300
  H        3.7365940     0.8333230     1.1916040
  H       -1.1121130    -2.3017550    -0.0000190
  H       -0.4349580     1.9454780     0.0000160
  H       -3.5585010    -1.9112830    -0.0000130
  H       -2.8698420     2.3358160     0.0000180
  H       -4.4501080     0.4133470     0.0000030
units angstrom
no_reorient  #important for SAPT in psi4, default
symmetry c1  #important for SAPT in psi4, default
}

set PROPERTIES_ORIGIN ["COM"]
properties('MP2/aug-cc-pvtz', properties = ['dipole'])
--------------------------------------------------------------------------

    Molecular point group: c1
  Charge       = 0
  Multiplicity = 1
  Basis Set: AUG-CC-PVTZ
    Blend: AUG-CC-PVTZ
  Basis Set: (AUG-CC-PVTZ AUX)
    Blend: AUG-CC-PVTZ-JKFIT

    Orbital Energies [Eh]
    ---------------------

    Doubly Occupied:

       1A    -11.235657     2A    -11.233270     3A    -11.232507
       4A    -11.229865     5A    -11.228210     6A    -11.228023
       7A    -11.227207     8A    -11.221042     9A    -11.217939
      10A    -11.216311    11A    -11.214933    12A     -1.154525
      13A     -1.111464    14A     -1.024352    15A     -1.008009
      16A     -0.958497    17A     -0.940661    18A     -0.834294
      19A     -0.816679    20A     -0.778319    21A     -0.762649
      22A     -0.694765    23A     -0.656675    24A     -0.640306
      25A     -0.618677    26A     -0.605358    27A     -0.591312
      28A     -0.580444    29A     -0.562767    30A     -0.521671
      31A     -0.515706    32A     -0.498314    33A     -0.479498
      34A     -0.474216    35A     -0.469538    36A     -0.461015
      37A     -0.454735    38A     -0.423319    39A     -0.332096
      40A     -0.316794

  @DF-RHF Final Energy:  -424.82528875820293

   => Energetics <=

    Nuclear Repulsion Energy =            580.1193130877168187
    One-Electron Energy =               -1724.3459651862106057
    Two-Electron Energy =                 719.4013633402907999
    Total Energy =                       -424.8252887582029871
  Basis Set: (AUG-CC-PVTZ AUX)
    Blend: AUG-CC-PVTZ-RI
    Molecular point group: c1

    Geometry (in Angstrom), charge = 0, multiplicity = 1:

       Center              X                  Y                   Z               Mass
    ------------   -----------------  -----------------  -----------------  -----------------
         C            0.962217726281    -0.461375565405    -0.004323254391    12.000000000000
         C            1.728541726281     0.130925434595    -1.195578254391    12.000000000000
         C            1.587145726281     0.186292334595     1.239521845609    12.000000000000
         C            3.205685726281     0.017612434595    -0.780941254391    12.000000000000
         C            3.205683726281     0.017584434595     0.772306745609    12.000000000000
         C           -0.522628273719    -0.213507565405    -0.004320254391    12.000000000000
         C           -1.425380273719    -1.284809565405    -0.004328254391    12.000000000000
         C           -1.040225273719     1.091051434595    -0.004309254391    12.000000000000
         C           -2.804609273719    -1.066038565405    -0.004326254391    12.000000000000
         C           -2.417024273719     1.315100434595    -0.004308254391    12.000000000000
         C           -3.305326273719     0.236546434595    -0.004316254391    12.000000000000
         H            1.128805726281    -1.549510565405    -0.004334254391     1.007825032230
         H            1.442583726281     1.182887434595    -1.315371254391     1.007825032230
         H            1.502382726281    -0.377519565405    -2.138659254391     1.007825032230
         H            1.502376726281    -0.377556565405     2.130016745609     1.007825032230
         H            1.442590726281     1.182863434595     1.306750745609     1.007825032230
         H            3.808170726281     0.831482434595    -1.195888254391     1.007825032230
         H            3.633294726281    -0.915797565405    -1.161280254391     1.007825032230
         H            3.633278726281    -0.915846565405     1.152611745609     1.007825032230
         H            3.808180726281     0.831429434595     1.187285745609     1.007825032230
         H           -1.040526273719    -2.303648565405    -0.004337254391     1.007825032230
         H           -0.363371273719     1.943584434595    -0.004302254391     1.007825032230
         H           -3.486914273719    -1.913176565405    -0.004331254391     1.007825032230
         H           -2.798255273719     2.333922434595    -0.004300254391     1.007825032230
         H           -4.378521273719     0.411453434595    -0.004315254391     1.007825032230

  Basis Set: AUG-CC-PVTZ
    Blend: AUG-CC-PVTZ
  Basis Set: (AUG-CC-PVTZ AUX)
    Blend: AUG-CC-PVTZ-JKFIT
	 Reference Energy          =    -424.8252887582029302 [Eh]
	 Singles Energy            =      -0.0000000000000000 [Eh]
	 Same-Spin Energy          =      -0.4754056533883840 [Eh]
	 Opposite-Spin Energy      =      -1.5712738056920650 [Eh]
	 Correlation Energy        =      -2.0466794590804489 [Eh]
	 Total Energy              =    -426.8719682172833814 [Eh]

	 ================> DF-SCS-MP2 Energies <==================
	-----------------------------------------------------------
	 SCS Same-Spin Scale       =       0.3333333333333333 [-]
	 SCS Opposite-Spin Scale   =       1.2000000000000000 [-]
	 SCS Same-Spin Energy      =      -0.1584685511294613 [Eh]
	 SCS Opposite-Spin Energy  =      -1.8855285668304780 [Eh]
	 SCS Correlation Energy    =      -2.0439971179599392 [Eh]
	 SCS Total Energy          =    -426.8692858761628486 [Eh]
	-----------------------------------------------------------

  Dipole Moment: [D]
     X:     0.5344      Y:    -0.0295      Z:    -0.0032     Total:     0.5353

*** Psi4 exiting successfully. Buy a developer a beer!
