                               Psi4 1.4a3.dev225

  ==> Input File <==

--------------------------------------------------------------------------
#psi4
#
memory 32 gb

molecule  {
0 1
  C        0.8906310    -0.4594820    -0.0000050
  C        1.6569550     0.1328190    -1.1912600
  C        1.6569550     0.1327950     1.1912610
  C        3.1340990     0.0195060    -0.7766230
  C        3.1340970     0.0194780     0.7766250
  C       -0.5448974    -0.2198467    -0.0000021
  C       -1.4969670    -1.2829160    -0.0000100
  C       -1.1118120     1.0929450     0.0000090
  C       -2.8761960    -1.0641450    -0.0000080
  C       -2.4886110     1.3169940     0.0000100
  C       -3.3769130     0.2384400     0.0000020
  H        1.0572190    -1.5476170    -0.0000160
  H        1.3709970     1.1847810    -1.3110530
  H        1.4307960    -0.3756260    -2.1343410
  H        1.4307900    -0.3756630     2.1343350
  H        1.3710040     1.1847570     1.3110690
  H        3.7365840     0.8333760    -1.1915700
  H        3.5617080    -0.9139040    -1.1569620
  H        3.5616920    -0.9139530     1.1569300
  H        3.7365940     0.8333230     1.1916040
  H       -1.1121130    -2.3017550    -0.0000190
  H       -0.4349580     1.9454780     0.0000160
  H       -3.5585010    -1.9112830    -0.0000130
  H       -2.8698420     2.3358160     0.0000180
  H       -4.4501080     0.4133470     0.0000030
units angstrom
no_reorient  #important for SAPT in psi4, default
symmetry c1  #important for SAPT in psi4, default
}

set PROPERTIES_ORIGIN ["COM"]
properties('MP2/aug-cc-pvtz', properties = ['dipole'])
--------------------------------------------------------------------------

    Molecular point group: c1
  Charge       = 0
  Multiplicity = 1
  Basis Set: AUG-CC-PVTZ
    Blend: AUG-CC-PVTZ
  Basis Set: (AUG-CC-PVTZ AUX)
    Blend: AUG-CC-PVTZ-JKFIT

    Orbital Energies [Eh]
    ---------------------

    Doubly Occupied:

       1A    -11.240906     2A    -11.233583     3A    -11.233100
       4A    -11.231606     5A    -11.231379     6A    -11.229720
       7A    -11.225789     8A    -11.218094     9A    -11.218065
      10A    -11.217381    11A    -11.216896    12A     -1.154995
      13A     -1.119439    14A     -1.030108    15A     -1.006146
      16A     -0.962462    17A     -0.944068    18A     -0.834151
      19A     -0.815867    20A     -0.774297    21A     -0.762104
      22A     -0.694813    23A     -0.657034    24A     -0.649557
      25A     -0.618889    26A     -0.608294    27A     -0.577427
      28A     -0.574488    29A     -0.563160    30A     -0.524816
      31A     -0.511975    32A     -0.489951    33A     -0.480224
      34A     -0.477719    35A     -0.470252    36A     -0.461577
      37A     -0.454040    38A     -0.450622    39A     -0.331681
      40A     -0.314694

  @DF-RHF Final Energy:  -424.84157987180203

   => Energetics <=

    Nuclear Repulsion Energy =            580.7482547267089785
    One-Electron Energy =               -1725.5569307713121816
    Two-Electron Energy =                 719.9670961728011207
    Total Energy =                       -424.8415798718019687
  Basis Set: (AUG-CC-PVTZ AUX)
    Blend: AUG-CC-PVTZ-RI
    Molecular point group: c1

    Geometry (in Angstrom), charge = 0, multiplicity = 1:

       Center              X                  Y                   Z               Mass
    ------------   -----------------  -----------------  -----------------  -----------------
         C            0.946554388786    -0.456150149287    -0.000004916555    12.000000000000
         C            1.712878388786     0.136150850713    -1.191259916555    12.000000000000
         C            1.712878388786     0.136126850713     1.191261083445    12.000000000000
         C            3.190022388786     0.022837850713    -0.776622916555    12.000000000000
         C            3.190020388786     0.022809850713     0.776625083445    12.000000000000
         C           -0.488974011214    -0.216514849287    -0.000002016555    12.000000000000
         C           -1.441043611214    -1.279584149287    -0.000009916555    12.000000000000
         C           -1.055888611214     1.096276850713     0.000009083445    12.000000000000
         C           -2.820272611214    -1.060813149287    -0.000007916555    12.000000000000
         C           -2.432687611214     1.320325850713     0.000010083445    12.000000000000
         C           -3.320989611214     0.241771850713     0.000002083445    12.000000000000
         H            1.113142388786    -1.544285149287    -0.000015916555     1.007825032230
         H            1.426920388786     1.188112850713    -1.311052916555     1.007825032230
         H            1.486719388786    -0.372294149287    -2.134340916555     1.007825032230
         H            1.486713388786    -0.372331149287     2.134335083445     1.007825032230
         H            1.426927388786     1.188088850713     1.311069083445     1.007825032230
         H            3.792507388786     0.836707850713    -1.191569916555     1.007825032230
         H            3.617631388786    -0.910572149287    -1.156961916555     1.007825032230
         H            3.617615388786    -0.910621149287     1.156930083445     1.007825032230
         H            3.792517388786     0.836654850713     1.191604083445     1.007825032230
         H           -1.056189611214    -2.298423149287    -0.000018916555     1.007825032230
         H           -0.379034611214     1.948809850713     0.000016083445     1.007825032230
         H           -3.502577611214    -1.907951149287    -0.000012916555     1.007825032230
         H           -2.813918611214     2.339147850713     0.000018083445     1.007825032230
         H           -4.394184611214     0.416678850713     0.000003083445     1.007825032230

  Basis Set: AUG-CC-PVTZ
    Blend: AUG-CC-PVTZ
  Basis Set: (AUG-CC-PVTZ AUX)
    Blend: AUG-CC-PVTZ-JKFIT
	 Reference Energy          =    -424.8415798718020255 [Eh]
	 Singles Energy            =      -0.0000000000000000 [Eh]
	 Same-Spin Energy          =      -0.4759738545407502 [Eh]
	 Opposite-Spin Energy      =      -1.5711769440895402 [Eh]
	 Correlation Energy        =      -2.0471507986302906 [Eh]
	 Total Energy              =    -426.8887306704323237 [Eh]

	 ================> DF-SCS-MP2 Energies <==================
	-----------------------------------------------------------
	 SCS Same-Spin Scale       =       0.3333333333333333 [-]
	 SCS Opposite-Spin Scale   =       1.2000000000000000 [-]
	 SCS Same-Spin Energy      =      -0.1586579515135834 [Eh]
	 SCS Opposite-Spin Energy  =      -1.8854123329074481 [Eh]
	 SCS Correlation Energy    =      -2.0440702844210317 [Eh]
	 SCS Total Energy          =    -426.8856501562230505 [Eh]
	-----------------------------------------------------------

  Dipole Moment: [D]
     X:     0.5716      Y:    -0.0296      Z:    -0.0000     Total:     0.5724

*** Psi4 exiting successfully. Buy a developer a beer!
