                               Psi4 1.3.2 release

  ==> Input File <==

--------------------------------------------------------------------------
#psi4
#
memory 32 gb

molecule  {
0 1
  C        0.8906310    -0.4594820    -0.0000050
  C        1.6569550     0.1328190    -1.1912600
  C        1.7022952     0.1128573     1.1708016
  C        3.1340990     0.0195060    -0.7766230
  C        3.1340970     0.0194780     0.7766250
  C       -0.5942150    -0.2116140    -0.0000020
  C       -1.4969670    -1.2829160    -0.0000100
  C       -1.1118120     1.0929450     0.0000090
  C       -2.8761960    -1.0641450    -0.0000080
  C       -2.4886110     1.3169940     0.0000100
  C       -3.3769130     0.2384400     0.0000020
  H        1.0572190    -1.5476170    -0.0000160
  H        1.3709970     1.1847810    -1.3110530
  H        1.4307960    -0.3756260    -2.1343410
  H        1.4307900    -0.3756630     2.1343350
  H        1.3710040     1.1847570     1.3110690
  H        3.7365840     0.8333760    -1.1915700
  H        3.5617080    -0.9139040    -1.1569620
  H        3.5616920    -0.9139530     1.1569300
  H        3.7365940     0.8333230     1.1916040
  H       -1.1121130    -2.3017550    -0.0000190
  H       -0.4349580     1.9454780     0.0000160
  H       -3.5585010    -1.9112830    -0.0000130
  H       -2.8698420     2.3358160     0.0000180
  H       -4.4501080     0.4133470     0.0000030
units angstrom
no_reorient  #important for SAPT in psi4, default
symmetry c1  #important for SAPT in psi4, default
}

set PROPERTIES_ORIGIN ["COM"]
properties('MP2/aug-cc-pvtz', properties = ['dipole'])
--------------------------------------------------------------------------

    Molecular point group: c1
  Charge       = 0
  Multiplicity = 1
  Basis Set: AUG-CC-PVTZ
    Blend: AUG-CC-PVTZ
  Basis Set: (AUG-CC-PVTZ AUX)
    Blend: AUG-CC-PVTZ-JKFIT

    Orbital Energies [Eh]
    ---------------------

    Doubly Occupied:

       1A    -11.237968     2A    -11.233854     3A    -11.233420
       4A    -11.230103     5A    -11.229583     6A    -11.229466
       7A    -11.227241     8A    -11.218850     9A    -11.216953
      10A    -11.216215    11A    -11.214510    12A     -1.156643
      13A     -1.122958    14A     -1.028896    15A     -1.009079
      16A     -0.964227    17A     -0.944220    18A     -0.831308
      19A     -0.817168    20A     -0.772770    21A     -0.760014
      22A     -0.696217    23A     -0.655019    24A     -0.646864
      25A     -0.620681    26A     -0.611245    27A     -0.581866
      28A     -0.570410    29A     -0.561091    30A     -0.528612
      31A     -0.512446    32A     -0.492463    33A     -0.483839
      34A     -0.471380    35A     -0.468400    36A     -0.459283
      37A     -0.454153    38A     -0.444502    39A     -0.332795
      40A     -0.320554

  @DF-RHF Final Energy:  -424.84282736246394

   => Energetics <=

    Nuclear Repulsion Energy =            581.0474569922050705
    One-Electron Energy =               -1726.1660324622116605
    Two-Electron Energy =                 720.2757481075426540
    Total Energy =                       -424.8428273624639360
  Basis Set: (AUG-CC-PVTZ AUX)
    Blend: AUG-CC-PVTZ-RI
    Molecular point group: c1

    Geometry (in Angstrom), charge = 0, multiplicity = 1:

       Center              X                  Y                   Z               Mass
    ------------   -----------------  -----------------  -----------------  -----------------
         C            0.946881053264    -0.455188815825     0.001675408922    12.000000000000
         C            1.713205053264     0.137112184175    -1.189579591078    12.000000000000
         C            1.758545253264     0.117150484175     1.172482008922    12.000000000000
         C            3.190349053264     0.023799184175    -0.774942591078    12.000000000000
         C            3.190347053264     0.023771184175     0.778305408922    12.000000000000
         C           -0.537964946736    -0.207320815825     0.001678408922    12.000000000000
         C           -1.440716946736    -1.278622815825     0.001670408922    12.000000000000
         C           -1.055561946736     1.097238184175     0.001689408922    12.000000000000
         C           -2.819945946736    -1.059851815825     0.001672408922    12.000000000000
         C           -2.432360946736     1.321287184175     0.001690408922    12.000000000000
         C           -3.320662946736     0.242733184175     0.001682408922    12.000000000000
         H            1.113469053264    -1.543323815825     0.001664408922     1.007825032230
         H            1.427247053264     1.189074184175    -1.309372591078     1.007825032230
         H            1.487046053264    -0.371332815825    -2.132660591078     1.007825032230
         H            1.487040053264    -0.371369815825     2.136015408922     1.007825032230
         H            1.427254053264     1.189050184175     1.312749408922     1.007825032230
         H            3.792834053264     0.837669184175    -1.189889591078     1.007825032230
         H            3.617958053264    -0.909610815825    -1.155281591078     1.007825032230
         H            3.617942053264    -0.909659815825     1.158610408922     1.007825032230
         H            3.792844053264     0.837616184175     1.193284408922     1.007825032230
         H           -1.055862946736    -2.297461815825     0.001661408922     1.007825032230
         H           -0.378707946736     1.949771184175     0.001696408922     1.007825032230
         H           -3.502250946736    -1.906989815825     0.001667408922     1.007825032230
         H           -2.813591946736     2.340109184175     0.001698408922     1.007825032230
         H           -4.393857946736     0.417640184175     0.001683408922     1.007825032230

  Basis Set: AUG-CC-PVTZ
    Blend: AUG-CC-PVTZ
  Basis Set: (AUG-CC-PVTZ AUX)
    Blend: AUG-CC-PVTZ-JKFIT
	 Reference Energy          =    -424.8428273624639360 [Eh]
	 Singles Energy            =      -0.0000000000000000 [Eh]
	 Same-Spin Energy          =      -0.4756616428041157 [Eh]
	 Opposite-Spin Energy      =      -1.5703062358343605 [Eh]
	 Correlation Energy        =      -2.0459678786384763 [Eh]
	 Total Energy              =    -426.8887952411024003 [Eh]

	 ================> DF-SCS-MP2 Energies <==================
	-----------------------------------------------------------
	 SCS Same-Spin Scale       =       0.3333333333333333 [-]
	 SCS Opposite-Spin Scale   =       1.2000000000000000 [-]
	 SCS Same-Spin Energy      =      -0.1585538809347052 [Eh]
	 SCS Opposite-Spin Energy  =      -1.8843674830012325 [Eh]
	 SCS Correlation Energy    =      -2.0429213639359376 [Eh]
	 SCS Total Energy          =    -426.8857487263998678 [Eh]
	-----------------------------------------------------------

  Dipole Moment: [D]
     X:     0.4614      Y:    -0.0416      Z:    -0.0111     Total:     0.4634

*** Psi4 exiting successfully. Buy a developer a beer!
