                               Psi4 1.3.2 release

  ==> Input File <==

--------------------------------------------------------------------------
#psi4
#
memory 32 gb

molecule  {
0 1
  C        0.8906310    -0.4594820    -0.0000050
  C        1.6569550     0.1328190    -1.1912600
  C        1.7567820     0.2099493     1.3464441
  C        3.1340990     0.0195060    -0.7766230
  C        3.1340970     0.0194780     0.7766250
  C       -0.5942150    -0.2116140    -0.0000020
  C       -1.4969670    -1.2829160    -0.0000100
  C       -1.1118120     1.0929450     0.0000090
  C       -2.8761960    -1.0641450    -0.0000080
  C       -2.4886110     1.3169940     0.0000100
  C       -3.3769130     0.2384400     0.0000020
  H        1.0572190    -1.5476170    -0.0000160
  H        1.3709970     1.1847810    -1.3110530
  H        1.4307960    -0.3756260    -2.1343410
  H        1.4307900    -0.3756630     2.1343350
  H        1.3710040     1.1847570     1.3110690
  H        3.7365840     0.8333760    -1.1915700
  H        3.5617080    -0.9139040    -1.1569620
  H        3.5616920    -0.9139530     1.1569300
  H        3.7365940     0.8333230     1.1916040
  H       -1.1121130    -2.3017550    -0.0000190
  H       -0.4349580     1.9454780     0.0000160
  H       -3.5585010    -1.9112830    -0.0000130
  H       -2.8698420     2.3358160     0.0000180
  H       -4.4501080     0.4133470     0.0000030
units angstrom
no_reorient  #important for SAPT in psi4, default
symmetry c1  #important for SAPT in psi4, default
}

set PROPERTIES_ORIGIN ["COM"]
properties('MP2/aug-cc-pvtz', properties = ['dipole'])
--------------------------------------------------------------------------

    Molecular point group: c1
  Charge       = 0
  Multiplicity = 1
  Basis Set: AUG-CC-PVTZ
    Blend: AUG-CC-PVTZ
  Basis Set: (AUG-CC-PVTZ AUX)
    Blend: AUG-CC-PVTZ-JKFIT

    Orbital Energies [Eh]
    ---------------------

    Doubly Occupied:

       1A    -11.236442     2A    -11.233178     3A    -11.232917
       4A    -11.232615     5A    -11.228681     6A    -11.228273
       7A    -11.227784     8A    -11.218900     9A    -11.218110
      10A    -11.217315    11A    -11.216981    12A     -1.151211
      13A     -1.109783    14A     -1.026678    15A     -1.008038
      16A     -0.970613    17A     -0.933626    18A     -0.833004
      19A     -0.816869    20A     -0.777634    21A     -0.760755
      22A     -0.692475    23A     -0.656662    24A     -0.640052
      25A     -0.621689    26A     -0.607379    27A     -0.584636
      28A     -0.581077    29A     -0.561233    30A     -0.526040
      31A     -0.509629    32A     -0.497724    33A     -0.494214
      34A     -0.475109    35A     -0.473679    36A     -0.460175
      37A     -0.453835    38A     -0.410173    39A     -0.332124
      40A     -0.313295

  @DF-RHF Final Energy:  -424.81886492591781

   => Energetics <=

    Nuclear Repulsion Energy =            577.7125895514570857
    One-Electron Energy =               -1719.5216963390316778
    Two-Electron Energy =                 716.9902418616568411
    Total Energy =                       -424.8188649259177510
  Basis Set: (AUG-CC-PVTZ AUX)
    Blend: AUG-CC-PVTZ-RI
    Molecular point group: c1

    Geometry (in Angstrom), charge = 0, multiplicity = 1:

       Center              X                  Y                   Z               Mass
    ------------   -----------------  -----------------  -----------------  -----------------
         C            0.942406043944    -0.463162996817    -0.012750136797    12.000000000000
         C            1.708730043944     0.129138003183    -1.204005136797    12.000000000000
         C            1.808557043944     0.206268303183     1.333698963203    12.000000000000
         C            3.185874043944     0.015825003183    -0.789368136797    12.000000000000
         C            3.185872043944     0.015797003183     0.763879863203    12.000000000000
         C           -0.542439956056    -0.215294996817    -0.012747136797    12.000000000000
         C           -1.445191956056    -1.286596996817    -0.012755136797    12.000000000000
         C           -1.060036956056     1.089264003183    -0.012736136797    12.000000000000
         C           -2.824420956056    -1.067825996817    -0.012753136797    12.000000000000
         C           -2.436835956056     1.313313003183    -0.012735136797    12.000000000000
         C           -3.325137956056     0.234759003183    -0.012743136797    12.000000000000
         H            1.108994043944    -1.551297996817    -0.012761136797     1.007825032230
         H            1.422772043944     1.181100003183    -1.323798136797     1.007825032230
         H            1.482571043944    -0.379306996817    -2.147086136797     1.007825032230
         H            1.482565043944    -0.379343996817     2.121589863203     1.007825032230
         H            1.422779043944     1.181076003183     1.298323863203     1.007825032230
         H            3.788359043944     0.829695003183    -1.204315136797     1.007825032230
         H            3.613483043944    -0.917584996817    -1.169707136797     1.007825032230
         H            3.613467043944    -0.917633996817     1.144184863203     1.007825032230
         H            3.788369043944     0.829642003183     1.178858863203     1.007825032230
         H           -1.060337956056    -2.305435996817    -0.012764136797     1.007825032230
         H           -0.383182956056     1.941797003183    -0.012729136797     1.007825032230
         H           -3.506725956056    -1.914963996817    -0.012758136797     1.007825032230
         H           -2.818066956056     2.332135003183    -0.012727136797     1.007825032230
         H           -4.398332956056     0.409666003183    -0.012742136797     1.007825032230

  Basis Set: AUG-CC-PVTZ
    Blend: AUG-CC-PVTZ
  Basis Set: (AUG-CC-PVTZ AUX)
    Blend: AUG-CC-PVTZ-JKFIT
	 Reference Energy          =    -424.8188649259178078 [Eh]
	 Singles Energy            =      -0.0000000000000000 [Eh]
	 Same-Spin Energy          =      -0.4759553871648101 [Eh]
	 Opposite-Spin Energy      =      -1.5720649154557294 [Eh]
	 Correlation Energy        =      -2.0480203026205395 [Eh]
	 Total Energy              =    -426.8668852285383650 [Eh]

	 ================> DF-SCS-MP2 Energies <==================
	-----------------------------------------------------------
	 SCS Same-Spin Scale       =       0.3333333333333333 [-]
	 SCS Opposite-Spin Scale   =       1.2000000000000000 [-]
	 SCS Same-Spin Energy      =      -0.1586517957216034 [Eh]
	 SCS Opposite-Spin Energy  =      -1.8864778985468751 [Eh]
	 SCS Correlation Energy    =      -2.0451296942684785 [Eh]
	 SCS Total Energy          =    -426.8639946201863040 [Eh]
	-----------------------------------------------------------

  Dipole Moment: [D]
     X:     0.4975      Y:    -0.0708      Z:    -0.0428     Total:     0.5043

*** Psi4 exiting successfully. Buy a developer a beer!
