                               Psi4 1.3.2 release

  ==> Input File <==

--------------------------------------------------------------------------
#psi4
#
memory 32 gb

molecule  {
0 1
  C        0.8860790    -0.4853584    -0.0000052
  C        1.6569550     0.1328190    -1.1912600
  C        1.6569550     0.1327950     1.1912610
  C        3.1340990     0.0195060    -0.7766230
  C        3.1340970     0.0194780     0.7766250
  C       -0.5942150    -0.2116140    -0.0000020
  C       -1.4969670    -1.2829160    -0.0000100
  C       -1.1118120     1.0929450     0.0000090
  C       -2.8761960    -1.0641450    -0.0000080
  C       -2.4886110     1.3169940     0.0000100
  C       -3.3769130     0.2384400     0.0000020
  H        1.0572190    -1.5476170    -0.0000160
  H        1.3709970     1.1847810    -1.3110530
  H        1.4307960    -0.3756260    -2.1343410
  H        1.4307900    -0.3756630     2.1343350
  H        1.3710040     1.1847570     1.3110690
  H        3.7365840     0.8333760    -1.1915700
  H        3.5617080    -0.9139040    -1.1569620
  H        3.5616920    -0.9139530     1.1569300
  H        3.7365940     0.8333230     1.1916040
  H       -1.1121130    -2.3017550    -0.0000190
  H       -0.4349580     1.9454780     0.0000160
  H       -3.5585010    -1.9112830    -0.0000130
  H       -2.8698420     2.3358160     0.0000180
  H       -4.4501080     0.4133470     0.0000030
units angstrom
no_reorient  #important for SAPT in psi4, default
symmetry c1  #important for SAPT in psi4, default
}

set PROPERTIES_ORIGIN ["COM"]
properties('MP2/aug-cc-pvtz', properties = ['dipole'])
--------------------------------------------------------------------------

    Molecular point group: c1
  Charge       = 0
  Multiplicity = 1
  Basis Set: AUG-CC-PVTZ
    Blend: AUG-CC-PVTZ
  Basis Set: (AUG-CC-PVTZ AUX)
    Blend: AUG-CC-PVTZ-JKFIT

    Orbital Energies [Eh]
    ---------------------

    Doubly Occupied:

       1A    -11.237274     2A    -11.233745     3A    -11.232933
       4A    -11.229418     5A    -11.229254     6A    -11.228352
       7A    -11.226573     8A    -11.217222     9A    -11.217194
      10A    -11.216473    11A    -11.215980    12A     -1.155104
      13A     -1.117608    14A     -1.027278    15A     -1.008649
      16A     -0.959891    17A     -0.943473    18A     -0.832620
      19A     -0.816337    20A     -0.771729    21A     -0.764495
      22A     -0.695823    23A     -0.653970    24A     -0.644085
      25A     -0.620358    26A     -0.609333    27A     -0.581577
      28A     -0.573206    29A     -0.564560    30A     -0.524262
      31A     -0.511218    32A     -0.493791    33A     -0.477698
      34A     -0.472456    35A     -0.467812    36A     -0.457896
      37A     -0.453990    38A     -0.453144    39A     -0.332517
      40A     -0.318984

  @DF-RHF Final Energy:  -424.84583733244244

   => Energetics <=

    Nuclear Repulsion Energy =            580.5295938277113237
    One-Electron Energy =               -1725.1743005767330033
    Two-Electron Energy =                 719.7988694165792367
    Total Energy =                       -424.8458373324424429
  Basis Set: (AUG-CC-PVTZ AUX)
    Blend: AUG-CC-PVTZ-RI
    Molecular point group: c1

    Geometry (in Angstrom), charge = 0, multiplicity = 1:

       Center              X                  Y                   Z               Mass
    ------------   -----------------  -----------------  -----------------  -----------------
         C            0.946426707374    -0.480577469474    -0.000005108342    12.000000000000
         C            1.717302707374     0.137599930526    -1.191259908342    12.000000000000
         C            1.717302707374     0.137575930526     1.191261091658    12.000000000000
         C            3.194446707374     0.024286930526    -0.776622908342    12.000000000000
         C            3.194444707374     0.024258930526     0.776625091658    12.000000000000
         C           -0.533867292626    -0.206833069474    -0.000001908342    12.000000000000
         C           -1.436619292626    -1.278135069474    -0.000009908342    12.000000000000
         C           -1.051464292626     1.097725930526     0.000009091658    12.000000000000
         C           -2.815848292626    -1.059364069474    -0.000007908342    12.000000000000
         C           -2.428263292626     1.321774930526     0.000010091658    12.000000000000
         C           -3.316565292626     0.243220930526     0.000002091658    12.000000000000
         H            1.117566707374    -1.542836069474    -0.000015908342     1.007825032230
         H            1.431344707374     1.189561930526    -1.311052908342     1.007825032230
         H            1.491143707374    -0.370845069474    -2.134340908342     1.007825032230
         H            1.491137707374    -0.370882069474     2.134335091658     1.007825032230
         H            1.431351707374     1.189537930526     1.311069091658     1.007825032230
         H            3.796931707374     0.838156930526    -1.191569908342     1.007825032230
         H            3.622055707374    -0.909123069474    -1.156961908342     1.007825032230
         H            3.622039707374    -0.909172069474     1.156930091658     1.007825032230
         H            3.796941707374     0.838103930526     1.191604091658     1.007825032230
         H           -1.051765292626    -2.296974069474    -0.000018908342     1.007825032230
         H           -0.374610292626     1.950258930526     0.000016091658     1.007825032230
         H           -3.498153292626    -1.906502069474    -0.000012908342     1.007825032230
         H           -2.809494292626     2.340596930526     0.000018091658     1.007825032230
         H           -4.389760292626     0.418127930526     0.000003091658     1.007825032230

  Basis Set: AUG-CC-PVTZ
    Blend: AUG-CC-PVTZ
  Basis Set: (AUG-CC-PVTZ AUX)
    Blend: AUG-CC-PVTZ-JKFIT
	 Reference Energy          =    -424.8458373324424429 [Eh]
	 Singles Energy            =      -0.0000000000000000 [Eh]
	 Same-Spin Energy          =      -0.4751350092694439 [Eh]
	 Opposite-Spin Energy      =      -1.5698324710521045 [Eh]
	 Correlation Energy        =      -2.0449674803215485 [Eh]
	 Total Energy              =    -426.8908048127639745 [Eh]

	 ================> DF-SCS-MP2 Energies <==================
	-----------------------------------------------------------
	 SCS Same-Spin Scale       =       0.3333333333333333 [-]
	 SCS Opposite-Spin Scale   =       1.2000000000000000 [-]
	 SCS Same-Spin Energy      =      -0.1583783364231480 [Eh]
	 SCS Opposite-Spin Energy  =      -1.8837989652625253 [Eh]
	 SCS Correlation Energy    =      -2.0421773016856735 [Eh]
	 SCS Total Energy          =    -426.8880146341281261 [Eh]
	-----------------------------------------------------------

  Dipole Moment: [D]
     X:     0.4855      Y:    -0.0485      Z:    -0.0000     Total:     0.4879

*** Psi4 exiting successfully. Buy a developer a beer!
