                               Psi4 1.3.2 release

  ==> Input File <==

--------------------------------------------------------------------------
#psi4
#
memory 32 gb

molecule  {
0 1
  C        0.8906310    -0.4594820    -0.0000050
  C        1.6569550     0.1328190    -1.1912600
  C        1.6569550     0.1327950     1.1912610
  C        3.1340990     0.0195060    -0.7766230
  C        3.1340970     0.0194780     0.7766250
  C       -0.3969447    -0.2445447    -0.0000024
  C       -1.4969670    -1.2829160    -0.0000100
  C       -1.1118120     1.0929450     0.0000090
  C       -2.8761960    -1.0641450    -0.0000080
  C       -2.4886110     1.3169940     0.0000100
  C       -3.3769130     0.2384400     0.0000020
  H        1.0572190    -1.5476170    -0.0000160
  H        1.3709970     1.1847810    -1.3110530
  H        1.4307960    -0.3756260    -2.1343410
  H        1.4307900    -0.3756630     2.1343350
  H        1.3710040     1.1847570     1.3110690
  H        3.7365840     0.8333760    -1.1915700
  H        3.5617080    -0.9139040    -1.1569620
  H        3.5616920    -0.9139530     1.1569300
  H        3.7365940     0.8333230     1.1916040
  H       -1.1121130    -2.3017550    -0.0000190
  H       -0.4349580     1.9454780     0.0000160
  H       -3.5585010    -1.9112830    -0.0000130
  H       -2.8698420     2.3358160     0.0000180
  H       -4.4501080     0.4133470     0.0000030
units angstrom
no_reorient  #important for SAPT in psi4, default
symmetry c1  #important for SAPT in psi4, default
}

set PROPERTIES_ORIGIN ["COM"]
properties('MP2/aug-cc-pvtz', properties = ['dipole'])
--------------------------------------------------------------------------

    Molecular point group: c1
  Charge       = 0
  Multiplicity = 1
  Basis Set: AUG-CC-PVTZ
    Blend: AUG-CC-PVTZ
  Basis Set: (AUG-CC-PVTZ AUX)
    Blend: AUG-CC-PVTZ-JKFIT

    Orbital Energies [Eh]
    ---------------------

    Doubly Occupied:

       1A    -11.252377     2A    -11.238948     3A    -11.238889
       4A    -11.232476     5A    -11.231922     6A    -11.228692
       7A    -11.223761     8A    -11.223731     9A    -11.220636
      10A    -11.220086    11A    -11.219016    12A     -1.165563
      13A     -1.116265    14A     -1.044166    15A     -0.999439
      16A     -0.967651    17A     -0.940050    18A     -0.847981
      19A     -0.808813    20A     -0.779747    21A     -0.759784
      22A     -0.694308    23A     -0.666368    24A     -0.660479
      25A     -0.618595    26A     -0.602377    27A     -0.580258
      28A     -0.569489    29A     -0.561972    30A     -0.523758
      31A     -0.517397    32A     -0.501767    33A     -0.487103
      34A     -0.484332    35A     -0.474780    36A     -0.461667
      37A     -0.457629    38A     -0.427913    39A     -0.329038
      40A     -0.296087

  @DF-RHF Final Energy:  -424.78259515953931

   => Energetics <=

    Nuclear Repulsion Energy =            581.0340413544012108
    One-Electron Energy =               -1725.8826558778437175
    Two-Electron Energy =                 720.0660193639030240
    Total Energy =                       -424.7825951595393690
  Basis Set: (AUG-CC-PVTZ AUX)
    Blend: AUG-CC-PVTZ-RI
    Molecular point group: c1

    Geometry (in Angstrom), charge = 0, multiplicity = 1:

       Center              X                  Y                   Z               Mass
    ------------   -----------------  -----------------  -----------------  -----------------
         C            0.934403010628    -0.454121698723    -0.000004891916    12.000000000000
         C            1.700727010628     0.138179301277    -1.191259891916    12.000000000000
         C            1.700727010628     0.138155301277     1.191261108084    12.000000000000
         C            3.177871010628     0.024866301277    -0.776622891916    12.000000000000
         C            3.177869010628     0.024838301277     0.776625108084    12.000000000000
         C           -0.353172689372    -0.239184398723    -0.000002291916    12.000000000000
         C           -1.453194989372    -1.277555698723    -0.000009891916    12.000000000000
         C           -1.068039989372     1.098305301277     0.000009108084    12.000000000000
         C           -2.832423989372    -1.058784698723    -0.000007891916    12.000000000000
         C           -2.444838989372     1.322354301277     0.000010108084    12.000000000000
         C           -3.333140989372     0.243800301277     0.000002108084    12.000000000000
         H            1.100991010628    -1.542256698723    -0.000015891916     1.007825032230
         H            1.414769010628     1.190141301277    -1.311052891916     1.007825032230
         H            1.474568010628    -0.370265698723    -2.134340891916     1.007825032230
         H            1.474562010628    -0.370302698723     2.134335108084     1.007825032230
         H            1.414776010628     1.190117301277     1.311069108084     1.007825032230
         H            3.780356010628     0.838736301277    -1.191569891916     1.007825032230
         H            3.605480010628    -0.908543698723    -1.156961891916     1.007825032230
         H            3.605464010628    -0.908592698723     1.156930108084     1.007825032230
         H            3.780366010628     0.838683301277     1.191604108084     1.007825032230
         H           -1.068340989372    -2.296394698723    -0.000018891916     1.007825032230
         H           -0.391185989372     1.950838301277     0.000016108084     1.007825032230
         H           -3.514728989372    -1.905922698723    -0.000012891916     1.007825032230
         H           -2.826069989372     2.341176301277     0.000018108084     1.007825032230
         H           -4.406335989372     0.418707301277     0.000003108084     1.007825032230

  Basis Set: AUG-CC-PVTZ
    Blend: AUG-CC-PVTZ
  Basis Set: (AUG-CC-PVTZ AUX)
    Blend: AUG-CC-PVTZ-JKFIT
	 Reference Energy          =    -424.7825951595393121 [Eh]
	 Singles Energy            =      -0.0000000000000000 [Eh]
	 Same-Spin Energy          =      -0.4801191708187859 [Eh]
	 Opposite-Spin Energy      =      -1.5780018411162477 [Eh]
	 Correlation Energy        =      -2.0581210119350337 [Eh]
	 Total Energy              =    -426.8407161714743552 [Eh]

	 ================> DF-SCS-MP2 Energies <==================
	-----------------------------------------------------------
	 SCS Same-Spin Scale       =       0.3333333333333333 [-]
	 SCS Opposite-Spin Scale   =       1.2000000000000000 [-]
	 SCS Same-Spin Energy      =      -0.1600397236062620 [Eh]
	 SCS Opposite-Spin Energy  =      -1.8936022093394973 [Eh]
	 SCS Correlation Energy    =      -2.0536419329457591 [Eh]
	 SCS Total Energy          =    -426.8362370924850779 [Eh]
	-----------------------------------------------------------

  Dipole Moment: [D]
     X:     0.9769      Y:    -0.0131      Z:    -0.0000     Total:     0.9770

*** Psi4 exiting successfully. Buy a developer a beer!
