                               Psi4 1.3.2 release

  ==> Input File <==

--------------------------------------------------------------------------
#psi4
#
memory 32 gb

molecule  {
0 1
  C        0.8906310    -0.4594820    -0.0000050
  C        1.6403885     0.1200150    -1.2079819
  C        1.6569550     0.1327950     1.1912610
  C        3.1340990     0.0195060    -0.7766230
  C        3.1340970     0.0194780     0.7766250
  C       -0.5942150    -0.2116140    -0.0000020
  C       -1.4969670    -1.2829160    -0.0000100
  C       -1.1118120     1.0929450     0.0000090
  C       -2.8761960    -1.0641450    -0.0000080
  C       -2.4886110     1.3169940     0.0000100
  C       -3.3769130     0.2384400     0.0000020
  H        1.0572190    -1.5476170    -0.0000160
  H        1.3709970     1.1847810    -1.3110530
  H        1.4307960    -0.3756260    -2.1343410
  H        1.4307900    -0.3756630     2.1343350
  H        1.3710040     1.1847570     1.3110690
  H        3.7365840     0.8333760    -1.1915700
  H        3.5617080    -0.9139040    -1.1569620
  H        3.5616920    -0.9139530     1.1569300
  H        3.7365940     0.8333230     1.1916040
  H       -1.1121130    -2.3017550    -0.0000190
  H       -0.4349580     1.9454780     0.0000160
  H       -3.5585010    -1.9112830    -0.0000130
  H       -2.8698420     2.3358160     0.0000180
  H       -4.4501080     0.4133470     0.0000030
units angstrom
no_reorient  #important for SAPT in psi4, default
symmetry c1  #important for SAPT in psi4, default
}

set PROPERTIES_ORIGIN ["COM"]
properties('MP2/aug-cc-pvtz', properties = ['dipole'])
--------------------------------------------------------------------------

    Molecular point group: c1
  Charge       = 0
  Multiplicity = 1
  Basis Set: AUG-CC-PVTZ
    Blend: AUG-CC-PVTZ
  Basis Set: (AUG-CC-PVTZ AUX)
    Blend: AUG-CC-PVTZ-JKFIT

    Orbital Energies [Eh]
    ---------------------

    Doubly Occupied:

       1A    -11.236933     2A    -11.233527     3A    -11.232995
       4A    -11.229407     5A    -11.228930     6A    -11.228641
       7A    -11.227631     8A    -11.217431     9A    -11.217093
      10A    -11.216441    11A    -11.216134    12A     -1.155336
      13A     -1.117679    14A     -1.026670    15A     -1.008590
      16A     -0.960814    17A     -0.943872    18A     -0.831636
      19A     -0.816894    20A     -0.773523    21A     -0.762191
      22A     -0.695318    23A     -0.656739    24A     -0.644318
      25A     -0.619549    26A     -0.608821    27A     -0.581364
      28A     -0.572923    29A     -0.562112    30A     -0.523808
      31A     -0.513215    32A     -0.492991    33A     -0.481812
      34A     -0.472647    35A     -0.464455    36A     -0.460822
      37A     -0.452424    38A     -0.451303    39A     -0.332440
      40A     -0.319610

  @DF-RHF Final Energy:  -424.84572830044652

   => Energetics <=

    Nuclear Repulsion Energy =            580.5690118337004151
    One-Electron Energy =               -1725.2514078261490340
    Two-Electron Energy =                 719.8366676920021519
    Total Energy =                       -424.8457283004464671
  Basis Set: (AUG-CC-PVTZ AUX)
    Blend: AUG-CC-PVTZ-RI
    Molecular point group: c1

    Geometry (in Angstrom), charge = 0, multiplicity = 1:

       Center              X                  Y                   Z               Mass
    ------------   -----------------  -----------------  -----------------  -----------------
         C            0.951965460119    -0.455774707710     0.001368447468    12.000000000000
         C            1.701722960119     0.123722292290    -1.206608452532    12.000000000000
         C            1.718289460119     0.136502292290     1.192634447468    12.000000000000
         C            3.195433460119     0.023213292290    -0.775249552532    12.000000000000
         C            3.195431460119     0.023185292290     0.777998447468    12.000000000000
         C           -0.532880539881    -0.207906707710     0.001371447468    12.000000000000
         C           -1.435632539881    -1.279208707710     0.001363447468    12.000000000000
         C           -1.050477539881     1.096652292290     0.001382447468    12.000000000000
         C           -2.814861539881    -1.060437707710     0.001365447468    12.000000000000
         C           -2.427276539881     1.320701292290     0.001383447468    12.000000000000
         C           -3.315578539881     0.242147292290     0.001375447468    12.000000000000
         H            1.118553460119    -1.543909707710     0.001357447468     1.007825032230
         H            1.432331460119     1.188488292290    -1.309679552532     1.007825032230
         H            1.492130460119    -0.371918707710    -2.132967552532     1.007825032230
         H            1.492124460119    -0.371955707710     2.135708447468     1.007825032230
         H            1.432338460119     1.188464292290     1.312442447468     1.007825032230
         H            3.797918460119     0.837083292290    -1.190196552532     1.007825032230
         H            3.623042460119    -0.910196707710    -1.155588552532     1.007825032230
         H            3.623026460119    -0.910245707710     1.158303447468     1.007825032230
         H            3.797928460119     0.837030292290     1.192977447468     1.007825032230
         H           -1.050778539881    -2.298047707710     0.001354447468     1.007825032230
         H           -0.373623539881     1.949185292290     0.001389447468     1.007825032230
         H           -3.497166539881    -1.907575707710     0.001360447468     1.007825032230
         H           -2.808507539881     2.339523292290     0.001391447468     1.007825032230
         H           -4.388773539881     0.417054292290     0.001376447468     1.007825032230

  Basis Set: AUG-CC-PVTZ
    Blend: AUG-CC-PVTZ
  Basis Set: (AUG-CC-PVTZ AUX)
    Blend: AUG-CC-PVTZ-JKFIT
	 Reference Energy          =    -424.8457283004465239 [Eh]
	 Singles Energy            =      -0.0000000000000000 [Eh]
	 Same-Spin Energy          =      -0.4751581139522301 [Eh]
	 Opposite-Spin Energy      =      -1.5699269408142702 [Eh]
	 Correlation Energy        =      -2.0450850547665000 [Eh]
	 Total Energy              =    -426.8908133552130266 [Eh]

	 ================> DF-SCS-MP2 Energies <==================
	-----------------------------------------------------------
	 SCS Same-Spin Scale       =       0.3333333333333333 [-]
	 SCS Opposite-Spin Scale   =       1.2000000000000000 [-]
	 SCS Same-Spin Energy      =      -0.1583860379840767 [Eh]
	 SCS Opposite-Spin Energy  =      -1.8839123289771242 [Eh]
	 SCS Correlation Energy    =      -2.0422983669612007 [Eh]
	 SCS Total Energy          =    -426.8880266674077006 [Eh]
	-----------------------------------------------------------

  Dipole Moment: [D]
     X:     0.4803      Y:    -0.0436      Z:    -0.0050     Total:     0.4823

*** Psi4 exiting successfully. Buy a developer a beer!
