                               Psi4 1.3.2 release

  ==> Input File <==

--------------------------------------------------------------------------
#psi4
#
memory 32 gb

molecule  {
0 1
  C        0.8906310    -0.4594820    -0.0000050
  C        1.6569550     0.1328190    -1.1912600
  C        1.6569550     0.1327950     1.1912610
  C        3.1340990     0.0195060    -0.7766230
  C        3.1340970     0.0194780     0.7766250
  C       -0.6019609    -0.2635854    -0.0000025
  C       -1.4969670    -1.2829160    -0.0000100
  C       -1.1118120     1.0929450     0.0000090
  C       -2.8761960    -1.0641450    -0.0000080
  C       -2.4886110     1.3169940     0.0000100
  C       -3.3769130     0.2384400     0.0000020
  H        1.0572190    -1.5476170    -0.0000160
  H        1.3709970     1.1847810    -1.3110530
  H        1.4307960    -0.3756260    -2.1343410
  H        1.4307900    -0.3756630     2.1343350
  H        1.3710040     1.1847570     1.3110690
  H        3.7365840     0.8333760    -1.1915700
  H        3.5617080    -0.9139040    -1.1569620
  H        3.5616920    -0.9139530     1.1569300
  H        3.7365940     0.8333230     1.1916040
  H       -1.1121130    -2.3017550    -0.0000190
  H       -0.4349580     1.9454780     0.0000160
  H       -3.5585010    -1.9112830    -0.0000130
  H       -2.8698420     2.3358160     0.0000180
  H       -4.4501080     0.4133470     0.0000030
units angstrom
no_reorient  #important for SAPT in psi4, default
symmetry c1  #important for SAPT in psi4, default
}

set PROPERTIES_ORIGIN ["COM"]
properties('MP2/aug-cc-pvtz', properties = ['dipole'])
--------------------------------------------------------------------------

    Molecular point group: c1
  Charge       = 0
  Multiplicity = 1
  Basis Set: AUG-CC-PVTZ
    Blend: AUG-CC-PVTZ
  Basis Set: (AUG-CC-PVTZ AUX)
    Blend: AUG-CC-PVTZ-JKFIT

    Orbital Energies [Eh]
    ---------------------

    Doubly Occupied:

       1A    -11.236863     2A    -11.234045     3A    -11.233397
       4A    -11.232733     5A    -11.229826     6A    -11.227491
       7A    -11.224100     8A    -11.217367     9A    -11.217223
      10A    -11.216788    11A    -11.216411    12A     -1.155828
      13A     -1.119357    14A     -1.029174    15A     -1.007621
      16A     -0.961320    17A     -0.944323    18A     -0.834847
      19A     -0.812686    20A     -0.773001    21A     -0.764014
      22A     -0.695284    23A     -0.655334    24A     -0.645552
      25A     -0.619148    26A     -0.611154    27A     -0.580634
      28A     -0.573347    29A     -0.560918    30A     -0.525350
      31A     -0.512300    32A     -0.493887    33A     -0.479388
      34A     -0.471502    35A     -0.462878    36A     -0.461138
      37A     -0.453697    38A     -0.453307    39A     -0.335856
      40A     -0.317744

  @DF-RHF Final Energy:  -424.84309237218901

   => Energetics <=

    Nuclear Repulsion Energy =            580.6448995140361831
    One-Electron Energy =               -1725.3823184629077332
    Two-Electron Energy =                 719.8943265766823743
    Total Energy =                       -424.8430923721890622
  Basis Set: (AUG-CC-PVTZ AUX)
    Blend: AUG-CC-PVTZ-RI
    Molecular point group: c1

    Geometry (in Angstrom), charge = 0, multiplicity = 1:

       Center              X                  Y                   Z               Mass
    ------------   -----------------  -----------------  -----------------  -----------------
         C            0.951241022876    -0.452557883084    -0.000004883703    12.000000000000
         C            1.717565022876     0.139743116916    -1.191259883703    12.000000000000
         C            1.717565022876     0.139719116916     1.191261116297    12.000000000000
         C            3.194709022876     0.026430116916    -0.776622883703    12.000000000000
         C            3.194707022876     0.026402116916     0.776625116297    12.000000000000
         C           -0.541350877124    -0.256661283084    -0.000002383703    12.000000000000
         C           -1.436356977124    -1.275991883084    -0.000009883703    12.000000000000
         C           -1.051201977124     1.099869116916     0.000009116297    12.000000000000
         C           -2.815585977124    -1.057220883084    -0.000007883703    12.000000000000
         C           -2.428000977124     1.323918116916     0.000010116297    12.000000000000
         C           -3.316302977124     0.245364116916     0.000002116297    12.000000000000
         H            1.117829022876    -1.540692883084    -0.000015883703     1.007825032230
         H            1.431607022876     1.191705116916    -1.311052883703     1.007825032230
         H            1.491406022876    -0.368701883084    -2.134340883703     1.007825032230
         H            1.491400022876    -0.368738883084     2.134335116297     1.007825032230
         H            1.431614022876     1.191681116916     1.311069116297     1.007825032230
         H            3.797194022876     0.840300116916    -1.191569883703     1.007825032230
         H            3.622318022876    -0.906979883084    -1.156961883703     1.007825032230
         H            3.622302022876    -0.907028883084     1.156930116297     1.007825032230
         H            3.797204022876     0.840247116916     1.191604116297     1.007825032230
         H           -1.051502977124    -2.294830883084    -0.000018883703     1.007825032230
         H           -0.374347977124     1.952402116916     0.000016116297     1.007825032230
         H           -3.497890977124    -1.904358883084    -0.000012883703     1.007825032230
         H           -2.809231977124     2.342740116916     0.000018116297     1.007825032230
         H           -4.389497977124     0.420271116916     0.000003116297     1.007825032230

  Basis Set: AUG-CC-PVTZ
    Blend: AUG-CC-PVTZ
  Basis Set: (AUG-CC-PVTZ AUX)
    Blend: AUG-CC-PVTZ-JKFIT
	 Reference Energy          =    -424.8430923721890053 [Eh]
	 Singles Energy            =      -0.0000000000000000 [Eh]
	 Same-Spin Energy          =      -0.4750862710417978 [Eh]
	 Opposite-Spin Energy      =      -1.5700073610091789 [Eh]
	 Correlation Energy        =      -2.0450936320509765 [Eh]
	 Total Energy              =    -426.8881860042399694 [Eh]

	 ================> DF-SCS-MP2 Energies <==================
	-----------------------------------------------------------
	 SCS Same-Spin Scale       =       0.3333333333333333 [-]
	 SCS Opposite-Spin Scale   =       1.2000000000000000 [-]
	 SCS Same-Spin Energy      =      -0.1583620903472659 [Eh]
	 SCS Opposite-Spin Energy  =      -1.8840088332110145 [Eh]
	 SCS Correlation Energy    =      -2.0423709235582805 [Eh]
	 SCS Total Energy          =    -426.8854632957472859 [Eh]
	-----------------------------------------------------------

  Dipole Moment: [D]
     X:     0.4748      Y:    -0.0153      Z:    -0.0000     Total:     0.4750

*** Psi4 exiting successfully. Buy a developer a beer!
