                               Psi4 1.4a3.dev225

  ==> Input File <==

--------------------------------------------------------------------------
#psi4
#
memory 32 gb

molecule  {
0 1
  C        0.8906310    -0.4594820    -0.0000050
  C        1.6569550     0.1328190    -1.1912600
  C        1.6319983     0.1135064     1.1524652
  C        3.1340990     0.0195060    -0.7766230
  C        3.1340970     0.0194780     0.7766250
  C       -0.5942150    -0.2116140    -0.0000020
  C       -1.4969670    -1.2829160    -0.0000100
  C       -1.1118120     1.0929450     0.0000090
  C       -2.8761960    -1.0641450    -0.0000080
  C       -2.4886110     1.3169940     0.0000100
  C       -3.3769130     0.2384400     0.0000020
  H        1.0572190    -1.5476170    -0.0000160
  H        1.3709970     1.1847810    -1.3110530
  H        1.4307960    -0.3756260    -2.1343410
  H        1.4307900    -0.3756630     2.1343350
  H        1.3710040     1.1847570     1.3110690
  H        3.7365840     0.8333760    -1.1915700
  H        3.5617080    -0.9139040    -1.1569620
  H        3.5616920    -0.9139530     1.1569300
  H        3.7365940     0.8333230     1.1916040
  H       -1.1121130    -2.3017550    -0.0000190
  H       -0.4349580     1.9454780     0.0000160
  H       -3.5585010    -1.9112830    -0.0000130
  H       -2.8698420     2.3358160     0.0000180
  H       -4.4501080     0.4133470     0.0000030
units angstrom
no_reorient  #important for SAPT in psi4, default
symmetry c1  #important for SAPT in psi4, default
}

set PROPERTIES_ORIGIN ["COM"]
properties('MP2/aug-cc-pvtz', properties = ['dipole'])
--------------------------------------------------------------------------

    Molecular point group: c1
  Charge       = 0
  Multiplicity = 1
  Basis Set: AUG-CC-PVTZ
    Blend: AUG-CC-PVTZ
  Basis Set: (AUG-CC-PVTZ AUX)
    Blend: AUG-CC-PVTZ-JKFIT

    Orbital Energies [Eh]
    ---------------------

    Doubly Occupied:

       1A    -11.237579     2A    -11.233802     3A    -11.233296
       4A    -11.229829     5A    -11.229377     6A    -11.229175
       7A    -11.225531     8A    -11.218021     9A    -11.217035
      10A    -11.216862    11A    -11.215951    12A     -1.157873
      13A     -1.122323    14A     -1.027653    15A     -1.008960
      16A     -0.959557    17A     -0.947018    18A     -0.831581
      19A     -0.817059    20A     -0.773391    21A     -0.761195
      22A     -0.696821    23A     -0.655505    24A     -0.646238
      25A     -0.619593    26A     -0.610009    27A     -0.581714
      28A     -0.571108    29A     -0.563068    30A     -0.526875
      31A     -0.513934    32A     -0.492841    33A     -0.477449
      34A     -0.472280    35A     -0.466188    36A     -0.461783
      37A     -0.452589    38A     -0.449741    39A     -0.332716
      40A     -0.320725

  @DF-RHF Final Energy:  -424.84347986144735

   => Energetics <=

    Nuclear Repulsion Energy =            581.5460398732510612
    One-Electron Energy =               -1727.1705510053836861
    Two-Electron Energy =                 720.7810312706853892
    Total Energy =                       -424.8434798614473493
  Basis Set: (AUG-CC-PVTZ AUX)
    Blend: AUG-CC-PVTZ-RI
    Molecular point group: c1

    Geometry (in Angstrom), charge = 0, multiplicity = 1:

       Center              X                  Y                   Z               Mass
    ------------   -----------------  -----------------  -----------------  -----------------
         C            0.952654548544    -0.455242126508     0.003181380293    12.000000000000
         C            1.718978548544     0.137058873492    -1.188073619707    12.000000000000
         C            1.694021848544     0.117746273492     1.155651580293    12.000000000000
         C            3.196122548544     0.023745873492    -0.773436619707    12.000000000000
         C            3.196120548544     0.023717873492     0.779811380293    12.000000000000
         C           -0.532191451456    -0.207374126508     0.003184380293    12.000000000000
         C           -1.434943451456    -1.278676126508     0.003176380293    12.000000000000
         C           -1.049788451456     1.097184873492     0.003195380293    12.000000000000
         C           -2.814172451456    -1.059905126508     0.003178380293    12.000000000000
         C           -2.426587451456     1.321233873492     0.003196380293    12.000000000000
         C           -3.314889451456     0.242679873492     0.003188380293    12.000000000000
         H            1.119242548544    -1.543377126508     0.003170380293     1.007825032230
         H            1.433020548544     1.189020873492    -1.307866619707     1.007825032230
         H            1.492819548544    -0.371386126508    -2.131154619707     1.007825032230
         H            1.492813548544    -0.371423126508     2.137521380293     1.007825032230
         H            1.433027548544     1.188996873492     1.314255380293     1.007825032230
         H            3.798607548544     0.837615873492    -1.188383619707     1.007825032230
         H            3.623731548544    -0.909664126508    -1.153775619707     1.007825032230
         H            3.623715548544    -0.909713126508     1.160116380293     1.007825032230
         H            3.798617548544     0.837562873492     1.194790380293     1.007825032230
         H           -1.050089451456    -2.297515126508     0.003167380293     1.007825032230
         H           -0.372934451456     1.949717873492     0.003202380293     1.007825032230
         H           -3.496477451456    -1.907043126508     0.003173380293     1.007825032230
         H           -2.807818451456     2.340055873492     0.003204380293     1.007825032230
         H           -4.388084451456     0.417586873492     0.003189380293     1.007825032230

  Basis Set: AUG-CC-PVTZ
    Blend: AUG-CC-PVTZ
  Basis Set: (AUG-CC-PVTZ AUX)
    Blend: AUG-CC-PVTZ-JKFIT
	 Reference Energy          =    -424.8434798614473493 [Eh]
	 Singles Energy            =      -0.0000000000000000 [Eh]
	 Same-Spin Energy          =      -0.4756043303292022 [Eh]
	 Opposite-Spin Energy      =      -1.5703146446915575 [Eh]
	 Correlation Energy        =      -2.0459189750207596 [Eh]
	 Total Energy              =    -426.8893988364681036 [Eh]

	 ================> DF-SCS-MP2 Energies <==================
	-----------------------------------------------------------
	 SCS Same-Spin Scale       =       0.3333333333333333 [-]
	 SCS Opposite-Spin Scale   =       1.2000000000000000 [-]
	 SCS Same-Spin Energy      =      -0.1585347767764007 [Eh]
	 SCS Opposite-Spin Energy  =      -1.8843775736298689 [Eh]
	 SCS Correlation Energy    =      -2.0429123504062696 [Eh]
	 SCS Total Energy          =    -426.8863922118536038 [Eh]
	-----------------------------------------------------------

  Dipole Moment: [D]
     X:     0.4633      Y:    -0.0296      Z:    -0.0092     Total:     0.4643

*** Psi4 exiting successfully. Buy a developer a beer!
