                               Psi4 1.3.2 release

  ==> Input File <==

--------------------------------------------------------------------------
#psi4
#
memory 32 gb

molecule  {
0 1
  C        0.8906310    -0.4594820    -0.0000050
  C        1.6235937     0.1070345    -1.2243359
  C        1.6569550     0.1327950     1.1912610
  C        3.1340990     0.0195060    -0.7766230
  C        3.1340970     0.0194780     0.7766250
  C       -0.5942150    -0.2116140    -0.0000020
  C       -1.4969670    -1.2829160    -0.0000100
  C       -1.1118120     1.0929450     0.0000090
  C       -2.8761960    -1.0641450    -0.0000080
  C       -2.4886110     1.3169940     0.0000100
  C       -3.3769130     0.2384400     0.0000020
  H        1.0572190    -1.5476170    -0.0000160
  H        1.3709970     1.1847810    -1.3110530
  H        1.4307960    -0.3756260    -2.1343410
  H        1.4307900    -0.3756630     2.1343350
  H        1.3710040     1.1847570     1.3110690
  H        3.7365840     0.8333760    -1.1915700
  H        3.5617080    -0.9139040    -1.1569620
  H        3.5616920    -0.9139530     1.1569300
  H        3.7365940     0.8333230     1.1916040
  H       -1.1121130    -2.3017550    -0.0000190
  H       -0.4349580     1.9454780     0.0000160
  H       -3.5585010    -1.9112830    -0.0000130
  H       -2.8698420     2.3358160     0.0000180
  H       -4.4501080     0.4133470     0.0000030
units angstrom
no_reorient  #important for SAPT in psi4, default
symmetry c1  #important for SAPT in psi4, default
}

set PROPERTIES_ORIGIN ["COM"]
properties('MP2/aug-cc-pvtz', properties = ['dipole'])
--------------------------------------------------------------------------

    Molecular point group: c1
  Charge       = 0
  Multiplicity = 1
  Basis Set: AUG-CC-PVTZ
    Blend: AUG-CC-PVTZ
  Basis Set: (AUG-CC-PVTZ AUX)
    Blend: AUG-CC-PVTZ-JKFIT

    Orbital Energies [Eh]
    ---------------------

    Doubly Occupied:

       1A    -11.236657     2A    -11.233387     3A    -11.232843
       4A    -11.229216     5A    -11.228724     6A    -11.228414
       7A    -11.227923     8A    -11.218103     9A    -11.217465
      10A    -11.216697    11A    -11.215949    12A     -1.154993
      13A     -1.116273    14A     -1.026145    15A     -1.008423
      16A     -0.960692    17A     -0.943563    18A     -0.831539
      19A     -0.816891    20A     -0.774294    21A     -0.762305
      22A     -0.694934    23A     -0.658532    24A     -0.643787
      25A     -0.619185    26A     -0.608189    27A     -0.581203
      28A     -0.572679    29A     -0.561957    30A     -0.522836
      31A     -0.514696    32A     -0.493126    33A     -0.485002
      34A     -0.472707    35A     -0.464464    36A     -0.459789
      37A     -0.451320    38A     -0.448634    39A     -0.332294
      40A     -0.319388

  @DF-RHF Final Energy:  -424.84351314649786

   => Energetics <=

    Nuclear Repulsion Energy =            580.3849998427796208
    One-Electron Energy =               -1724.8865966615956040
    Two-Electron Energy =                 719.6580836723180710
    Total Energy =                       -424.8435131464977985
  Basis Set: (AUG-CC-PVTZ AUX)
    Blend: AUG-CC-PVTZ-RI
    Molecular point group: c1

    Geometry (in Angstrom), charge = 0, multiplicity = 1:

       Center              X                  Y                   Z               Mass
    ------------   -----------------  -----------------  -----------------  -----------------
         C            0.953344819644    -0.454708617235     0.002711604020    12.000000000000
         C            1.686307519644     0.111807882765    -1.221619295980    12.000000000000
         C            1.719668819644     0.137568382765     1.193977604020    12.000000000000
         C            3.196812819644     0.024279382765    -0.773906395980    12.000000000000
         C            3.196810819644     0.024251382765     0.779341604020    12.000000000000
         C           -0.531501180356    -0.206840617235     0.002714604020    12.000000000000
         C           -1.434253180356    -1.278142617235     0.002706604020    12.000000000000
         C           -1.049098180356     1.097718382765     0.002725604020    12.000000000000
         C           -2.813482180356    -1.059371617235     0.002708604020    12.000000000000
         C           -2.425897180356     1.321767382765     0.002726604020    12.000000000000
         C           -3.314199180356     0.243213382765     0.002718604020    12.000000000000
         H            1.119932819644    -1.542843617235     0.002700604020     1.007825032230
         H            1.433710819644     1.189554382765    -1.308336395980     1.007825032230
         H            1.493509819644    -0.370852617235    -2.131624395980     1.007825032230
         H            1.493503819644    -0.370889617235     2.137051604020     1.007825032230
         H            1.433717819644     1.189530382765     1.313785604020     1.007825032230
         H            3.799297819644     0.838149382765    -1.188853395980     1.007825032230
         H            3.624421819644    -0.909130617235    -1.154245395980     1.007825032230
         H            3.624405819644    -0.909179617235     1.159646604020     1.007825032230
         H            3.799307819644     0.838096382765     1.194320604020     1.007825032230
         H           -1.049399180356    -2.296981617235     0.002697604020     1.007825032230
         H           -0.372244180356     1.950251382765     0.002732604020     1.007825032230
         H           -3.495787180356    -1.906509617235     0.002703604020     1.007825032230
         H           -2.807128180356     2.340589382765     0.002734604020     1.007825032230
         H           -4.387394180356     0.418120382765     0.002719604020     1.007825032230

  Basis Set: AUG-CC-PVTZ
    Blend: AUG-CC-PVTZ
  Basis Set: (AUG-CC-PVTZ AUX)
    Blend: AUG-CC-PVTZ-JKFIT
	 Reference Energy          =    -424.8435131464978554 [Eh]
	 Singles Energy            =      -0.0000000000000000 [Eh]
	 Same-Spin Energy          =      -0.4751005561006334 [Eh]
	 Opposite-Spin Energy      =      -1.5700074706274401 [Eh]
	 Correlation Energy        =      -2.0451080267280735 [Eh]
	 Total Energy              =    -426.8886211732259426 [Eh]

	 ================> DF-SCS-MP2 Energies <==================
	-----------------------------------------------------------
	 SCS Same-Spin Scale       =       0.3333333333333333 [-]
	 SCS Opposite-Spin Scale   =       1.2000000000000000 [-]
	 SCS Same-Spin Energy      =      -0.1583668520335444 [Eh]
	 SCS Opposite-Spin Energy  =      -1.8840089647529279 [Eh]
	 SCS Correlation Energy    =      -2.0423758167864725 [Eh]
	 SCS Total Energy          =    -426.8858889632843443 [Eh]
	-----------------------------------------------------------

  Dipole Moment: [D]
     X:     0.4886      Y:    -0.0526      Z:    -0.0069     Total:     0.4914

*** Psi4 exiting successfully. Buy a developer a beer!
