                               Psi4 1.3.2 release

  ==> Input File <==

--------------------------------------------------------------------------
#psi4
#
memory 32 gb

molecule  {
0 1
  C        0.8906310    -0.4594820    -0.0000050
  C        1.6569550     0.1328190    -1.1912600
  C        1.7466466     0.0922222     1.1489158
  C        3.1340990     0.0195060    -0.7766230
  C        3.1340970     0.0194780     0.7766250
  C       -0.5942150    -0.2116140    -0.0000020
  C       -1.4969670    -1.2829160    -0.0000100
  C       -1.1118120     1.0929450     0.0000090
  C       -2.8761960    -1.0641450    -0.0000080
  C       -2.4886110     1.3169940     0.0000100
  C       -3.3769130     0.2384400     0.0000020
  H        1.0572190    -1.5476170    -0.0000160
  H        1.3709970     1.1847810    -1.3110530
  H        1.4307960    -0.3756260    -2.1343410
  H        1.4307900    -0.3756630     2.1343350
  H        1.3710040     1.1847570     1.3110690
  H        3.7365840     0.8333760    -1.1915700
  H        3.5617080    -0.9139040    -1.1569620
  H        3.5616920    -0.9139530     1.1569300
  H        3.7365940     0.8333230     1.1916040
  H       -1.1121130    -2.3017550    -0.0000190
  H       -0.4349580     1.9454780     0.0000160
  H       -3.5585010    -1.9112830    -0.0000130
  H       -2.8698420     2.3358160     0.0000180
  H       -4.4501080     0.4133470     0.0000030
units angstrom
no_reorient  #important for SAPT in psi4, default
symmetry c1  #important for SAPT in psi4, default
}

set PROPERTIES_ORIGIN ["COM"]
properties('MP2/aug-cc-pvtz', properties = ['dipole'])
--------------------------------------------------------------------------

    Molecular point group: c1
  Charge       = 0
  Multiplicity = 1
  Basis Set: AUG-CC-PVTZ
    Blend: AUG-CC-PVTZ
  Basis Set: (AUG-CC-PVTZ AUX)
    Blend: AUG-CC-PVTZ-JKFIT

    Orbital Energies [Eh]
    ---------------------

    Doubly Occupied:

       1A    -11.238789     2A    -11.234054     3A    -11.233701
       4A    -11.230618     5A    -11.230161     6A    -11.229949
       7A    -11.227383     8A    -11.221703     9A    -11.217307
      10A    -11.216084    11A    -11.212454    12A     -1.157986
      13A     -1.127345    14A     -1.030935    15A     -1.009415
      16A     -0.968224    17A     -0.943936    18A     -0.831013
      19A     -0.817470    20A     -0.773685    21A     -0.756791
      22A     -0.696725    23A     -0.655280    24A     -0.649027
      25A     -0.621585    26A     -0.613164    27A     -0.582257
      28A     -0.569811    29A     -0.559176    30A     -0.534251
      31A     -0.513355    32A     -0.492334    33A     -0.488708
      34A     -0.474068    35A     -0.467518    36A     -0.455745
      37A     -0.454141    38A     -0.433582    39A     -0.333003
      40A     -0.321215

  @DF-RHF Final Energy:  -424.83293187189781

   => Energetics <=

    Nuclear Repulsion Energy =            581.3765893821288273
    One-Electron Energy =               -1726.7711424629817429
    Two-Electron Energy =                 720.5616212089549890
    Total Energy =                       -424.8329318718978129
  Basis Set: (AUG-CC-PVTZ AUX)
    Blend: AUG-CC-PVTZ-RI
    Molecular point group: c1

    Geometry (in Angstrom), charge = 0, multiplicity = 1:

       Center              X                  Y                   Z               Mass
    ------------   -----------------  -----------------  -----------------  -----------------
         C            0.943238465915    -0.453494051867     0.003472893065    12.000000000000
         C            1.709562465915     0.138806948133    -1.187782106935    12.000000000000
         C            1.799254065915     0.098210148133     1.152393693065    12.000000000000
         C            3.186706465915     0.025493948133    -0.773145106935    12.000000000000
         C            3.186704465915     0.025465948133     0.780102893065    12.000000000000
         C           -0.541607534085    -0.205626051867     0.003475893065    12.000000000000
         C           -1.444359534085    -1.276928051867     0.003467893065    12.000000000000
         C           -1.059204534085     1.098932948133     0.003486893065    12.000000000000
         C           -2.823588534085    -1.058157051867     0.003469893065    12.000000000000
         C           -2.436003534085     1.322981948133     0.003487893065    12.000000000000
         C           -3.324305534085     0.244427948133     0.003479893065    12.000000000000
         H            1.109826465915    -1.541629051867     0.003461893065     1.007825032230
         H            1.423604465915     1.190768948133    -1.307575106935     1.007825032230
         H            1.483403465915    -0.369638051867    -2.130863106935     1.007825032230
         H            1.483397465915    -0.369675051867     2.137812893065     1.007825032230
         H            1.423611465915     1.190744948133     1.314546893065     1.007825032230
         H            3.789191465915     0.839363948133    -1.188092106935     1.007825032230
         H            3.614315465915    -0.907916051867    -1.153484106935     1.007825032230
         H            3.614299465915    -0.907965051867     1.160407893065     1.007825032230
         H            3.789201465915     0.839310948133     1.195081893065     1.007825032230
         H           -1.059505534085    -2.295767051867     0.003458893065     1.007825032230
         H           -0.382350534085     1.951465948133     0.003493893065     1.007825032230
         H           -3.505893534085    -1.905295051867     0.003464893065     1.007825032230
         H           -2.817234534085     2.341803948133     0.003495893065     1.007825032230
         H           -4.397500534085     0.419334948133     0.003480893065     1.007825032230

  Basis Set: AUG-CC-PVTZ
    Blend: AUG-CC-PVTZ
  Basis Set: (AUG-CC-PVTZ AUX)
    Blend: AUG-CC-PVTZ-JKFIT
	 Reference Energy          =    -424.8329318718978129 [Eh]
	 Singles Energy            =      -0.0000000000000000 [Eh]
	 Same-Spin Energy          =      -0.4762967903207383 [Eh]
	 Opposite-Spin Energy      =      -1.5710800605162527 [Eh]
	 Correlation Energy        =      -2.0473768508369909 [Eh]
	 Total Energy              =    -426.8803087227348101 [Eh]

	 ================> DF-SCS-MP2 Energies <==================
	-----------------------------------------------------------
	 SCS Same-Spin Scale       =       0.3333333333333333 [-]
	 SCS Opposite-Spin Scale   =       1.2000000000000000 [-]
	 SCS Same-Spin Energy      =      -0.1587655967735794 [Eh]
	 SCS Opposite-Spin Energy  =      -1.8852960726195032 [Eh]
	 SCS Correlation Energy    =      -2.0440616693930824 [Eh]
	 SCS Total Energy          =    -426.8769935412909149 [Eh]
	-----------------------------------------------------------

  Dipole Moment: [D]
     X:     0.4551      Y:    -0.0519      Z:    -0.0297     Total:     0.4590

*** Psi4 exiting successfully. Buy a developer a beer!
