                               Psi4 1.3.2 release

  ==> Input File <==

--------------------------------------------------------------------------
#psi4
#
memory 32 gb

molecule  {
0 1
  C        0.8906310    -0.4594820    -0.0000050
  C        1.5893393     0.0805597    -1.2559202
  C        1.6569550     0.1327950     1.1912610
  C        3.1340990     0.0195060    -0.7766230
  C        3.1340970     0.0194780     0.7766250
  C       -0.5942150    -0.2116140    -0.0000020
  C       -1.4969670    -1.2829160    -0.0000100
  C       -1.1118120     1.0929450     0.0000090
  C       -2.8761960    -1.0641450    -0.0000080
  C       -2.4886110     1.3169940     0.0000100
  C       -3.3769130     0.2384400     0.0000020
  H        1.0572190    -1.5476170    -0.0000160
  H        1.3709970     1.1847810    -1.3110530
  H        1.4307960    -0.3756260    -2.1343410
  H        1.4307900    -0.3756630     2.1343350
  H        1.3710040     1.1847570     1.3110690
  H        3.7365840     0.8333760    -1.1915700
  H        3.5617080    -0.9139040    -1.1569620
  H        3.5616920    -0.9139530     1.1569300
  H        3.7365940     0.8333230     1.1916040
  H       -1.1121130    -2.3017550    -0.0000190
  H       -0.4349580     1.9454780     0.0000160
  H       -3.5585010    -1.9112830    -0.0000130
  H       -2.8698420     2.3358160     0.0000180
  H       -4.4501080     0.4133470     0.0000030
units angstrom
no_reorient  #important for SAPT in psi4, default
symmetry c1  #important for SAPT in psi4, default
}

set PROPERTIES_ORIGIN ["COM"]
properties('MP2/aug-cc-pvtz', properties = ['dipole'])
--------------------------------------------------------------------------

    Molecular point group: c1
  Charge       = 0
  Multiplicity = 1
  Basis Set: AUG-CC-PVTZ
    Blend: AUG-CC-PVTZ
  Basis Set: (AUG-CC-PVTZ AUX)
    Blend: AUG-CC-PVTZ-JKFIT

    Orbital Energies [Eh]
    ---------------------

    Doubly Occupied:

       1A    -11.236166     2A    -11.233121     3A    -11.232557
       4A    -11.228845     5A    -11.228797     6A    -11.228326
       7A    -11.227975     8A    -11.219636     9A    -11.218321
      10A    -11.217290    11A    -11.216086    12A     -1.154446
      13A     -1.113812    14A     -1.025283    15A     -1.008106
      16A     -0.961157    17A     -0.942750    18A     -0.831525
      19A     -0.817031    20A     -0.776427    21A     -0.762659
      22A     -0.694266    23A     -0.662367    24A     -0.642931
      25A     -0.618537    26A     -0.607099    27A     -0.580947
      28A     -0.572043    29A     -0.561656    30A     -0.522618
      31A     -0.518701    32A     -0.494695    33A     -0.488535
      34A     -0.472578    35A     -0.465081    36A     -0.458770
      37A     -0.448681    38A     -0.439948    39A     -0.332014
      40A     -0.318870

  @DF-RHF Final Energy:  -424.83397577528285

   => Energetics <=

    Nuclear Repulsion Energy =            580.0380875145641539
    One-Electron Energy =               -1724.1828186001744143
    Two-Electron Energy =                 719.3107553103272949
    Total Energy =                       -424.8339757752828518
  Basis Set: (AUG-CC-PVTZ AUX)
    Blend: AUG-CC-PVTZ-RI
    Molecular point group: c1

    Geometry (in Angstrom), charge = 0, multiplicity = 1:

       Center              X                  Y                   Z               Mass
    ------------   -----------------  -----------------  -----------------  -----------------
         C            0.956158138819    -0.452534237812     0.005305627469    12.000000000000
         C            1.654866438819     0.087507462188    -1.250609572531    12.000000000000
         C            1.722482138819     0.139742762188     1.196571627469    12.000000000000
         C            3.199626138819     0.026453762188    -0.771312372531    12.000000000000
         C            3.199624138819     0.026425762188     0.781935627469    12.000000000000
         C           -0.528687861181    -0.204666237812     0.005308627469    12.000000000000
         C           -1.431439861181    -1.275968237812     0.005300627469    12.000000000000
         C           -1.046284861181     1.099892762188     0.005319627469    12.000000000000
         C           -2.810668861181    -1.057197237812     0.005302627469    12.000000000000
         C           -2.423083861181     1.323941762188     0.005320627469    12.000000000000
         C           -3.311385861181     0.245387762188     0.005312627469    12.000000000000
         H            1.122746138819    -1.540669237812     0.005294627469     1.007825032230
         H            1.436524138819     1.191728762188    -1.305742372531     1.007825032230
         H            1.496323138819    -0.368678237812    -2.129030372531     1.007825032230
         H            1.496317138819    -0.368715237812     2.139645627469     1.007825032230
         H            1.436531138819     1.191704762188     1.316379627469     1.007825032230
         H            3.802111138819     0.840323762188    -1.186259372531     1.007825032230
         H            3.627235138819    -0.906956237812    -1.151651372531     1.007825032230
         H            3.627219138819    -0.907005237812     1.162240627469     1.007825032230
         H            3.802121138819     0.840270762188     1.196914627469     1.007825032230
         H           -1.046585861181    -2.294807237812     0.005291627469     1.007825032230
         H           -0.369430861181     1.952425762188     0.005326627469     1.007825032230
         H           -3.492973861181    -1.904335237812     0.005297627469     1.007825032230
         H           -2.804314861181     2.342763762188     0.005328627469     1.007825032230
         H           -4.384580861181     0.420294762188     0.005313627469     1.007825032230

  Basis Set: AUG-CC-PVTZ
    Blend: AUG-CC-PVTZ
  Basis Set: (AUG-CC-PVTZ AUX)
    Blend: AUG-CC-PVTZ-JKFIT
	 Reference Energy          =    -424.8339757752828518 [Eh]
	 Singles Energy            =      -0.0000000000000000 [Eh]
	 Same-Spin Energy          =      -0.4751226591547357 [Eh]
	 Opposite-Spin Energy      =      -1.5704678473531719 [Eh]
	 Correlation Energy        =      -2.0455905065079074 [Eh]
	 Total Energy              =    -426.8795662817907441 [Eh]

	 ================> DF-SCS-MP2 Energies <==================
	-----------------------------------------------------------
	 SCS Same-Spin Scale       =       0.3333333333333333 [-]
	 SCS Opposite-Spin Scale   =       1.2000000000000000 [-]
	 SCS Same-Spin Energy      =      -0.1583742197182452 [Eh]
	 SCS Opposite-Spin Energy  =      -1.8845614168238063 [Eh]
	 SCS Correlation Energy    =      -2.0429356365420515 [Eh]
	 SCS Total Energy          =    -426.8769114118248922 [Eh]
	-----------------------------------------------------------

  Dipole Moment: [D]
     X:     0.5089      Y:    -0.0700      Z:    -0.0019     Total:     0.5137

*** Psi4 exiting successfully. Buy a developer a beer!
