                               Psi4 1.3.2 release

  ==> Input File <==

--------------------------------------------------------------------------
#psi4
#
memory 32 gb

molecule  {
0 1
  C        0.8906310    -0.4594820    -0.0000050
  C        1.6569550     0.1328190    -1.1912600
  C        1.6569550     0.1327950     1.1912610
  C        3.1340990     0.0195060    -0.7766230
  C        3.1340970     0.0194780     0.7766250
  C       -0.5942150    -0.2116140    -0.0000020
  C       -1.4969670    -1.2829160    -0.0000100
  C       -1.1118120     1.0929450     0.0000090
  C       -2.8761960    -1.0641450    -0.0000080
  C       -2.4886110     1.3169940     0.0000100
  C       -3.3769130     0.2384400     0.0000020
  H        1.0572190    -1.5476170    -0.0000160
  H        1.3709970     1.1847810    -1.3110530
  H        1.4307960    -0.3756260    -2.1343410
  H        1.4307900    -0.3756630     2.1343350
  H        1.3710040     1.1847570     1.3110690
  H        3.7365840     0.8333760    -1.1915700
  H        3.5617080    -0.9139040    -1.1569620
  H        3.5616920    -0.9139530     1.1569300
  H        3.7365940     0.8333230     1.1916040
  H       -1.1121130    -2.3017550    -0.0000190
  H       -0.4349580     1.9454780     0.0000160
  H       -3.5585010    -1.9112830    -0.0000130
  H       -2.8698420     2.3358160     0.0000180
  H       -4.4501080     0.4133470     0.0000030
units angstrom
no_reorient  #important for SAPT in psi4, default
symmetry c1  #important for SAPT in psi4, default
}

set PROPERTIES_ORIGIN ["COM"]
properties('MP2/aug-cc-pvtz', properties = ['dipole'])
--------------------------------------------------------------------------

    Molecular point group: c1
  Charge       = 0
  Multiplicity = 1
  Basis Set: AUG-CC-PVTZ
    Blend: AUG-CC-PVTZ
  Basis Set: (AUG-CC-PVTZ AUX)
    Blend: AUG-CC-PVTZ-JKFIT

    Orbital Energies [Eh]
    ---------------------

    Doubly Occupied:

       1A    -11.237230     2A    -11.233671     3A    -11.233151
       4A    -11.229600     5A    -11.229142     6A    -11.228874
       7A    -11.227429     8A    -11.217003     9A    -11.216812
      10A    -11.216405    11A    -11.216074    12A     -1.155734
      13A     -1.119203    14A     -1.027259    15A     -1.008763
      16A     -0.961176    17A     -0.944097    18A     -0.831777
      19A     -0.816938    20A     -0.772932    21A     -0.762117
      22A     -0.695734    23A     -0.655082    24A     -0.644928
      25A     -0.619936    26A     -0.609514    27A     -0.581551
      28A     -0.573117    29A     -0.562277    30A     -0.525111
      31A     -0.512282    32A     -0.493131    33A     -0.479165
      34A     -0.471751    35A     -0.465426    36A     -0.461088
      37A     -0.453131    38A     -0.452901    39A     -0.332591
      40A     -0.319809

  @DF-RHF Final Energy:  -424.84631675388727

   => Energetics <=

    Nuclear Repulsion Energy =            580.7597725260875450
    One-Electron Energy =               -1725.6243469264616124
    Two-Electron Energy =                 720.0182576464867452
    Total Energy =                       -424.8463167538873222
  Basis Set: (AUG-CC-PVTZ AUX)
    Blend: AUG-CC-PVTZ-RI
    Molecular point group: c1

    Geometry (in Angstrom), charge = 0, multiplicity = 1:

       Center              X                  Y                   Z               Mass
    ------------   -----------------  -----------------  -----------------  -----------------
         C            0.950604850909    -0.456826302212    -0.000004924768    12.000000000000
         C            1.716928850909     0.135474697788    -1.191259924768    12.000000000000
         C            1.716928850909     0.135450697788     1.191261075232    12.000000000000
         C            3.194072850909     0.022161697788    -0.776622924768    12.000000000000
         C            3.194070850909     0.022133697788     0.776625075232    12.000000000000
         C           -0.534241149091    -0.208958302212    -0.000001924768    12.000000000000
         C           -1.436993149091    -1.280260302212    -0.000009924768    12.000000000000
         C           -1.051838149091     1.095600697788     0.000009075232    12.000000000000
         C           -2.816222149091    -1.061489302212    -0.000007924768    12.000000000000
         C           -2.428637149091     1.319649697788     0.000010075232    12.000000000000
         C           -3.316939149091     0.241095697788     0.000002075232    12.000000000000
         H            1.117192850909    -1.544961302212    -0.000015924768     1.007825032230
         H            1.430970850909     1.187436697788    -1.311052924768     1.007825032230
         H            1.490769850909    -0.372970302212    -2.134340924768     1.007825032230
         H            1.490763850909    -0.373007302212     2.134335075232     1.007825032230
         H            1.430977850909     1.187412697788     1.311069075232     1.007825032230
         H            3.796557850909     0.836031697788    -1.191569924768     1.007825032230
         H            3.621681850909    -0.911248302212    -1.156961924768     1.007825032230
         H            3.621665850909    -0.911297302212     1.156930075232     1.007825032230
         H            3.796567850909     0.835978697788     1.191604075232     1.007825032230
         H           -1.052139149091    -2.299099302212    -0.000018924768     1.007825032230
         H           -0.374984149091     1.948133697788     0.000016075232     1.007825032230
         H           -3.498527149091    -1.908627302212    -0.000012924768     1.007825032230
         H           -2.809868149091     2.338471697788     0.000018075232     1.007825032230
         H           -4.390134149091     0.416002697788     0.000003075232     1.007825032230

  Basis Set: AUG-CC-PVTZ
    Blend: AUG-CC-PVTZ
  Basis Set: (AUG-CC-PVTZ AUX)
    Blend: AUG-CC-PVTZ-JKFIT
	 Reference Energy          =    -424.8463167538872653 [Eh]
	 Singles Energy            =      -0.0000000000000000 [Eh]
	 Same-Spin Energy          =      -0.4752613578200149 [Eh]
	 Opposite-Spin Energy      =      -1.5699431158488797 [Eh]
	 Correlation Energy        =      -2.0452044736688948 [Eh]
	 Total Energy              =    -426.8915212275561544 [Eh]

	 ================> DF-SCS-MP2 Energies <==================
	-----------------------------------------------------------
	 SCS Same-Spin Scale       =       0.3333333333333333 [-]
	 SCS Opposite-Spin Scale   =       1.2000000000000000 [-]
	 SCS Same-Spin Energy      =      -0.1584204526066716 [Eh]
	 SCS Opposite-Spin Energy  =      -1.8839317390186556 [Eh]
	 SCS Correlation Energy    =      -2.0423521916253273 [Eh]
	 SCS Total Energy          =    -426.8886689455126202 [Eh]
	-----------------------------------------------------------

  Dipole Moment: [D]
     X:     0.4733      Y:    -0.0343      Z:    -0.0000     Total:     0.4746

*** Psi4 exiting successfully. Buy a developer a beer!
