                               Psi4 1.3.2 release

  ==> Input File <==

--------------------------------------------------------------------------
#psi4
#
memory 32 gb

molecule  {
0 1
  C        0.8906310    -0.4594820    -0.0000050
  C        1.6569550     0.1328190    -1.1912600
  C        1.6797453     0.1229148     1.1812112
  C        3.1340990     0.0195060    -0.7766230
  C        3.1340970     0.0194780     0.7766250
  C       -0.5942150    -0.2116140    -0.0000020
  C       -1.4969670    -1.2829160    -0.0000100
  C       -1.1118120     1.0929450     0.0000090
  C       -2.8761960    -1.0641450    -0.0000080
  C       -2.4886110     1.3169940     0.0000100
  C       -3.3769130     0.2384400     0.0000020
  H        1.0572190    -1.5476170    -0.0000160
  H        1.3709970     1.1847810    -1.3110530
  H        1.4307960    -0.3756260    -2.1343410
  H        1.4307900    -0.3756630     2.1343350
  H        1.3710040     1.1847570     1.3110690
  H        3.7365840     0.8333760    -1.1915700
  H        3.5617080    -0.9139040    -1.1569620
  H        3.5616920    -0.9139530     1.1569300
  H        3.7365940     0.8333230     1.1916040
  H       -1.1121130    -2.3017550    -0.0000190
  H       -0.4349580     1.9454780     0.0000160
  H       -3.5585010    -1.9112830    -0.0000130
  H       -2.8698420     2.3358160     0.0000180
  H       -4.4501080     0.4133470     0.0000030
units angstrom
no_reorient  #important for SAPT in psi4, default
symmetry c1  #important for SAPT in psi4, default
}

set PROPERTIES_ORIGIN ["COM"]
properties('MP2/aug-cc-pvtz', properties = ['dipole'])
--------------------------------------------------------------------------

    Molecular point group: c1
  Charge       = 0
  Multiplicity = 1
  Basis Set: AUG-CC-PVTZ
    Blend: AUG-CC-PVTZ
  Basis Set: (AUG-CC-PVTZ AUX)
    Blend: AUG-CC-PVTZ-JKFIT

    Orbital Energies [Eh]
    ---------------------

    Doubly Occupied:

       1A    -11.237588     2A    -11.233760     3A    -11.233283
       4A    -11.229850     5A    -11.229354     6A    -11.229174
       7A    -11.227294     8A    -11.217691     9A    -11.216891
      10A    -11.216289    11A    -11.215444    12A     -1.156145
      13A     -1.121000    14A     -1.028030    15A     -1.008918
      16A     -0.962567    17A     -0.944222    18A     -0.831520
      19A     -0.817044    20A     -0.772696    21A     -0.761233
      22A     -0.695970    23A     -0.655012    24A     -0.645869
      25A     -0.620289    26A     -0.610357    27A     -0.581696
      28A     -0.571470    29A     -0.561810    30A     -0.526625
      31A     -0.512253    32A     -0.492734    33A     -0.481258
      34A     -0.471059    35A     -0.467452    36A     -0.460625
      37A     -0.453713    38A     -0.449119    39A     -0.332692
      40A     -0.320193

  @DF-RHF Final Energy:  -424.84533177337283

   => Energetics <=

    Nuclear Repulsion Energy =            580.8985746993944304
    One-Electron Energy =               -1725.8874371652857462
    Two-Electron Energy =                 720.1435306925184250
    Total Energy =                       -424.8453317733728909
  Basis Set: (AUG-CC-PVTZ AUX)
    Blend: AUG-CC-PVTZ-RI
    Molecular point group: c1

    Geometry (in Angstrom), charge = 0, multiplicity = 1:

       Center              X                  Y                   Z               Mass
    ------------   -----------------  -----------------  -----------------  -----------------
         C            0.948733080042    -0.456014839857     0.000820466862    12.000000000000
         C            1.715057080042     0.136286160143    -1.190434533138    12.000000000000
         C            1.737847380042     0.126381960143     1.182036666862    12.000000000000
         C            3.192201080042     0.022973160143    -0.775797533138    12.000000000000
         C            3.192199080042     0.022945160143     0.777450466862    12.000000000000
         C           -0.536112919958    -0.208146839857     0.000823466862    12.000000000000
         C           -1.438864919958    -1.279448839857     0.000815466862    12.000000000000
         C           -1.053709919958     1.096412160143     0.000834466862    12.000000000000
         C           -2.818093919958    -1.060677839857     0.000817466862    12.000000000000
         C           -2.430508919958     1.320461160143     0.000835466862    12.000000000000
         C           -3.318810919958     0.241907160143     0.000827466862    12.000000000000
         H            1.115321080042    -1.544149839857     0.000809466862     1.007825032230
         H            1.429099080042     1.188248160143    -1.310227533138     1.007825032230
         H            1.488898080042    -0.372158839857    -2.133515533138     1.007825032230
         H            1.488892080042    -0.372195839857     2.135160466862     1.007825032230
         H            1.429106080042     1.188224160143     1.311894466862     1.007825032230
         H            3.794686080042     0.836843160143    -1.190744533138     1.007825032230
         H            3.619810080042    -0.910436839857    -1.156136533138     1.007825032230
         H            3.619794080042    -0.910485839857     1.157755466862     1.007825032230
         H            3.794696080042     0.836790160143     1.192429466862     1.007825032230
         H           -1.054010919958    -2.298287839857     0.000806466862     1.007825032230
         H           -0.376855919958     1.948945160143     0.000841466862     1.007825032230
         H           -3.500398919958    -1.907815839857     0.000812466862     1.007825032230
         H           -2.811739919958     2.339283160143     0.000843466862     1.007825032230
         H           -4.392005919958     0.416814160143     0.000828466862     1.007825032230

  Basis Set: AUG-CC-PVTZ
    Blend: AUG-CC-PVTZ
  Basis Set: (AUG-CC-PVTZ AUX)
    Blend: AUG-CC-PVTZ-JKFIT
	 Reference Energy          =    -424.8453317733728340 [Eh]
	 Singles Energy            =      -0.0000000000000000 [Eh]
	 Same-Spin Energy          =      -0.4754325595523937 [Eh]
	 Opposite-Spin Energy      =      -1.5700737095485813 [Eh]
	 Correlation Energy        =      -2.0455062691009749 [Eh]
	 Total Energy              =    -426.8908380424738311 [Eh]

	 ================> DF-SCS-MP2 Energies <==================
	-----------------------------------------------------------
	 SCS Same-Spin Scale       =       0.3333333333333333 [-]
	 SCS Opposite-Spin Scale   =       1.2000000000000000 [-]
	 SCS Same-Spin Energy      =      -0.1584775198507979 [Eh]
	 SCS Opposite-Spin Energy  =      -1.8840884514582974 [Eh]
	 SCS Correlation Energy    =      -2.0425659713090951 [Eh]
	 SCS Total Energy          =    -426.8878977446819363 [Eh]
	-----------------------------------------------------------

  Dipole Moment: [D]
     X:     0.4667      Y:    -0.0376      Z:    -0.0047     Total:     0.4683

*** Psi4 exiting successfully. Buy a developer a beer!
