                               Psi4 1.4a3.dev225

  ==> Input File <==

--------------------------------------------------------------------------
#psi4
#
memory 32 gb

molecule  {
0 1
  C        0.8906310    -0.4594820    -0.0000050
  C        1.6569550     0.1328190    -1.1912600
  C        1.6569550     0.1327950     1.1912610
  C        3.1340990     0.0195060    -0.7766230
  C        3.1340970     0.0194780     0.7766250
  C       -0.6139420    -0.2083209    -0.0000020
  C       -1.4969670    -1.2829160    -0.0000100
  C       -1.1118120     1.0929450     0.0000090
  C       -2.8761960    -1.0641450    -0.0000080
  C       -2.4886110     1.3169940     0.0000100
  C       -3.3769130     0.2384400     0.0000020
  H        1.0572190    -1.5476170    -0.0000160
  H        1.3709970     1.1847810    -1.3110530
  H        1.4307960    -0.3756260    -2.1343410
  H        1.4307900    -0.3756630     2.1343350
  H        1.3710040     1.1847570     1.3110690
  H        3.7365840     0.8333760    -1.1915700
  H        3.5617080    -0.9139040    -1.1569620
  H        3.5616920    -0.9139530     1.1569300
  H        3.7365940     0.8333230     1.1916040
  H       -1.1121130    -2.3017550    -0.0000190
  H       -0.4349580     1.9454780     0.0000160
  H       -3.5585010    -1.9112830    -0.0000130
  H       -2.8698420     2.3358160     0.0000180
  H       -4.4501080     0.4133470     0.0000030
units angstrom
no_reorient  #important for SAPT in psi4, default
symmetry c1  #important for SAPT in psi4, default
}

set PROPERTIES_ORIGIN ["COM"]
properties('MP2/aug-cc-pvtz', properties = ['dipole'])
--------------------------------------------------------------------------

    Molecular point group: c1
  Charge       = 0
  Multiplicity = 1
  Basis Set: AUG-CC-PVTZ
    Blend: AUG-CC-PVTZ
  Basis Set: (AUG-CC-PVTZ AUX)
    Blend: AUG-CC-PVTZ-JKFIT

    Orbital Energies [Eh]
    ---------------------

    Doubly Occupied:

       1A    -11.235836     2A    -11.233746     3A    -11.233223
       4A    -11.229472     5A    -11.228162     6A    -11.227981
       7A    -11.227863     8A    -11.216663     9A    -11.216384
      10A    -11.215986    11A    -11.215742    12A     -1.156501
      13A     -1.118961    14A     -1.026329    15A     -1.009902
      16A     -0.960698    17A     -0.943974    18A     -0.831358
      19A     -0.816987    20A     -0.772424    21A     -0.762045
      22A     -0.696171    23A     -0.654407    24A     -0.643120
      25A     -0.620550    26A     -0.609897    27A     -0.583232
      28A     -0.572613    29A     -0.561864    30A     -0.525226
      31A     -0.512665    32A     -0.494668    33A     -0.478765
      34A     -0.470876    35A     -0.462255    36A     -0.460841
      37A     -0.452790    38A     -0.452598    39A     -0.332979
      40A     -0.321718

  @DF-RHF Final Energy:  -424.84639723768578

   => Energetics <=

    Nuclear Repulsion Energy =            580.7769092627593182
    One-Electron Energy =               -1725.6716687967057169
    Two-Electron Energy =                 720.0483622962606205
    Total Energy =                       -424.8463972376857782
  Basis Set: (AUG-CC-PVTZ AUX)
    Blend: AUG-CC-PVTZ-RI
    Molecular point group: c1

    Geometry (in Angstrom), charge = 0, multiplicity = 1:

       Center              X                  Y                   Z               Mass
    ------------   -----------------  -----------------  -----------------  -----------------
         C            0.952225032474    -0.457096765025    -0.000004924768    12.000000000000
         C            1.718549032474     0.135204234975    -1.191259924768    12.000000000000
         C            1.718549032474     0.135180234975     1.191261075232    12.000000000000
         C            3.195693032474     0.021891234975    -0.776622924768    12.000000000000
         C            3.195691032474     0.021863234975     0.776625075232    12.000000000000
         C           -0.552347967526    -0.205935665025    -0.000001924768    12.000000000000
         C           -1.435372967526    -1.280530765025    -0.000009924768    12.000000000000
         C           -1.050217967526     1.095330234975     0.000009075232    12.000000000000
         C           -2.814601967526    -1.061759765025    -0.000007924768    12.000000000000
         C           -2.427016967526     1.319379234975     0.000010075232    12.000000000000
         C           -3.315318967526     0.240825234975     0.000002075232    12.000000000000
         H            1.118813032474    -1.545231765025    -0.000015924768     1.007825032230
         H            1.432591032474     1.187166234975    -1.311052924768     1.007825032230
         H            1.492390032474    -0.373240765025    -2.134340924768     1.007825032230
         H            1.492384032474    -0.373277765025     2.134335075232     1.007825032230
         H            1.432598032474     1.187142234975     1.311069075232     1.007825032230
         H            3.798178032474     0.835761234975    -1.191569924768     1.007825032230
         H            3.623302032474    -0.911518765025    -1.156961924768     1.007825032230
         H            3.623286032474    -0.911567765025     1.156930075232     1.007825032230
         H            3.798188032474     0.835708234975     1.191604075232     1.007825032230
         H           -1.050518967526    -2.299369765025    -0.000018924768     1.007825032230
         H           -0.373363967526     1.947863234975     0.000016075232     1.007825032230
         H           -3.496906967526    -1.908897765025    -0.000012924768     1.007825032230
         H           -2.808247967526     2.338201234975     0.000018075232     1.007825032230
         H           -4.388513967526     0.415732234975     0.000003075232     1.007825032230

  Basis Set: AUG-CC-PVTZ
    Blend: AUG-CC-PVTZ
  Basis Set: (AUG-CC-PVTZ AUX)
    Blend: AUG-CC-PVTZ-JKFIT
	 Reference Energy          =    -424.8463972376857782 [Eh]
	 Singles Energy            =      -0.0000000000000000 [Eh]
	 Same-Spin Energy          =      -0.4750650872810437 [Eh]
	 Opposite-Spin Energy      =      -1.5695987187502300 [Eh]
	 Correlation Energy        =      -2.0446638060312736 [Eh]
	 Total Energy              =    -426.8910610437170590 [Eh]

	 ================> DF-SCS-MP2 Energies <==================
	-----------------------------------------------------------
	 SCS Same-Spin Scale       =       0.3333333333333333 [-]
	 SCS Opposite-Spin Scale   =       1.2000000000000000 [-]
	 SCS Same-Spin Energy      =      -0.1583550290936812 [Eh]
	 SCS Opposite-Spin Energy  =      -1.8835184625002759 [Eh]
	 SCS Correlation Energy    =      -2.0418734915939569 [Eh]
	 SCS Total Energy          =    -426.8882707292797249 [Eh]
	-----------------------------------------------------------

  Dipole Moment: [D]
     X:     0.4372      Y:    -0.0361      Z:    -0.0000     Total:     0.4387

*** Psi4 exiting successfully. Buy a developer a beer!
