                               Psi4 1.3.2 release

  ==> Input File <==

--------------------------------------------------------------------------
#psi4
#
memory 32 gb

molecule  {
0 1
  C        0.8906310    -0.4594820    -0.0000050
  C        1.6569550     0.1328190    -1.1912600
  C        1.5635300     0.1704823     1.2278025
  C        3.1340990     0.0195060    -0.7766230
  C        3.1340970     0.0194780     0.7766250
  C       -0.5942150    -0.2116140    -0.0000020
  C       -1.4969670    -1.2829160    -0.0000100
  C       -1.1118120     1.0929450     0.0000090
  C       -2.8761960    -1.0641450    -0.0000080
  C       -2.4886110     1.3169940     0.0000100
  C       -3.3769130     0.2384400     0.0000020
  H        1.0572190    -1.5476170    -0.0000160
  H        1.3709970     1.1847810    -1.3110530
  H        1.4307960    -0.3756260    -2.1343410
  H        1.4307900    -0.3756630     2.1343350
  H        1.3710040     1.1847570     1.3110690
  H        3.7365840     0.8333760    -1.1915700
  H        3.5617080    -0.9139040    -1.1569620
  H        3.5616920    -0.9139530     1.1569300
  H        3.7365940     0.8333230     1.1916040
  H       -1.1121130    -2.3017550    -0.0000190
  H       -0.4349580     1.9454780     0.0000160
  H       -3.5585010    -1.9112830    -0.0000130
  H       -2.8698420     2.3358160     0.0000180
  H       -4.4501080     0.4133470     0.0000030
units angstrom
no_reorient  #important for SAPT in psi4, default
symmetry c1  #important for SAPT in psi4, default
}

set PROPERTIES_ORIGIN ["COM"]
properties('MP2/aug-cc-pvtz', properties = ['dipole'])
--------------------------------------------------------------------------

    Molecular point group: c1
  Charge       = 0
  Multiplicity = 1
  Basis Set: AUG-CC-PVTZ
    Blend: AUG-CC-PVTZ
  Basis Set: (AUG-CC-PVTZ AUX)
    Blend: AUG-CC-PVTZ-JKFIT

    Orbital Energies [Eh]
    ---------------------

    Doubly Occupied:

       1A    -11.236062     2A    -11.233375     3A    -11.232690
       4A    -11.228765     5A    -11.228647     6A    -11.228368
       7A    -11.227729     8A    -11.219764     9A    -11.217488
      10A    -11.216233    11A    -11.214644    12A     -1.154731
      13A     -1.113517    14A     -1.025023    15A     -1.008223
      16A     -0.958479    17A     -0.942178    18A     -0.833273
      19A     -0.816699    20A     -0.776232    21A     -0.762932
      22A     -0.694987    23A     -0.655984    24A     -0.641660
      25A     -0.618925    26A     -0.606577    27A     -0.584733
      28A     -0.580456    29A     -0.562709    30A     -0.522088
      31A     -0.514239    32A     -0.496109    33A     -0.478287
      34A     -0.473033    35A     -0.468634    36A     -0.460437
      37A     -0.455244    38A     -0.436987    39A     -0.332236
      40A     -0.317979

  @DF-RHF Final Energy:  -424.83680843620868

   => Energetics <=

    Nuclear Repulsion Energy =            580.2986414116847982
    One-Electron Energy =               -1724.7181858157873648
    Two-Electron Energy =                 719.5827359678937682
    Total Energy =                       -424.8368084362086847
  Basis Set: (AUG-CC-PVTZ AUX)
    Blend: AUG-CC-PVTZ-RI
    Molecular point group: c1

    Geometry (in Angstrom), charge = 0, multiplicity = 1:

       Center              X                  Y                   Z               Mass
    ------------   -----------------  -----------------  -----------------  -----------------
         C            0.958277860624    -0.459921565996    -0.003006083820    12.000000000000
         C            1.724601860624     0.132379434004    -1.194261083820    12.000000000000
         C            1.631176860624     0.170042734004     1.224801416180    12.000000000000
         C            3.201745860624     0.019066434004    -0.779624083820    12.000000000000
         C            3.201743860624     0.019038434004     0.773623916180    12.000000000000
         C           -0.526568139376    -0.212053565996    -0.003003083820    12.000000000000
         C           -1.429320139376    -1.283355565996    -0.003011083820    12.000000000000
         C           -1.044165139376     1.092505434004    -0.002992083820    12.000000000000
         C           -2.808549139376    -1.064584565996    -0.003009083820    12.000000000000
         C           -2.420964139376     1.316554434004    -0.002991083820    12.000000000000
         C           -3.309266139376     0.238000434004    -0.002999083820    12.000000000000
         H            1.124865860624    -1.548056565996    -0.003017083820     1.007825032230
         H            1.438643860624     1.184341434004    -1.314054083820     1.007825032230
         H            1.498442860624    -0.376065565996    -2.137342083820     1.007825032230
         H            1.498436860624    -0.376102565996     2.131333916180     1.007825032230
         H            1.438650860624     1.184317434004     1.308067916180     1.007825032230
         H            3.804230860624     0.832936434004    -1.194571083820     1.007825032230
         H            3.629354860624    -0.914343565996    -1.159963083820     1.007825032230
         H            3.629338860624    -0.914392565996     1.153928916180     1.007825032230
         H            3.804240860624     0.832883434004     1.188602916180     1.007825032230
         H           -1.044466139376    -2.302194565996    -0.003020083820     1.007825032230
         H           -0.367311139376     1.945038434004    -0.002985083820     1.007825032230
         H           -3.490854139376    -1.911722565996    -0.003014083820     1.007825032230
         H           -2.802195139376     2.335376434004    -0.002983083820     1.007825032230
         H           -4.382461139376     0.412907434004    -0.002998083820     1.007825032230

  Basis Set: AUG-CC-PVTZ
    Blend: AUG-CC-PVTZ
  Basis Set: (AUG-CC-PVTZ AUX)
    Blend: AUG-CC-PVTZ-JKFIT
	 Reference Energy          =    -424.8368084362086847 [Eh]
	 Singles Energy            =      -0.0000000000000000 [Eh]
	 Same-Spin Energy          =      -0.4751395009640378 [Eh]
	 Opposite-Spin Energy      =      -1.5704308133632456 [Eh]
	 Correlation Energy        =      -2.0455703143272834 [Eh]
	 Total Energy              =    -426.8823787505359633 [Eh]

	 ================> DF-SCS-MP2 Energies <==================
	-----------------------------------------------------------
	 SCS Same-Spin Scale       =       0.3333333333333333 [-]
	 SCS Opposite-Spin Scale   =       1.2000000000000000 [-]
	 SCS Same-Spin Energy      =      -0.1583798336546793 [Eh]
	 SCS Opposite-Spin Energy  =      -1.8845169760358946 [Eh]
	 SCS Correlation Energy    =      -2.0428968096905740 [Eh]
	 SCS Total Energy          =    -426.8797052458992312 [Eh]
	-----------------------------------------------------------

  Dipole Moment: [D]
     X:     0.5098      Y:    -0.0285      Z:     0.0035     Total:     0.5106

*** Psi4 exiting successfully. Buy a developer a beer!
