                               Psi4 1.4a3.dev225

  ==> Input File <==

--------------------------------------------------------------------------
#psi4
#
memory 32 gb

molecule  {
0 1
  C        0.8906310    -0.4594820    -0.0000050
  C        1.6569550     0.1328190    -1.1912600
  C        1.6819117     0.1520836     1.2300568
  C        3.1340990     0.0195060    -0.7766230
  C        3.1340970     0.0194780     0.7766250
  C       -0.5942150    -0.2116140    -0.0000020
  C       -1.4969670    -1.2829160    -0.0000100
  C       -1.1118120     1.0929450     0.0000090
  C       -2.8761960    -1.0641450    -0.0000080
  C       -2.4886110     1.3169940     0.0000100
  C       -3.3769130     0.2384400     0.0000020
  H        1.0572190    -1.5476170    -0.0000160
  H        1.3709970     1.1847810    -1.3110530
  H        1.4307960    -0.3756260    -2.1343410
  H        1.4307900    -0.3756630     2.1343350
  H        1.3710040     1.1847570     1.3110690
  H        3.7365840     0.8333760    -1.1915700
  H        3.5617080    -0.9139040    -1.1569620
  H        3.5616920    -0.9139530     1.1569300
  H        3.7365940     0.8333230     1.1916040
  H       -1.1121130    -2.3017550    -0.0000190
  H       -0.4349580     1.9454780     0.0000160
  H       -3.5585010    -1.9112830    -0.0000130
  H       -2.8698420     2.3358160     0.0000180
  H       -4.4501080     0.4133470     0.0000030
units angstrom
no_reorient  #important for SAPT in psi4, default
symmetry c1  #important for SAPT in psi4, default
}

set PROPERTIES_ORIGIN ["COM"]
properties('MP2/aug-cc-pvtz', properties = ['dipole'])
--------------------------------------------------------------------------

    Molecular point group: c1
  Charge       = 0
  Multiplicity = 1
  Basis Set: AUG-CC-PVTZ
    Blend: AUG-CC-PVTZ
  Basis Set: (AUG-CC-PVTZ AUX)
    Blend: AUG-CC-PVTZ-JKFIT

    Orbital Energies [Eh]
    ---------------------

    Doubly Occupied:

       1A    -11.236947     2A    -11.233542     3A    -11.233009
       4A    -11.229368     5A    -11.229092     6A    -11.228910
       7A    -11.228578     8A    -11.217199     9A    -11.216550
      10A    -11.216323    11A    -11.215774    12A     -1.154141
      13A     -1.116376    14A     -1.026978    15A     -1.008570
      16A     -0.963429    17A     -0.941028    18A     -0.832023
      19A     -0.816871    20A     -0.773433    21A     -0.762242
      22A     -0.694751    23A     -0.655017    24A     -0.643642
      25A     -0.620337    26A     -0.609021    27A     -0.581406
      28A     -0.575742    29A     -0.561713    30A     -0.524451
      31A     -0.510957    32A     -0.493579    33A     -0.483294
      34A     -0.472808    35A     -0.468148    36A     -0.459589
      37A     -0.453768    38A     -0.445825    39A     -0.332467
      40A     -0.318672

  @DF-RHF Final Energy:  -424.84453227811969

   => Energetics <=

    Nuclear Repulsion Energy =            579.9876574813948764
    One-Electron Energy =               -1724.0932332257318649
    Two-Electron Energy =                 719.2610434662171883
    Total Energy =                       -424.8445322781196865
  Basis Set: (AUG-CC-PVTZ AUX)
    Blend: AUG-CC-PVTZ-RI
    Molecular point group: c1

    Geometry (in Angstrom), charge = 0, multiplicity = 1:

       Center              X                  Y                   Z               Mass
    ------------   -----------------  -----------------  -----------------  -----------------
         C            0.948555153274    -0.458410477917    -0.003191229828    12.000000000000
         C            1.714879153274     0.133890522083    -1.194446229828    12.000000000000
         C            1.739835853274     0.153155122083     1.226870570172    12.000000000000
         C            3.192023153274     0.020577522083    -0.779809229828    12.000000000000
         C            3.192021153274     0.020549522083     0.773438770172    12.000000000000
         C           -0.536290846726    -0.210542477917    -0.003188229828    12.000000000000
         C           -1.439042846726    -1.281844477917    -0.003196229828    12.000000000000
         C           -1.053887846726     1.094016522083    -0.003177229828    12.000000000000
         C           -2.818271846726    -1.063073477917    -0.003194229828    12.000000000000
         C           -2.430686846726     1.318065522083    -0.003176229828    12.000000000000
         C           -3.318988846726     0.239511522083    -0.003184229828    12.000000000000
         H            1.115143153274    -1.546545477917    -0.003202229828     1.007825032230
         H            1.428921153274     1.185852522083    -1.314239229828     1.007825032230
         H            1.488720153274    -0.374554477917    -2.137527229828     1.007825032230
         H            1.488714153274    -0.374591477917     2.131148770172     1.007825032230
         H            1.428928153274     1.185828522083     1.307882770172     1.007825032230
         H            3.794508153274     0.834447522083    -1.194756229828     1.007825032230
         H            3.619632153274    -0.912832477917    -1.160148229828     1.007825032230
         H            3.619616153274    -0.912881477917     1.153743770172     1.007825032230
         H            3.794518153274     0.834394522083     1.188417770172     1.007825032230
         H           -1.054188846726    -2.300683477917    -0.003205229828     1.007825032230
         H           -0.377033846726     1.946549522083    -0.003170229828     1.007825032230
         H           -3.500576846726    -1.910211477917    -0.003199229828     1.007825032230
         H           -2.811917846726     2.336887522083    -0.003168229828     1.007825032230
         H           -4.392183846726     0.414418522083    -0.003183229828     1.007825032230

  Basis Set: AUG-CC-PVTZ
    Blend: AUG-CC-PVTZ
  Basis Set: (AUG-CC-PVTZ AUX)
    Blend: AUG-CC-PVTZ-JKFIT
	 Reference Energy          =    -424.8445322781196865 [Eh]
	 Singles Energy            =      -0.0000000000000000 [Eh]
	 Same-Spin Energy          =      -0.4751407363053946 [Eh]
	 Opposite-Spin Energy      =      -1.5699523066955854 [Eh]
	 Correlation Energy        =      -2.0450930430009802 [Eh]
	 Total Energy              =    -426.8896253211206613 [Eh]

	 ================> DF-SCS-MP2 Energies <==================
	-----------------------------------------------------------
	 SCS Same-Spin Scale       =       0.3333333333333333 [-]
	 SCS Opposite-Spin Scale   =       1.2000000000000000 [-]
	 SCS Same-Spin Energy      =      -0.1583802454351315 [Eh]
	 SCS Opposite-Spin Energy  =      -1.8839427680347023 [Eh]
	 SCS Correlation Energy    =      -2.0423230134698338 [Eh]
	 SCS Total Energy          =    -426.8868552915895407 [Eh]
	-----------------------------------------------------------

  Dipole Moment: [D]
     X:     0.4827      Y:    -0.0407      Z:     0.0017     Total:     0.4844

*** Psi4 exiting successfully. Buy a developer a beer!
