                               Psi4 1.3.2 release

  ==> Input File <==

--------------------------------------------------------------------------
#psi4
#
memory 32 gb

molecule  {
0 1
  C        0.8906310    -0.4594820    -0.0000050
  C        1.6569550     0.1328190    -1.1912600
  C        1.6569550     0.1327950     1.1912610
  C        3.1340990     0.0195060    -0.7766230
  C        3.1340970     0.0194780     0.7766250
  C       -0.5733076    -0.1086402    -0.0000010
  C       -1.4969670    -1.2829160    -0.0000100
  C       -1.1118120     1.0929450     0.0000090
  C       -2.8761960    -1.0641450    -0.0000080
  C       -2.4886110     1.3169940     0.0000100
  C       -3.3769130     0.2384400     0.0000020
  H        1.0572190    -1.5476170    -0.0000160
  H        1.3709970     1.1847810    -1.3110530
  H        1.4307960    -0.3756260    -2.1343410
  H        1.4307900    -0.3756630     2.1343350
  H        1.3710040     1.1847570     1.3110690
  H        3.7365840     0.8333760    -1.1915700
  H        3.5617080    -0.9139040    -1.1569620
  H        3.5616920    -0.9139530     1.1569300
  H        3.7365940     0.8333230     1.1916040
  H       -1.1121130    -2.3017550    -0.0000190
  H       -0.4349580     1.9454780     0.0000160
  H       -3.5585010    -1.9112830    -0.0000130
  H       -2.8698420     2.3358160     0.0000180
  H       -4.4501080     0.4133470     0.0000030
units angstrom
no_reorient  #important for SAPT in psi4, default
symmetry c1  #important for SAPT in psi4, default
}

set PROPERTIES_ORIGIN ["COM"]
properties('MP2/aug-cc-pvtz', properties = ['dipole'])
--------------------------------------------------------------------------

    Molecular point group: c1
  Charge       = 0
  Multiplicity = 1
  Basis Set: AUG-CC-PVTZ
    Blend: AUG-CC-PVTZ
  Basis Set: (AUG-CC-PVTZ AUX)
    Blend: AUG-CC-PVTZ-JKFIT

    Orbital Energies [Eh]
    ---------------------

    Doubly Occupied:

       1A    -11.237228     2A    -11.236015     3A    -11.234146
       4A    -11.232208     5A    -11.229523     6A    -11.228115
       7A    -11.218735     8A    -11.216503     9A    -11.216263
      10A    -11.215868    11A    -11.215584    12A     -1.157224
      13A     -1.119282    14A     -1.031535    15A     -1.005220
      16A     -0.961130    17A     -0.944557    18A     -0.827717
      19A     -0.822993    20A     -0.773027    21A     -0.757644
      22A     -0.696922    23A     -0.654742    24A     -0.646408
      25A     -0.622442    26A     -0.604573    27A     -0.581755
      28A     -0.572916    29A     -0.564535    30A     -0.524900
      31A     -0.513711    32A     -0.494202    33A     -0.478950
      34A     -0.474203    35A     -0.469432    36A     -0.461073
      37A     -0.452970    38A     -0.439372    39A     -0.339796
      40A     -0.314098

  @DF-RHF Final Energy:  -424.83278521099686

   => Energetics <=

    Nuclear Repulsion Energy =            581.0517972983587924
    One-Electron Energy =               -1726.1941216176912803
    Two-Electron Energy =                 720.3095391083356844
    Total Energy =                       -424.8327852109969172
  Basis Set: (AUG-CC-PVTZ AUX)
    Blend: AUG-CC-PVTZ-RI
    Molecular point group: c1

    Geometry (in Angstrom), charge = 0, multiplicity = 1:

       Center              X                  Y                   Z               Mass
    ------------   -----------------  -----------------  -----------------  -----------------
         C            0.948887722910    -0.465283556349    -0.000005006898    12.000000000000
         C            1.715211722910     0.127017443651    -1.191260006898    12.000000000000
         C            1.715211722910     0.126993443651     1.191260993102    12.000000000000
         C            3.192355722910     0.013704443651    -0.776623006898    12.000000000000
         C            3.192353722910     0.013676443651     0.776624993102    12.000000000000
         C           -0.515050877090    -0.114441756349    -0.000001006898    12.000000000000
         C           -1.438710277090    -1.288717556349    -0.000010006898    12.000000000000
         C           -1.053555277090     1.087143443651     0.000008993102    12.000000000000
         C           -2.817939277090    -1.069946556349    -0.000008006898    12.000000000000
         C           -2.430354277090     1.311192443651     0.000009993102    12.000000000000
         C           -3.318656277090     0.232638443651     0.000001993102    12.000000000000
         H            1.115475722910    -1.553418556349    -0.000016006898     1.007825032230
         H            1.429253722910     1.178979443651    -1.311053006898     1.007825032230
         H            1.489052722910    -0.381427556349    -2.134341006898     1.007825032230
         H            1.489046722910    -0.381464556349     2.134334993102     1.007825032230
         H            1.429260722910     1.178955443651     1.311068993102     1.007825032230
         H            3.794840722910     0.827574443651    -1.191570006898     1.007825032230
         H            3.619964722910    -0.919705556349    -1.156962006898     1.007825032230
         H            3.619948722910    -0.919754556349     1.156929993102     1.007825032230
         H            3.794850722910     0.827521443651     1.191603993102     1.007825032230
         H           -1.053856277090    -2.307556556349    -0.000019006898     1.007825032230
         H           -0.376701277090     1.939676443651     0.000015993102     1.007825032230
         H           -3.500244277090    -1.917084556349    -0.000013006898     1.007825032230
         H           -2.811585277090     2.330014443651     0.000017993102     1.007825032230
         H           -4.391851277090     0.407545443651     0.000002993102     1.007825032230

  Basis Set: AUG-CC-PVTZ
    Blend: AUG-CC-PVTZ
  Basis Set: (AUG-CC-PVTZ AUX)
    Blend: AUG-CC-PVTZ-JKFIT
	 Reference Energy          =    -424.8327852109968603 [Eh]
	 Singles Energy            =      -0.0000000000000000 [Eh]
	 Same-Spin Energy          =      -0.4751089432528375 [Eh]
	 Opposite-Spin Energy      =      -1.5705843570692055 [Eh]
	 Correlation Energy        =      -2.0456933003220428 [Eh]
	 Total Energy              =    -426.8784785113189173 [Eh]

	 ================> DF-SCS-MP2 Energies <==================
	-----------------------------------------------------------
	 SCS Same-Spin Scale       =       0.3333333333333333 [-]
	 SCS Opposite-Spin Scale   =       1.2000000000000000 [-]
	 SCS Same-Spin Energy      =      -0.1583696477509458 [Eh]
	 SCS Opposite-Spin Energy  =      -1.8847012284830464 [Eh]
	 SCS Correlation Energy    =      -2.0430708762339922 [Eh]
	 SCS Total Energy          =    -426.8758560872308294 [Eh]
	-----------------------------------------------------------

  Dipole Moment: [D]
     X:     0.4851      Y:    -0.0720      Z:    -0.0000     Total:     0.4904

*** Psi4 exiting successfully. Buy a developer a beer!
