                               Psi4 1.3.2 release

  ==> Input File <==

--------------------------------------------------------------------------
#psi4
#
memory 32 gb

molecule  {
0 1
  C        0.8947307    -0.4335301    -0.0000048
  C        1.6569550     0.1328190    -1.1912600
  C        1.6569550     0.1327950     1.1912610
  C        3.1340990     0.0195060    -0.7766230
  C        3.1340970     0.0194780     0.7766250
  C       -0.5942150    -0.2116140    -0.0000020
  C       -1.4969670    -1.2829160    -0.0000100
  C       -1.1118120     1.0929450     0.0000090
  C       -2.8761960    -1.0641450    -0.0000080
  C       -2.4886110     1.3169940     0.0000100
  C       -3.3769130     0.2384400     0.0000020
  H        1.0572190    -1.5476170    -0.0000160
  H        1.3709970     1.1847810    -1.3110530
  H        1.4307960    -0.3756260    -2.1343410
  H        1.4307900    -0.3756630     2.1343350
  H        1.3710040     1.1847570     1.3110690
  H        3.7365840     0.8333760    -1.1915700
  H        3.5617080    -0.9139040    -1.1569620
  H        3.5616920    -0.9139530     1.1569300
  H        3.7365940     0.8333230     1.1916040
  H       -1.1121130    -2.3017550    -0.0000190
  H       -0.4349580     1.9454780     0.0000160
  H       -3.5585010    -1.9112830    -0.0000130
  H       -2.8698420     2.3358160     0.0000180
  H       -4.4501080     0.4133470     0.0000030
units angstrom
no_reorient  #important for SAPT in psi4, default
symmetry c1  #important for SAPT in psi4, default
}

set PROPERTIES_ORIGIN ["COM"]
properties('MP2/aug-cc-pvtz', properties = ['dipole'])
--------------------------------------------------------------------------

    Molecular point group: c1
  Charge       = 0
  Multiplicity = 1
  Basis Set: AUG-CC-PVTZ
    Blend: AUG-CC-PVTZ
  Basis Set: (AUG-CC-PVTZ AUX)
    Blend: AUG-CC-PVTZ-JKFIT

    Orbital Energies [Eh]
    ---------------------

    Doubly Occupied:

       1A    -11.237275     2A    -11.233630     3A    -11.233365
       4A    -11.229848     5A    -11.229425     6A    -11.228980
       7A    -11.228439     8A    -11.217072     9A    -11.216661
      10A    -11.216155    11A    -11.216045    12A     -1.156447
      13A     -1.120779    14A     -1.027302    15A     -1.008888
      16A     -0.962509    17A     -0.944799    18A     -0.831007
      19A     -0.817576    20A     -0.774179    21A     -0.759907
      22A     -0.695706    23A     -0.656277    24A     -0.645730
      25A     -0.619590    26A     -0.609684    27A     -0.581575
      28A     -0.572979    29A     -0.560212    30A     -0.525984
      31A     -0.513576    32A     -0.492644    33A     -0.480936
      34A     -0.472144    35A     -0.463818    36A     -0.463747
      37A     -0.453113    38A     -0.449213    39A     -0.332679
      40A     -0.320598

  @DF-RHF Final Energy:  -424.84523734994065

   => Energetics <=

    Nuclear Repulsion Energy =            580.9854244229236429
    One-Electron Energy =               -1726.0603403361844812
    Two-Electron Energy =                 720.2296785633202489
    Total Energy =                       -424.8452373499405894
  Basis Set: (AUG-CC-PVTZ AUX)
    Blend: AUG-CC-PVTZ-RI
    Molecular point group: c1

    Geometry (in Angstrom), charge = 0, multiplicity = 1:

       Center              X                  Y                   Z               Mass
    ------------   -----------------  -----------------  -----------------  -----------------
         C            0.954367841914    -0.433005835777    -0.000004741194    12.000000000000
         C            1.716592141914     0.133343264223    -1.191259941194    12.000000000000
         C            1.716592141914     0.133319264223     1.191261058806    12.000000000000
         C            3.193736141914     0.020030264223    -0.776622941194    12.000000000000
         C            3.193734141914     0.020002264223     0.776625058806    12.000000000000
         C           -0.534577858086    -0.211089735777    -0.000001941194    12.000000000000
         C           -1.437329858086    -1.282391735777    -0.000009941194    12.000000000000
         C           -1.052174858086     1.093469264223     0.000009058806    12.000000000000
         C           -2.816558858086    -1.063620735777    -0.000007941194    12.000000000000
         C           -2.428973858086     1.317518264223     0.000010058806    12.000000000000
         C           -3.317275858086     0.238964264223     0.000002058806    12.000000000000
         H            1.116856141914    -1.547092735777    -0.000015941194     1.007825032230
         H            1.430634141914     1.185305264223    -1.311052941194     1.007825032230
         H            1.490433141914    -0.375101735777    -2.134340941194     1.007825032230
         H            1.490427141914    -0.375138735777     2.134335058806     1.007825032230
         H            1.430641141914     1.185281264223     1.311069058806     1.007825032230
         H            3.796221141914     0.833900264223    -1.191569941194     1.007825032230
         H            3.621345141914    -0.913379735777    -1.156961941194     1.007825032230
         H            3.621329141914    -0.913428735777     1.156930058806     1.007825032230
         H            3.796231141914     0.833847264223     1.191604058806     1.007825032230
         H           -1.052475858086    -2.301230735777    -0.000018941194     1.007825032230
         H           -0.375320858086     1.946002264223     0.000016058806     1.007825032230
         H           -3.498863858086    -1.910758735777    -0.000012941194     1.007825032230
         H           -2.810204858086     2.336340264223     0.000018058806     1.007825032230
         H           -4.390470858086     0.413871264223     0.000003058806     1.007825032230

  Basis Set: AUG-CC-PVTZ
    Blend: AUG-CC-PVTZ
  Basis Set: (AUG-CC-PVTZ AUX)
    Blend: AUG-CC-PVTZ-JKFIT
	 Reference Energy          =    -424.8452373499406463 [Eh]
	 Singles Energy            =      -0.0000000000000000 [Eh]
	 Same-Spin Energy          =      -0.4754262030357040 [Eh]
	 Opposite-Spin Energy      =      -1.5701479911288030 [Eh]
	 Correlation Energy        =      -2.0455741941645069 [Eh]
	 Total Energy              =    -426.8908115441051336 [Eh]

	 ================> DF-SCS-MP2 Energies <==================
	-----------------------------------------------------------
	 SCS Same-Spin Scale       =       0.3333333333333333 [-]
	 SCS Opposite-Spin Scale   =       1.2000000000000000 [-]
	 SCS Same-Spin Energy      =      -0.1584754010119013 [Eh]
	 SCS Opposite-Spin Energy  =      -1.8841775893545636 [Eh]
	 SCS Correlation Energy    =      -2.0426529903664647 [Eh]
	 SCS Total Energy          =    -426.8878903403071376 [Eh]
	-----------------------------------------------------------

  Dipole Moment: [D]
     X:     0.4607      Y:    -0.0182      Z:    -0.0000     Total:     0.4610

*** Psi4 exiting successfully. Buy a developer a beer!
