                               Psi4 1.3.2 release

  ==> Input File <==

--------------------------------------------------------------------------
#psi4
#
memory 32 gb

molecule  {
0 1
  C        0.8906310    -0.4594820    -0.0000050
  C        1.6569550     0.1328190    -1.1912600
  C        1.6569550     0.1327950     1.1912610
  C        3.1340990     0.0195060    -0.7766230
  C        3.1340970     0.0194780     0.7766250
  C       -0.6119901    -0.3681805    -0.0000036
  C       -1.4969670    -1.2829160    -0.0000100
  C       -1.1118120     1.0929450     0.0000090
  C       -2.8761960    -1.0641450    -0.0000080
  C       -2.4886110     1.3169940     0.0000100
  C       -3.3769130     0.2384400     0.0000020
  H        1.0572190    -1.5476170    -0.0000160
  H        1.3709970     1.1847810    -1.3110530
  H        1.4307960    -0.3756260    -2.1343410
  H        1.4307900    -0.3756630     2.1343350
  H        1.3710040     1.1847570     1.3110690
  H        3.7365840     0.8333760    -1.1915700
  H        3.5617080    -0.9139040    -1.1569620
  H        3.5616920    -0.9139530     1.1569300
  H        3.7365940     0.8333230     1.1916040
  H       -1.1121130    -2.3017550    -0.0000190
  H       -0.4349580     1.9454780     0.0000160
  H       -3.5585010    -1.9112830    -0.0000130
  H       -2.8698420     2.3358160     0.0000180
  H       -4.4501080     0.4133470     0.0000030
units angstrom
no_reorient  #important for SAPT in psi4, default
symmetry c1  #important for SAPT in psi4, default
}

set PROPERTIES_ORIGIN ["COM"]
properties('MP2/aug-cc-pvtz', properties = ['dipole'])
--------------------------------------------------------------------------

    Molecular point group: c1
  Charge       = 0
  Multiplicity = 1
  Basis Set: AUG-CC-PVTZ
    Blend: AUG-CC-PVTZ
  Basis Set: (AUG-CC-PVTZ AUX)
    Blend: AUG-CC-PVTZ-JKFIT

    Orbital Energies [Eh]
    ---------------------

    Doubly Occupied:

       1A    -11.240294     2A    -11.234604     3A    -11.233624
       4A    -11.231986     5A    -11.230628     6A    -11.228505
       7A    -11.218381     8A    -11.218334     9A    -11.217716
      10A    -11.217244    11A    -11.213674    12A     -1.157787
      13A     -1.120038    14A     -1.038122    15A     -1.002275
      16A     -0.961844    17A     -0.945620    18A     -0.840401
      19A     -0.805576    20A     -0.773362    21A     -0.766283
      22A     -0.694737    23A     -0.655885    24A     -0.648968
      25A     -0.619960    26A     -0.610593    27A     -0.577968
      28A     -0.574077    29A     -0.558120    30A     -0.525900
      31A     -0.513861    32A     -0.497466    33A     -0.480067
      34A     -0.471636    35A     -0.466488    36A     -0.461366
      37A     -0.453837    38A     -0.435971    39A     -0.348911
      40A     -0.310566

  @DF-RHF Final Energy:  -424.81650309951624

   => Energetics <=

    Nuclear Repulsion Energy =            580.4737332225824957
    One-Electron Energy =               -1724.9751209309820297
    Two-Electron Energy =                 719.6848846088832943
    Total Energy =                       -424.8165030995162397
  Basis Set: (AUG-CC-PVTZ AUX)
    Blend: AUG-CC-PVTZ-RI
    Molecular point group: c1

    Geometry (in Angstrom), charge = 0, multiplicity = 1:

       Center              X                  Y                   Z               Mass
    ------------   -----------------  -----------------  -----------------  -----------------
         C            0.952064722624    -0.443967471327    -0.000004793359    12.000000000000
         C            1.718388722624     0.148333528673    -1.191259793359    12.000000000000
         C            1.718388722624     0.148309528673     1.191261206641    12.000000000000
         C            3.195532722624     0.035020528673    -0.776622793359    12.000000000000
         C            3.195530722624     0.034992528673     0.776625206641    12.000000000000
         C           -0.550556377376    -0.352665971327    -0.000003393359    12.000000000000
         C           -1.435533277376    -1.267401471327    -0.000009793359    12.000000000000
         C           -1.050378277376     1.108459528673     0.000009206641    12.000000000000
         C           -2.814762277376    -1.048630471327    -0.000007793359    12.000000000000
         C           -2.427177277376     1.332508528673     0.000010206641    12.000000000000
         C           -3.315479277376     0.253954528673     0.000002206641    12.000000000000
         H            1.118652722624    -1.532102471327    -0.000015793359     1.007825032230
         H            1.432430722624     1.200295528673    -1.311052793359     1.007825032230
         H            1.492229722624    -0.360111471327    -2.134340793359     1.007825032230
         H            1.492223722624    -0.360148471327     2.134335206641     1.007825032230
         H            1.432437722624     1.200271528673     1.311069206641     1.007825032230
         H            3.798017722624     0.848890528673    -1.191569793359     1.007825032230
         H            3.623141722624    -0.898389471327    -1.156961793359     1.007825032230
         H            3.623125722624    -0.898438471327     1.156930206641     1.007825032230
         H            3.798027722624     0.848837528673     1.191604206641     1.007825032230
         H           -1.050679277376    -2.286240471327    -0.000018793359     1.007825032230
         H           -0.373524277376     1.960992528673     0.000016206641     1.007825032230
         H           -3.497067277376    -1.895768471327    -0.000012793359     1.007825032230
         H           -2.808408277376     2.351330528673     0.000018206641     1.007825032230
         H           -4.388674277376     0.428861528673     0.000003206641     1.007825032230

  Basis Set: AUG-CC-PVTZ
    Blend: AUG-CC-PVTZ
  Basis Set: (AUG-CC-PVTZ AUX)
    Blend: AUG-CC-PVTZ-JKFIT
	 Reference Energy          =    -424.8165030995162397 [Eh]
	 Singles Energy            =      -0.0000000000000000 [Eh]
	 Same-Spin Energy          =      -0.4744051897093490 [Eh]
	 Opposite-Spin Energy      =      -1.5709053374206767 [Eh]
	 Correlation Energy        =      -2.0453105271300256 [Eh]
	 Total Energy              =    -426.8618136266462670 [Eh]

	 ================> DF-SCS-MP2 Energies <==================
	-----------------------------------------------------------
	 SCS Same-Spin Scale       =       0.3333333333333333 [-]
	 SCS Opposite-Spin Scale   =       1.2000000000000000 [-]
	 SCS Same-Spin Energy      =      -0.1581350632364497 [Eh]
	 SCS Opposite-Spin Energy  =      -1.8850864049048119 [Eh]
	 SCS Correlation Energy    =      -2.0432214681412617 [Eh]
	 SCS Total Energy          =    -426.8597245676575085 [Eh]
	-----------------------------------------------------------

  Dipole Moment: [D]
     X:     0.4922      Y:     0.0141      Z:     0.0000     Total:     0.4924

*** Psi4 exiting successfully. Buy a developer a beer!
