                               Psi4 1.3.2 release

  ==> Input File <==

--------------------------------------------------------------------------
#psi4
#
memory 32 gb

molecule  {
0 1
  C        0.9084061    -0.3029155    -0.0000038
  C        1.6569550     0.1328190    -1.1912600
  C        1.6569550     0.1327950     1.1912610
  C        3.1340990     0.0195060    -0.7766230
  C        3.1340970     0.0194780     0.7766250
  C       -0.5942150    -0.2116140    -0.0000020
  C       -1.4969670    -1.2829160    -0.0000100
  C       -1.1118120     1.0929450     0.0000090
  C       -2.8761960    -1.0641450    -0.0000080
  C       -2.4886110     1.3169940     0.0000100
  C       -3.3769130     0.2384400     0.0000020
  H        1.0572190    -1.5476170    -0.0000160
  H        1.3709970     1.1847810    -1.3110530
  H        1.4307960    -0.3756260    -2.1343410
  H        1.4307900    -0.3756630     2.1343350
  H        1.3710040     1.1847570     1.3110690
  H        3.7365840     0.8333760    -1.1915700
  H        3.5617080    -0.9139040    -1.1569620
  H        3.5616920    -0.9139530     1.1569300
  H        3.7365940     0.8333230     1.1916040
  H       -1.1121130    -2.3017550    -0.0000190
  H       -0.4349580     1.9454780     0.0000160
  H       -3.5585010    -1.9112830    -0.0000130
  H       -2.8698420     2.3358160     0.0000180
  H       -4.4501080     0.4133470     0.0000030
units angstrom
no_reorient  #important for SAPT in psi4, default
symmetry c1  #important for SAPT in psi4, default
}

set PROPERTIES_ORIGIN ["COM"]
properties('MP2/aug-cc-pvtz', properties = ['dipole'])
--------------------------------------------------------------------------

    Molecular point group: c1
  Charge       = 0
  Multiplicity = 1
  Basis Set: AUG-CC-PVTZ
    Blend: AUG-CC-PVTZ
  Basis Set: (AUG-CC-PVTZ AUX)
    Blend: AUG-CC-PVTZ-JKFIT

    Orbital Energies [Eh]
    ---------------------

    Doubly Occupied:

       1A    -11.238858     2A    -11.236049     3A    -11.234765
       4A    -11.233593     5A    -11.232255     6A    -11.231171
       7A    -11.228701     8A    -11.218232     9A    -11.217696
      10A    -11.215851    11A    -11.215837    12A     -1.161316
      13A     -1.128054    14A     -1.028469    15A     -1.009707
      16A     -0.969779    17A     -0.949110    18A     -0.828236
      19A     -0.821316    20A     -0.780987    21A     -0.751243
      22A     -0.696369    23A     -0.662766    24A     -0.649428
      25A     -0.618977    26A     -0.610263    27A     -0.582175
      28A     -0.571631    29A     -0.553310    30A     -0.530475
      31A     -0.524567    32A     -0.491938    33A     -0.491367
      34A     -0.476153    35A     -0.471641    36A     -0.463958
      37A     -0.452882    38A     -0.411595    39A     -0.333364
      40A     -0.324170

  @DF-RHF Final Energy:  -424.81989500335379

   => Energetics <=

    Nuclear Repulsion Energy =            582.0150329988463227
    One-Electron Energy =               -1727.9733547568494032
    Two-Electron Energy =                 721.1384267546491174
    Total Energy =                       -424.8198950033538495
  Basis Set: (AUG-CC-PVTZ AUX)
    Blend: AUG-CC-PVTZ-RI
    Molecular point group: c1

    Geometry (in Angstrom), charge = 0, multiplicity = 1:

       Center              X                  Y                   Z               Mass
    ------------   -----------------  -----------------  -----------------  -----------------
         C            0.966920079194    -0.313118633098    -0.000003823324    12.000000000000
         C            1.715468979194     0.122615866902    -1.191260023324    12.000000000000
         C            1.715468979194     0.122591866902     1.191260976676    12.000000000000
         C            3.192612979194     0.009302866902    -0.776623023324    12.000000000000
         C            3.192610979194     0.009274866902     0.776624976676    12.000000000000
         C           -0.535701020806    -0.221817133098    -0.000002023324    12.000000000000
         C           -1.438453020806    -1.293119133098    -0.000010023324    12.000000000000
         C           -1.053298020806     1.082741866902     0.000008976676    12.000000000000
         C           -2.817682020806    -1.074348133098    -0.000008023324    12.000000000000
         C           -2.430097020806     1.306790866902     0.000009976676    12.000000000000
         C           -3.318399020806     0.228236866902     0.000001976676    12.000000000000
         H            1.115732979194    -1.557820133098    -0.000016023324     1.007825032230
         H            1.429510979194     1.174577866902    -1.311053023324     1.007825032230
         H            1.489309979194    -0.385829133098    -2.134341023324     1.007825032230
         H            1.489303979194    -0.385866133098     2.134334976676     1.007825032230
         H            1.429517979194     1.174553866902     1.311068976676     1.007825032230
         H            3.795097979194     0.823172866902    -1.191570023324     1.007825032230
         H            3.620221979194    -0.924107133098    -1.156962023324     1.007825032230
         H            3.620205979194    -0.924156133098     1.156929976676     1.007825032230
         H            3.795107979194     0.823119866902     1.191603976676     1.007825032230
         H           -1.053599020806    -2.311958133098    -0.000019023324     1.007825032230
         H           -0.376444020806     1.935274866902     0.000015976676     1.007825032230
         H           -3.499987020806    -1.921486133098    -0.000013023324     1.007825032230
         H           -2.811328020806     2.325612866902     0.000017976676     1.007825032230
         H           -4.391594020806     0.403143866902     0.000002976676     1.007825032230

  Basis Set: AUG-CC-PVTZ
    Blend: AUG-CC-PVTZ
  Basis Set: (AUG-CC-PVTZ AUX)
    Blend: AUG-CC-PVTZ-JKFIT
	 Reference Energy          =    -424.8198950033537926 [Eh]
	 Singles Energy            =      -0.0000000000000000 [Eh]
	 Same-Spin Energy          =      -0.4767790981048300 [Eh]
	 Opposite-Spin Energy      =      -1.5724472386360842 [Eh]
	 Correlation Energy        =      -2.0492263367409143 [Eh]
	 Total Energy              =    -426.8691213400946936 [Eh]

	 ================> DF-SCS-MP2 Energies <==================
	-----------------------------------------------------------
	 SCS Same-Spin Scale       =       0.3333333333333333 [-]
	 SCS Opposite-Spin Scale   =       1.2000000000000000 [-]
	 SCS Same-Spin Energy      =      -0.1589263660349433 [Eh]
	 SCS Opposite-Spin Energy  =      -1.8869366863633008 [Eh]
	 SCS Correlation Energy    =      -2.0458630523982442 [Eh]
	 SCS Total Energy          =    -426.8657580557520532 [Eh]
	-----------------------------------------------------------

  Dipole Moment: [D]
     X:     0.3894      Y:     0.0949      Z:     0.0000     Total:     0.4008

*** Psi4 exiting successfully. Buy a developer a beer!
