                               Psi4 1.3.2 release

  ==> Input File <==

--------------------------------------------------------------------------
#psi4
#
memory 32 gb

molecule  {
0 1
  C        0.8906310    -0.4594820    -0.0000050
  C        1.6569550     0.1328190    -1.1912600
  C        1.6339313     0.1424948     1.2009479
  C        3.1340990     0.0195060    -0.7766230
  C        3.1340970     0.0194780     0.7766250
  C       -0.5942150    -0.2116140    -0.0000020
  C       -1.4969670    -1.2829160    -0.0000100
  C       -1.1118120     1.0929450     0.0000090
  C       -2.8761960    -1.0641450    -0.0000080
  C       -2.4886110     1.3169940     0.0000100
  C       -3.3769130     0.2384400     0.0000020
  H        1.0572190    -1.5476170    -0.0000160
  H        1.3709970     1.1847810    -1.3110530
  H        1.4307960    -0.3756260    -2.1343410
  H        1.4307900    -0.3756630     2.1343350
  H        1.3710040     1.1847570     1.3110690
  H        3.7365840     0.8333760    -1.1915700
  H        3.5617080    -0.9139040    -1.1569620
  H        3.5616920    -0.9139530     1.1569300
  H        3.7365940     0.8333230     1.1916040
  H       -1.1121130    -2.3017550    -0.0000190
  H       -0.4349580     1.9454780     0.0000160
  H       -3.5585010    -1.9112830    -0.0000130
  H       -2.8698420     2.3358160     0.0000180
  H       -4.4501080     0.4133470     0.0000030
units angstrom
no_reorient  #important for SAPT in psi4, default
symmetry c1  #important for SAPT in psi4, default
}

set PROPERTIES_ORIGIN ["COM"]
properties('MP2/aug-cc-pvtz', properties = ['dipole'])
--------------------------------------------------------------------------

    Molecular point group: c1
  Charge       = 0
  Multiplicity = 1
  Basis Set: AUG-CC-PVTZ
    Blend: AUG-CC-PVTZ
  Basis Set: (AUG-CC-PVTZ AUX)
    Blend: AUG-CC-PVTZ-JKFIT

    Orbital Energies [Eh]
    ---------------------

    Doubly Occupied:

       1A    -11.236897     2A    -11.233587     3A    -11.233025
       4A    -11.229355     5A    -11.228939     6A    -11.228578
       7A    -11.227644     8A    -11.217514     9A    -11.216946
      10A    -11.216217    11A    -11.215788    12A     -1.155396
      13A     -1.117563    14A     -1.026577    15A     -1.008615
      16A     -0.960078    17A     -0.943826    18A     -0.832081
      19A     -0.816851    20A     -0.773473    21A     -0.762666
      22A     -0.695515    23A     -0.655222    24A     -0.644039
      25A     -0.619623    26A     -0.608716    27A     -0.581451
      28A     -0.575276    29A     -0.562531    30A     -0.523976
      31A     -0.512530    32A     -0.493664    33A     -0.477867
      34A     -0.472490    35A     -0.464976    36A     -0.459449
      37A     -0.456043    38A     -0.451550    39A     -0.332494
      40A     -0.319401

  @DF-RHF Final Energy:  -424.84586750631246

   => Energetics <=

    Nuclear Repulsion Energy =            580.6307317945788782
    One-Electron Energy =               -1725.3763462094827901
    Two-Electron Energy =                 719.8997469085915100
    Total Energy =                       -424.8458675063124019
  Basis Set: (AUG-CC-PVTZ AUX)
    Blend: AUG-CC-PVTZ-RI
    Molecular point group: c1

    Geometry (in Angstrom), charge = 0, multiplicity = 1:

       Center              X                  Y                   Z               Mass
    ------------   -----------------  -----------------  -----------------  -----------------
         C            0.952495790955    -0.457622948288    -0.000800511364    12.000000000000
         C            1.718819790955     0.134678051712    -1.192055511364    12.000000000000
         C            1.695796090955     0.144353851712     1.200152388636    12.000000000000
         C            3.195963790955     0.021365051712    -0.777418511364    12.000000000000
         C            3.195961790955     0.021337051712     0.775829488636    12.000000000000
         C           -0.532350209045    -0.209754948288    -0.000797511364    12.000000000000
         C           -1.435102209045    -1.281056948288    -0.000805511364    12.000000000000
         C           -1.049947209045     1.094804051712    -0.000786511364    12.000000000000
         C           -2.814331209045    -1.062285948288    -0.000803511364    12.000000000000
         C           -2.426746209045     1.318853051712    -0.000785511364    12.000000000000
         C           -3.315048209045     0.240299051712    -0.000793511364    12.000000000000
         H            1.119083790955    -1.545757948288    -0.000811511364     1.007825032230
         H            1.432861790955     1.186640051712    -1.311848511364     1.007825032230
         H            1.492660790955    -0.373766948288    -2.135136511364     1.007825032230
         H            1.492654790955    -0.373803948288     2.133539488636     1.007825032230
         H            1.432868790955     1.186616051712     1.310273488636     1.007825032230
         H            3.798448790955     0.835235051712    -1.192365511364     1.007825032230
         H            3.623572790955    -0.912044948288    -1.157757511364     1.007825032230
         H            3.623556790955    -0.912093948288     1.156134488636     1.007825032230
         H            3.798458790955     0.835182051712     1.190808488636     1.007825032230
         H           -1.050248209045    -2.299895948288    -0.000814511364     1.007825032230
         H           -0.373093209045     1.947337051712    -0.000779511364     1.007825032230
         H           -3.496636209045    -1.909423948288    -0.000808511364     1.007825032230
         H           -2.807977209045     2.337675051712    -0.000777511364     1.007825032230
         H           -4.388243209045     0.415206051712    -0.000792511364     1.007825032230

  Basis Set: AUG-CC-PVTZ
    Blend: AUG-CC-PVTZ
  Basis Set: (AUG-CC-PVTZ AUX)
    Blend: AUG-CC-PVTZ-JKFIT
	 Reference Energy          =    -424.8458675063124588 [Eh]
	 Singles Energy            =      -0.0000000000000000 [Eh]
	 Same-Spin Energy          =      -0.4751472312663890 [Eh]
	 Opposite-Spin Energy      =      -1.5699139593473292 [Eh]
	 Correlation Energy        =      -2.0450611906137182 [Eh]
	 Total Energy              =    -426.8909286969261530 [Eh]

	 ================> DF-SCS-MP2 Energies <==================
	-----------------------------------------------------------
	 SCS Same-Spin Scale       =       0.3333333333333333 [-]
	 SCS Opposite-Spin Scale   =       1.2000000000000000 [-]
	 SCS Same-Spin Energy      =      -0.1583824104221297 [Eh]
	 SCS Opposite-Spin Energy  =      -1.8838967512167950 [Eh]
	 SCS Correlation Energy    =      -2.0422791616389246 [Eh]
	 SCS Total Energy          =    -426.8881466679513892 [Eh]
	-----------------------------------------------------------

  Dipole Moment: [D]
     X:     0.4810      Y:    -0.0318      Z:     0.0031     Total:     0.4820

*** Psi4 exiting successfully. Buy a developer a beer!
