                               Psi4 1.3.2 release

  ==> Input File <==

--------------------------------------------------------------------------
#psi4
#
memory 32 gb

molecule  {
0 1
  C        0.8906310    -0.4594820    -0.0000050
  C        1.6569550     0.1328190    -1.1912600
  C        1.6569550     0.1327950     1.1912610
  C        3.1340990     0.0195060    -0.7766230
  C        3.1340970     0.0194780     0.7766250
  C       -0.6928501    -0.1951487    -0.0000018
  C       -1.4969670    -1.2829160    -0.0000100
  C       -1.1118120     1.0929450     0.0000090
  C       -2.8761960    -1.0641450    -0.0000080
  C       -2.4886110     1.3169940     0.0000100
  C       -3.3769130     0.2384400     0.0000020
  H        1.0572190    -1.5476170    -0.0000160
  H        1.3709970     1.1847810    -1.3110530
  H        1.4307960    -0.3756260    -2.1343410
  H        1.4307900    -0.3756630     2.1343350
  H        1.3710040     1.1847570     1.3110690
  H        3.7365840     0.8333760    -1.1915700
  H        3.5617080    -0.9139040    -1.1569620
  H        3.5616920    -0.9139530     1.1569300
  H        3.7365940     0.8333230     1.1916040
  H       -1.1121130    -2.3017550    -0.0000190
  H       -0.4349580     1.9454780     0.0000160
  H       -3.5585010    -1.9112830    -0.0000130
  H       -2.8698420     2.3358160     0.0000180
  H       -4.4501080     0.4133470     0.0000030
units angstrom
no_reorient  #important for SAPT in psi4, default
symmetry c1  #important for SAPT in psi4, default
}

set PROPERTIES_ORIGIN ["COM"]
properties('MP2/aug-cc-pvtz', properties = ['dipole'])
--------------------------------------------------------------------------

    Molecular point group: c1
  Charge       = 0
  Multiplicity = 1
  Basis Set: AUG-CC-PVTZ
    Blend: AUG-CC-PVTZ
  Basis Set: (AUG-CC-PVTZ AUX)
    Blend: AUG-CC-PVTZ-JKFIT

    Orbital Energies [Eh]
    ---------------------

    Doubly Occupied:

       1A    -11.234211     2A    -11.233669     3A    -11.230946
       4A    -11.229350     5A    -11.228908     6A    -11.224468
       7A    -11.224114     8A    -11.215514     9A    -11.215036
      10A    -11.214325    11A    -11.214278    12A     -1.161681
      13A     -1.117442    14A     -1.023520    15A     -1.015141
      16A     -0.958908    17A     -0.942905    18A     -0.832492
      19A     -0.815221    20A     -0.770531    21A     -0.761413
      22A     -0.698247    23A     -0.652051    24A     -0.636722
      25A     -0.624632    26A     -0.610719    27A     -0.589449
      28A     -0.570763    29A     -0.560012    30A     -0.525684
      31A     -0.515568    32A     -0.501181    33A     -0.477238
      34A     -0.469053    35A     -0.459587    36A     -0.457616
      37A     -0.451488    38A     -0.437482    39A     -0.334739
      40A     -0.328636

  @DF-RHF Final Energy:  -424.83718897546379

   => Energetics <=

    Nuclear Repulsion Energy =            580.9078710301274668
    One-Electron Energy =               -1725.9602421771433001
    Two-Electron Energy =                 720.2151821715521010
    Total Energy =                       -424.8371889754638460
  Basis Set: (AUG-CC-PVTZ AUX)
    Blend: AUG-CC-PVTZ-RI
    Molecular point group: c1

    Geometry (in Angstrom), charge = 0, multiplicity = 1:

       Center              X                  Y                   Z               Mass
    ------------   -----------------  -----------------  -----------------  -----------------
         C            0.958705766944    -0.458178599851    -0.000004941194    12.000000000000
         C            1.725029766944     0.134122400149    -1.191259941194    12.000000000000
         C            1.725029766944     0.134098400149     1.191261058806    12.000000000000
         C            3.202173766944     0.020809400149    -0.776622941194    12.000000000000
         C            3.202171766944     0.020781400149     0.776625058806    12.000000000000
         C           -0.624775333056    -0.193845299851    -0.000001741194    12.000000000000
         C           -1.428892233056    -1.281612599851    -0.000009941194    12.000000000000
         C           -1.043737233056     1.094248400149     0.000009058806    12.000000000000
         C           -2.808121233056    -1.062841599851    -0.000007941194    12.000000000000
         C           -2.420536233056     1.318297400149     0.000010058806    12.000000000000
         C           -3.308838233056     0.239743400149     0.000002058806    12.000000000000
         H            1.125293766944    -1.546313599851    -0.000015941194     1.007825032230
         H            1.439071766944     1.186084400149    -1.311052941194     1.007825032230
         H            1.498870766944    -0.374322599851    -2.134340941194     1.007825032230
         H            1.498864766944    -0.374359599851     2.134335058806     1.007825032230
         H            1.439078766944     1.186060400149     1.311069058806     1.007825032230
         H            3.804658766944     0.834679400149    -1.191569941194     1.007825032230
         H            3.629782766944    -0.912600599851    -1.156961941194     1.007825032230
         H            3.629766766944    -0.912649599851     1.156930058806     1.007825032230
         H            3.804668766944     0.834626400149     1.191604058806     1.007825032230
         H           -1.044038233056    -2.300451599851    -0.000018941194     1.007825032230
         H           -0.366883233056     1.946781400149     0.000016058806     1.007825032230
         H           -3.490426233056    -1.909979599851    -0.000012941194     1.007825032230
         H           -2.801767233056     2.337119400149     0.000018058806     1.007825032230
         H           -4.382033233056     0.414650400149     0.000003058806     1.007825032230

  Basis Set: AUG-CC-PVTZ
    Blend: AUG-CC-PVTZ
  Basis Set: (AUG-CC-PVTZ AUX)
    Blend: AUG-CC-PVTZ-JKFIT
	 Reference Energy          =    -424.8371889754637891 [Eh]
	 Singles Energy            =      -0.0000000000000000 [Eh]
	 Same-Spin Energy          =      -0.4747680633016321 [Eh]
	 Opposite-Spin Energy      =      -1.5690659295826119 [Eh]
	 Correlation Energy        =      -2.0438339928842439 [Eh]
	 Total Energy              =    -426.8810229683480202 [Eh]

	 ================> DF-SCS-MP2 Energies <==================
	-----------------------------------------------------------
	 SCS Same-Spin Scale       =       0.3333333333333333 [-]
	 SCS Opposite-Spin Scale   =       1.2000000000000000 [-]
	 SCS Same-Spin Energy      =      -0.1582560211005440 [Eh]
	 SCS Opposite-Spin Energy  =      -1.8828791154991342 [Eh]
	 SCS Correlation Energy    =      -2.0411351365996784 [Eh]
	 SCS Total Energy          =    -426.8783241120634671 [Eh]
	-----------------------------------------------------------

  Dipole Moment: [D]
     X:     0.3032      Y:    -0.0421      Z:    -0.0000     Total:     0.3061

*** Psi4 exiting successfully. Buy a developer a beer!
