                               Psi4 1.3.2 release

  ==> Input File <==

--------------------------------------------------------------------------
#psi4
#
memory 32 gb

molecule  {
0 1
  C        0.8906310    -0.4594820    -0.0000050
  C        1.6569550     0.1328190    -1.1912600
  C        1.6106811     0.1520111     1.2102690
  C        3.1340990     0.0195060    -0.7766230
  C        3.1340970     0.0194780     0.7766250
  C       -0.5942150    -0.2116140    -0.0000020
  C       -1.4969670    -1.2829160    -0.0000100
  C       -1.1118120     1.0929450     0.0000090
  C       -2.8761960    -1.0641450    -0.0000080
  C       -2.4886110     1.3169940     0.0000100
  C       -3.3769130     0.2384400     0.0000020
  H        1.0572190    -1.5476170    -0.0000160
  H        1.3709970     1.1847810    -1.3110530
  H        1.4307960    -0.3756260    -2.1343410
  H        1.4307900    -0.3756630     2.1343350
  H        1.3710040     1.1847570     1.3110690
  H        3.7365840     0.8333760    -1.1915700
  H        3.5617080    -0.9139040    -1.1569620
  H        3.5616920    -0.9139530     1.1569300
  H        3.7365940     0.8333230     1.1916040
  H       -1.1121130    -2.3017550    -0.0000190
  H       -0.4349580     1.9454780     0.0000160
  H       -3.5585010    -1.9112830    -0.0000130
  H       -2.8698420     2.3358160     0.0000180
  H       -4.4501080     0.4133470     0.0000030
units angstrom
no_reorient  #important for SAPT in psi4, default
symmetry c1  #important for SAPT in psi4, default
}

set PROPERTIES_ORIGIN ["COM"]
properties('MP2/aug-cc-pvtz', properties = ['dipole'])
--------------------------------------------------------------------------

    Molecular point group: c1
  Charge       = 0
  Multiplicity = 1
  Basis Set: AUG-CC-PVTZ
    Blend: AUG-CC-PVTZ
  Basis Set: (AUG-CC-PVTZ AUX)
    Blend: AUG-CC-PVTZ-JKFIT

    Orbital Energies [Eh]
    ---------------------

    Doubly Occupied:

       1A    -11.236590     2A    -11.233510     3A    -11.232906
       4A    -11.229114     5A    -11.228743     6A    -11.228290
       7A    -11.227936     8A    -11.218291     9A    -11.217107
      10A    -11.216216    11A    -11.215212    12A     -1.155121
      13A     -1.116074    14A     -1.025981    15A     -1.008475
      16A     -0.959275    17A     -0.943405    18A     -0.832431
      19A     -0.816782    20A     -0.774258    21A     -0.762930
      22A     -0.695316    23A     -0.655424    24A     -0.643198
      25A     -0.619350    26A     -0.607961    27A     -0.581478
      28A     -0.577759    29A     -0.562647    30A     -0.523134
      31A     -0.512968    32A     -0.494340    33A     -0.477451
      34A     -0.472877    35A     -0.466014    36A     -0.458574
      37A     -0.456829    38A     -0.448356    39A     -0.332402
      40A     -0.318963

  @DF-RHF Final Energy:  -424.84407198221402

   => Energetics <=

    Nuclear Repulsion Energy =            580.5111084723026806
    One-Electron Energy =               -1725.1429787665749700
    Two-Electron Energy =                 719.7877983120581575
    Total Energy =                       -424.8440719822140181
  Basis Set: (AUG-CC-PVTZ AUX)
    Blend: AUG-CC-PVTZ-RI
    Molecular point group: c1

    Geometry (in Angstrom), charge = 0, multiplicity = 1:

       Center              X                  Y                   Z               Mass
    ------------   -----------------  -----------------  -----------------  -----------------
         C            0.954405333481    -0.458404523481    -0.001566054750    12.000000000000
         C            1.720729333481     0.133896476519    -1.192821054750    12.000000000000
         C            1.674455433481     0.153088576519     1.208707945250    12.000000000000
         C            3.197873333481     0.020583476519    -0.778184054750    12.000000000000
         C            3.197871333481     0.020555476519     0.775063945250    12.000000000000
         C           -0.530440666519    -0.210536523481    -0.001563054750    12.000000000000
         C           -1.433192666519    -1.281838523481    -0.001571054750    12.000000000000
         C           -1.048037666519     1.094022476519    -0.001552054750    12.000000000000
         C           -2.812421666519    -1.063067523481    -0.001569054750    12.000000000000
         C           -2.424836666519     1.318071476519    -0.001551054750    12.000000000000
         C           -3.313138666519     0.239517476519    -0.001559054750    12.000000000000
         H            1.120993333481    -1.546539523481    -0.001577054750     1.007825032230
         H            1.434771333481     1.185858476519    -1.312614054750     1.007825032230
         H            1.494570333481    -0.374548523481    -2.135902054750     1.007825032230
         H            1.494564333481    -0.374585523481     2.132773945250     1.007825032230
         H            1.434778333481     1.185834476519     1.309507945250     1.007825032230
         H            3.800358333481     0.834453476519    -1.193131054750     1.007825032230
         H            3.625482333481    -0.912826523481    -1.158523054750     1.007825032230
         H            3.625466333481    -0.912875523481     1.155368945250     1.007825032230
         H            3.800368333481     0.834400476519     1.190042945250     1.007825032230
         H           -1.048338666519    -2.300677523481    -0.001580054750     1.007825032230
         H           -0.371183666519     1.946555476519    -0.001545054750     1.007825032230
         H           -3.494726666519    -1.910205523481    -0.001574054750     1.007825032230
         H           -2.806067666519     2.336893476519    -0.001543054750     1.007825032230
         H           -4.386333666519     0.414424476519    -0.001558054750     1.007825032230

  Basis Set: AUG-CC-PVTZ
    Blend: AUG-CC-PVTZ
  Basis Set: (AUG-CC-PVTZ AUX)
    Blend: AUG-CC-PVTZ-JKFIT
	 Reference Energy          =    -424.8440719822140181 [Eh]
	 Singles Energy            =      -0.0000000000000000 [Eh]
	 Same-Spin Energy          =      -0.4750893915800373 [Eh]
	 Opposite-Spin Energy      =      -1.5699858171612844 [Eh]
	 Correlation Energy        =      -2.0450752087413218 [Eh]
	 Total Energy              =    -426.8891471909553275 [Eh]

	 ================> DF-SCS-MP2 Energies <==================
	-----------------------------------------------------------
	 SCS Same-Spin Scale       =       0.3333333333333333 [-]
	 SCS Opposite-Spin Scale   =       1.2000000000000000 [-]
	 SCS Same-Spin Energy      =      -0.1583631305266791 [Eh]
	 SCS Opposite-Spin Energy  =      -1.8839829805935411 [Eh]
	 SCS Correlation Energy    =      -2.0423461111202204 [Eh]
	 SCS Total Energy          =    -426.8864180933342141 [Eh]
	-----------------------------------------------------------

  Dipole Moment: [D]
     X:     0.4896      Y:    -0.0300      Z:     0.0047     Total:     0.4905

*** Psi4 exiting successfully. Buy a developer a beer!
