                               Psi4 1.3.2 release

  ==> Input File <==

--------------------------------------------------------------------------
#psi4
#
memory 32 gb

molecule  {
0 1
  C        0.8906310    -0.4594820    -0.0000050
  C        1.6732880     0.1454426    -1.1741752
  C        1.6569550     0.1327950     1.1912610
  C        3.1340990     0.0195060    -0.7766230
  C        3.1340970     0.0194780     0.7766250
  C       -0.5942150    -0.2116140    -0.0000020
  C       -1.4969670    -1.2829160    -0.0000100
  C       -1.1118120     1.0929450     0.0000090
  C       -2.8761960    -1.0641450    -0.0000080
  C       -2.4886110     1.3169940     0.0000100
  C       -3.3769130     0.2384400     0.0000020
  H        1.0572190    -1.5476170    -0.0000160
  H        1.3709970     1.1847810    -1.3110530
  H        1.4307960    -0.3756260    -2.1343410
  H        1.4307900    -0.3756630     2.1343350
  H        1.3710040     1.1847570     1.3110690
  H        3.7365840     0.8333760    -1.1915700
  H        3.5617080    -0.9139040    -1.1569620
  H        3.5616920    -0.9139530     1.1569300
  H        3.7365940     0.8333230     1.1916040
  H       -1.1121130    -2.3017550    -0.0000190
  H       -0.4349580     1.9454780     0.0000160
  H       -3.5585010    -1.9112830    -0.0000130
  H       -2.8698420     2.3358160     0.0000180
  H       -4.4501080     0.4133470     0.0000030
units angstrom
no_reorient  #important for SAPT in psi4, default
symmetry c1  #important for SAPT in psi4, default
}

set PROPERTIES_ORIGIN ["COM"]
properties('MP2/aug-cc-pvtz', properties = ['dipole'])
--------------------------------------------------------------------------

    Molecular point group: c1
  Charge       = 0
  Multiplicity = 1
  Basis Set: AUG-CC-PVTZ
    Blend: AUG-CC-PVTZ
  Basis Set: (AUG-CC-PVTZ AUX)
    Blend: AUG-CC-PVTZ-JKFIT

    Orbital Energies [Eh]
    ---------------------

    Doubly Occupied:

       1A    -11.237545     2A    -11.233819     3A    -11.233313
       4A    -11.229796     5A    -11.229360     6A    -11.229114
       7A    -11.227315     8A    -11.217337     9A    -11.216708
      10A    -11.216154    11A    -11.215617    12A     -1.156195
      13A     -1.120845    14A     -1.027912    15A     -1.008940
      16A     -0.961771    17A     -0.944236    18A     -0.831955
      19A     -0.817017    20A     -0.772507    21A     -0.762083
      22A     -0.696183    23A     -0.653590    24A     -0.645625
      25A     -0.620346    26A     -0.610268    27A     -0.581768
      28A     -0.573271    29A     -0.562457    30A     -0.526751
      31A     -0.511778    32A     -0.493430    33A     -0.478724
      34A     -0.469432    35A     -0.467104    36A     -0.459766
      37A     -0.454125    38A     -0.452983    39A     -0.332745
      40A     -0.319989

  @DF-RHF Final Energy:  -424.84533769737396

   => Energetics <=

    Nuclear Repulsion Energy =            580.9570275307655720
    One-Electron Energy =               -1726.0049818393404166
    Two-Electron Energy =                 720.2026166112009378
    Total Energy =                       -424.8453376973739068
  Basis Set: (AUG-CC-PVTZ AUX)
    Blend: AUG-CC-PVTZ-RI
    Molecular point group: c1

    Geometry (in Angstrom), charge = 0, multiplicity = 1:

       Center              X                  Y                   Z               Mass
    ------------   -----------------  -----------------  -----------------  -----------------
         C            0.949263419091    -0.457863080435    -0.001408102037    12.000000000000
         C            1.731920419091     0.147061519565    -1.175578302037    12.000000000000
         C            1.715587419091     0.134413919565     1.189857897963    12.000000000000
         C            3.192731419091     0.021124919565    -0.778026102037    12.000000000000
         C            3.192729419091     0.021096919565     0.775221897963    12.000000000000
         C           -0.535582580909    -0.209995080435    -0.001405102037    12.000000000000
         C           -1.438334580909    -1.281297080435    -0.001413102037    12.000000000000
         C           -1.053179580909     1.094563919565    -0.001394102037    12.000000000000
         C           -2.817563580909    -1.062526080435    -0.001411102037    12.000000000000
         C           -2.429978580909     1.318612919565    -0.001393102037    12.000000000000
         C           -3.318280580909     0.240058919565    -0.001401102037    12.000000000000
         H            1.115851419091    -1.545998080435    -0.001419102037     1.007825032230
         H            1.429629419091     1.186399919565    -1.312456102037     1.007825032230
         H            1.489428419091    -0.374007080435    -2.135744102037     1.007825032230
         H            1.489422419091    -0.374044080435     2.132931897963     1.007825032230
         H            1.429636419091     1.186375919565     1.309665897963     1.007825032230
         H            3.795216419091     0.834994919565    -1.192973102037     1.007825032230
         H            3.620340419091    -0.912285080435    -1.158365102037     1.007825032230
         H            3.620324419091    -0.912334080435     1.155526897963     1.007825032230
         H            3.795226419091     0.834941919565     1.190200897963     1.007825032230
         H           -1.053480580909    -2.300136080435    -0.001422102037     1.007825032230
         H           -0.376325580909     1.947096919565    -0.001387102037     1.007825032230
         H           -3.499868580909    -1.909664080435    -0.001416102037     1.007825032230
         H           -2.811209580909     2.337434919565    -0.001385102037     1.007825032230
         H           -4.391475580909     0.414965919565    -0.001400102037     1.007825032230

  Basis Set: AUG-CC-PVTZ
    Blend: AUG-CC-PVTZ
  Basis Set: (AUG-CC-PVTZ AUX)
    Blend: AUG-CC-PVTZ-JKFIT
	 Reference Energy          =    -424.8453376973739637 [Eh]
	 Singles Energy            =      -0.0000000000000000 [Eh]
	 Same-Spin Energy          =      -0.4754102796846942 [Eh]
	 Opposite-Spin Energy      =      -1.5700537305959048 [Eh]
	 Correlation Energy        =      -2.0454640102805990 [Eh]
	 Total Energy              =    -426.8908017076545889 [Eh]

	 ================> DF-SCS-MP2 Energies <==================
	-----------------------------------------------------------
	 SCS Same-Spin Scale       =       0.3333333333333333 [-]
	 SCS Opposite-Spin Scale   =       1.2000000000000000 [-]
	 SCS Same-Spin Energy      =      -0.1584700932282314 [Eh]
	 SCS Opposite-Spin Energy  =      -1.8840644767150856 [Eh]
	 SCS Correlation Energy    =      -2.0425345699433168 [Eh]
	 SCS Total Energy          =    -426.8878722673172774 [Eh]
	-----------------------------------------------------------

  Dipole Moment: [D]
     X:     0.4677      Y:    -0.0248      Z:     0.0081     Total:     0.4685

*** Psi4 exiting successfully. Buy a developer a beer!
