                               Psi4 1.3.2 release

  ==> Input File <==

--------------------------------------------------------------------------
#psi4
#
memory 32 gb

molecule  {
0 1
  C        0.8810760    -0.5111514    -0.0000054
  C        1.6569550     0.1328190    -1.1912600
  C        1.6569550     0.1327950     1.1912610
  C        3.1340990     0.0195060    -0.7766230
  C        3.1340970     0.0194780     0.7766250
  C       -0.5942150    -0.2116140    -0.0000020
  C       -1.4969670    -1.2829160    -0.0000100
  C       -1.1118120     1.0929450     0.0000090
  C       -2.8761960    -1.0641450    -0.0000080
  C       -2.4886110     1.3169940     0.0000100
  C       -3.3769130     0.2384400     0.0000020
  H        1.0572190    -1.5476170    -0.0000160
  H        1.3709970     1.1847810    -1.3110530
  H        1.4307960    -0.3756260    -2.1343410
  H        1.4307900    -0.3756630     2.1343350
  H        1.3710040     1.1847570     1.3110690
  H        3.7365840     0.8333760    -1.1915700
  H        3.5617080    -0.9139040    -1.1569620
  H        3.5616920    -0.9139530     1.1569300
  H        3.7365940     0.8333230     1.1916040
  H       -1.1121130    -2.3017550    -0.0000190
  H       -0.4349580     1.9454780     0.0000160
  H       -3.5585010    -1.9112830    -0.0000130
  H       -2.8698420     2.3358160     0.0000180
  H       -4.4501080     0.4133470     0.0000030
units angstrom
no_reorient  #important for SAPT in psi4, default
symmetry c1  #important for SAPT in psi4, default
}

set PROPERTIES_ORIGIN ["COM"]
properties('MP2/aug-cc-pvtz', properties = ['dipole'])
--------------------------------------------------------------------------

    Molecular point group: c1
  Charge       = 0
  Multiplicity = 1
  Basis Set: AUG-CC-PVTZ
    Blend: AUG-CC-PVTZ
  Basis Set: (AUG-CC-PVTZ AUX)
    Blend: AUG-CC-PVTZ-JKFIT

    Orbital Energies [Eh]
    ---------------------

    Doubly Occupied:

       1A    -11.237409     2A    -11.233841     3A    -11.232721
       4A    -11.229546     5A    -11.229099     6A    -11.227829
       7A    -11.225869     8A    -11.217704     9A    -11.217692
      10A    -11.216391    11A    -11.215858    12A     -1.154553
      13A     -1.116004    14A     -1.027359    15A     -1.008546
      16A     -0.958654    17A     -0.942939    18A     -0.833536
      19A     -0.815772    20A     -0.770571    21A     -0.767040
      22A     -0.695976    23A     -0.652965    24A     -0.643190
      25A     -0.620853    26A     -0.609147    27A     -0.581671
      28A     -0.573249    29A     -0.567022    30A     -0.523439
      31A     -0.510348    32A     -0.494681    33A     -0.476515
      34A     -0.475456    35A     -0.468610    36A     -0.454319
      37A     -0.453460    38A     -0.453153    39A     -0.332457
      40A     -0.318116

  @DF-RHF Final Energy:  -424.84369744271618

   => Energetics <=

    Nuclear Repulsion Energy =            580.2957632187457193
    One-Electron Energy =               -1724.7118054423046942
    Two-Electron Energy =                 719.5723447808429682
    Total Energy =                       -424.8436974427161203
  Basis Set: (AUG-CC-PVTZ AUX)
    Blend: AUG-CC-PVTZ-RI
    Molecular point group: c1

    Geometry (in Angstrom), charge = 0, multiplicity = 1:

       Center              X                  Y                   Z               Mass
    ------------   -----------------  -----------------  -----------------  -----------------
         C            0.941834604539    -0.504252086391    -0.000005291916    12.000000000000
         C            1.717713604539     0.139718313609    -1.191259891916    12.000000000000
         C            1.717713604539     0.139694313609     1.191261108084    12.000000000000
         C            3.194857604539     0.026405313609    -0.776622891916    12.000000000000
         C            3.194855604539     0.026377313609     0.776625108084    12.000000000000
         C           -0.533456395461    -0.204714686391    -0.000001891916    12.000000000000
         C           -1.436208395461    -1.276016686391    -0.000009891916    12.000000000000
         C           -1.051053395461     1.099844313609     0.000009108084    12.000000000000
         C           -2.815437395461    -1.057245686391    -0.000007891916    12.000000000000
         C           -2.427852395461     1.323893313609     0.000010108084    12.000000000000
         C           -3.316154395461     0.245339313609     0.000002108084    12.000000000000
         H            1.117977604539    -1.540717686391    -0.000015891916     1.007825032230
         H            1.431755604539     1.191680313609    -1.311052891916     1.007825032230
         H            1.491554604539    -0.368726686391    -2.134340891916     1.007825032230
         H            1.491548604539    -0.368763686391     2.134335108084     1.007825032230
         H            1.431762604539     1.191656313609     1.311069108084     1.007825032230
         H            3.797342604539     0.840275313609    -1.191569891916     1.007825032230
         H            3.622466604539    -0.907004686391    -1.156961891916     1.007825032230
         H            3.622450604539    -0.907053686391     1.156930108084     1.007825032230
         H            3.797352604539     0.840222313609     1.191604108084     1.007825032230
         H           -1.051354395461    -2.294855686391    -0.000018891916     1.007825032230
         H           -0.374199395461     1.952377313609     0.000016108084     1.007825032230
         H           -3.497742395461    -1.904383686391    -0.000012891916     1.007825032230
         H           -2.809083395461     2.342715313609     0.000018108084     1.007825032230
         H           -4.389349395461     0.420246313609     0.000003108084     1.007825032230

  Basis Set: AUG-CC-PVTZ
    Blend: AUG-CC-PVTZ
  Basis Set: (AUG-CC-PVTZ AUX)
    Blend: AUG-CC-PVTZ-JKFIT
	 Reference Energy          =    -424.8436974427161772 [Eh]
	 Singles Energy            =      -0.0000000000000000 [Eh]
	 Same-Spin Energy          =      -0.4750485544614912 [Eh]
	 Opposite-Spin Energy      =      -1.5698205007165829 [Eh]
	 Correlation Energy        =      -2.0448690551780739 [Eh]
	 Total Energy              =    -426.8885664978942600 [Eh]

	 ================> DF-SCS-MP2 Energies <==================
	-----------------------------------------------------------
	 SCS Same-Spin Scale       =       0.3333333333333333 [-]
	 SCS Opposite-Spin Scale   =       1.2000000000000000 [-]
	 SCS Same-Spin Energy      =      -0.1583495181538304 [Eh]
	 SCS Opposite-Spin Energy  =      -1.8837846008598993 [Eh]
	 SCS Correlation Energy    =      -2.0421341190137299 [Eh]
	 SCS Total Energy          =    -426.8858315617299013 [Eh]
	-----------------------------------------------------------

  Dipole Moment: [D]
     X:     0.4973      Y:    -0.0607      Z:    -0.0000     Total:     0.5009

*** Psi4 exiting successfully. Buy a developer a beer!
