                               Psi4 1.3.2 release

  ==> Input File <==

--------------------------------------------------------------------------
#psi4
#
memory 32 gb

molecule  {
0 1
  C        0.9043044    -0.3553006    -0.0000042
  C        1.6569550     0.1328190    -1.1912600
  C        1.6569550     0.1327950     1.1912610
  C        3.1340990     0.0195060    -0.7766230
  C        3.1340970     0.0194780     0.7766250
  C       -0.5942150    -0.2116140    -0.0000020
  C       -1.4969670    -1.2829160    -0.0000100
  C       -1.1118120     1.0929450     0.0000090
  C       -2.8761960    -1.0641450    -0.0000080
  C       -2.4886110     1.3169940     0.0000100
  C       -3.3769130     0.2384400     0.0000020
  H        1.0572190    -1.5476170    -0.0000160
  H        1.3709970     1.1847810    -1.3110530
  H        1.4307960    -0.3756260    -2.1343410
  H        1.4307900    -0.3756630     2.1343350
  H        1.3710040     1.1847570     1.3110690
  H        3.7365840     0.8333760    -1.1915700
  H        3.5617080    -0.9139040    -1.1569620
  H        3.5616920    -0.9139530     1.1569300
  H        3.7365940     0.8333230     1.1916040
  H       -1.1121130    -2.3017550    -0.0000190
  H       -0.4349580     1.9454780     0.0000160
  H       -3.5585010    -1.9112830    -0.0000130
  H       -2.8698420     2.3358160     0.0000180
  H       -4.4501080     0.4133470     0.0000030
units angstrom
no_reorient  #important for SAPT in psi4, default
symmetry c1  #important for SAPT in psi4, default
}

set PROPERTIES_ORIGIN ["COM"]
properties('MP2/aug-cc-pvtz', properties = ['dipole'])
--------------------------------------------------------------------------

    Molecular point group: c1
  Charge       = 0
  Multiplicity = 1
  Basis Set: AUG-CC-PVTZ
    Blend: AUG-CC-PVTZ
  Basis Set: (AUG-CC-PVTZ AUX)
    Blend: AUG-CC-PVTZ-JKFIT

    Orbital Energies [Eh]
    ---------------------

    Doubly Occupied:

       1A    -11.237951     2A    -11.234190     3A    -11.233513
       4A    -11.232478     5A    -11.231130     6A    -11.230586
       7A    -11.228712     8A    -11.217693     9A    -11.217164
      10A    -11.215682    11A    -11.215675    12A     -1.159105
      13A     -1.125295    14A     -1.027809    15A     -1.009338
      16A     -0.966762    17A     -0.947260    18A     -0.829126
      19A     -0.819716    20A     -0.778161    21A     -0.754249
      22A     -0.695953    23A     -0.660138    24A     -0.647985
      25A     -0.619004    26A     -0.610090    27A     -0.581853
      28A     -0.572284    29A     -0.555405    30A     -0.528684
      31A     -0.519213    32A     -0.491919    33A     -0.487355
      34A     -0.474490    35A     -0.469355    36A     -0.463567
      37A     -0.453011    38A     -0.428370    39A     -0.333039
      40A     -0.322797

  @DF-RHF Final Energy:  -424.83363704952393

   => Energetics <=

    Nuclear Repulsion Energy =            581.6264022003666696
    One-Electron Energy =               -1727.2678646687770652
    Two-Electron Energy =                 720.8078254188862957
    Total Energy =                       -424.8336370495239862
  Basis Set: (AUG-CC-PVTZ AUX)
    Blend: AUG-CC-PVTZ-RI
    Molecular point group: c1

    Geometry (in Angstrom), charge = 0, multiplicity = 1:

       Center              X                  Y                   Z               Mass
    ------------   -----------------  -----------------  -----------------  -----------------
         C            0.963155252450    -0.361201336724    -0.000004190472    12.000000000000
         C            1.715805852450     0.126918263276    -1.191259990472    12.000000000000
         C            1.715805852450     0.126894263276     1.191261009528    12.000000000000
         C            3.192949852450     0.013605263276    -0.776622990472    12.000000000000
         C            3.192947852450     0.013577263276     0.776625009528    12.000000000000
         C           -0.535364147550    -0.217514736724    -0.000001990472    12.000000000000
         C           -1.438116147550    -1.288816736724    -0.000009990472    12.000000000000
         C           -1.052961147550     1.087044263276     0.000009009528    12.000000000000
         C           -2.817345147550    -1.070045736724    -0.000007990472    12.000000000000
         C           -2.429760147550     1.311093263276     0.000010009528    12.000000000000
         C           -3.318062147550     0.232539263276     0.000002009528    12.000000000000
         H            1.116069852450    -1.553517736724    -0.000015990472     1.007825032230
         H            1.429847852450     1.178880263276    -1.311052990472     1.007825032230
         H            1.489646852450    -0.381526736724    -2.134340990472     1.007825032230
         H            1.489640852450    -0.381563736724     2.134335009528     1.007825032230
         H            1.429854852450     1.178856263276     1.311069009528     1.007825032230
         H            3.795434852450     0.827475263276    -1.191569990472     1.007825032230
         H            3.620558852450    -0.919804736724    -1.156961990472     1.007825032230
         H            3.620542852450    -0.919853736724     1.156930009528     1.007825032230
         H            3.795444852450     0.827422263276     1.191604009528     1.007825032230
         H           -1.053262147550    -2.307655736724    -0.000018990472     1.007825032230
         H           -0.376107147550     1.939577263276     0.000016009528     1.007825032230
         H           -3.499650147550    -1.917183736724    -0.000012990472     1.007825032230
         H           -2.810991147550     2.329915263276     0.000018009528     1.007825032230
         H           -4.391257147550     0.407446263276     0.000003009528     1.007825032230

  Basis Set: AUG-CC-PVTZ
    Blend: AUG-CC-PVTZ
  Basis Set: (AUG-CC-PVTZ AUX)
    Blend: AUG-CC-PVTZ-JKFIT
	 Reference Energy          =    -424.8336370495239294 [Eh]
	 Singles Energy            =      -0.0000000000000000 [Eh]
	 Same-Spin Energy          =      -0.4761377704997187 [Eh]
	 Opposite-Spin Energy      =      -1.5712873154561890 [Eh]
	 Correlation Energy        =      -2.0474250859559078 [Eh]
	 Total Energy              =    -426.8810621354798513 [Eh]

	 ================> DF-SCS-MP2 Energies <==================
	-----------------------------------------------------------
	 SCS Same-Spin Scale       =       0.3333333333333333 [-]
	 SCS Opposite-Spin Scale   =       1.2000000000000000 [-]
	 SCS Same-Spin Energy      =      -0.1587125901665729 [Eh]
	 SCS Opposite-Spin Energy  =      -1.8855447785474269 [Eh]
	 SCS Correlation Energy    =      -2.0442573687139998 [Eh]
	 SCS Total Energy          =    -426.8778944182379291 [Eh]
	-----------------------------------------------------------

  Dipole Moment: [D]
     X:     0.4197      Y:     0.0430      Z:     0.0000     Total:     0.4219

*** Psi4 exiting successfully. Buy a developer a beer!
