                               Psi4 1.3.2 release

  ==> Input File <==

--------------------------------------------------------------------------
#psi4
#
memory 32 gb

molecule  {
0 1
  C        0.8906310    -0.4594820    -0.0000050
  C        1.6569550     0.1328190    -1.1912600
  C        1.5571280     0.0556407     1.0360779
  C        3.1340990     0.0195060    -0.7766230
  C        3.1340970     0.0194780     0.7766250
  C       -0.5942150    -0.2116140    -0.0000020
  C       -1.4969670    -1.2829160    -0.0000100
  C       -1.1118120     1.0929450     0.0000090
  C       -2.8761960    -1.0641450    -0.0000080
  C       -2.4886110     1.3169940     0.0000100
  C       -3.3769130     0.2384400     0.0000020
  H        1.0572190    -1.5476170    -0.0000160
  H        1.3709970     1.1847810    -1.3110530
  H        1.4307960    -0.3756260    -2.1343410
  H        1.4307900    -0.3756630     2.1343350
  H        1.3710040     1.1847570     1.3110690
  H        3.7365840     0.8333760    -1.1915700
  H        3.5617080    -0.9139040    -1.1569620
  H        3.5616920    -0.9139530     1.1569300
  H        3.7365940     0.8333230     1.1916040
  H       -1.1121130    -2.3017550    -0.0000190
  H       -0.4349580     1.9454780     0.0000160
  H       -3.5585010    -1.9112830    -0.0000130
  H       -2.8698420     2.3358160     0.0000180
  H       -4.4501080     0.4133470     0.0000030
units angstrom
no_reorient  #important for SAPT in psi4, default
symmetry c1  #important for SAPT in psi4, default
}

set PROPERTIES_ORIGIN ["COM"]
properties('MP2/aug-cc-pvtz', properties = ['dipole'])
--------------------------------------------------------------------------

    Molecular point group: c1
  Charge       = 0
  Multiplicity = 1
  Basis Set: AUG-CC-PVTZ
    Blend: AUG-CC-PVTZ
  Basis Set: (AUG-CC-PVTZ AUX)
    Blend: AUG-CC-PVTZ-JKFIT

    Orbital Energies [Eh]
    ---------------------

    Doubly Occupied:

       1A    -11.239243     2A    -11.234266     3A    -11.233816
       4A    -11.230578     5A    -11.230281     6A    -11.230117
       7A    -11.225057     8A    -11.219659     9A    -11.218822
      10A    -11.218122    11A    -11.215540    12A     -1.170628
      13A     -1.132230    14A     -1.029805    15A     -1.009652
      16A     -0.967588    17A     -0.945968    18A     -0.831432
      19A     -0.818021    20A     -0.779163    21A     -0.754770
      22A     -0.700690    23A     -0.658745    24A     -0.650522
      25A     -0.619050    26A     -0.611855    27A     -0.582393
      28A     -0.572074    29A     -0.566961    30A     -0.539323
      31A     -0.517723    32A     -0.493836    33A     -0.486483
      34A     -0.474844    35A     -0.469923    36A     -0.458745
      37A     -0.429932    38A     -0.426727    39A     -0.333162
      40A     -0.322569

  @DF-RHF Final Energy:  -424.79832223530667

   => Energetics <=

    Nuclear Repulsion Energy =            584.0406641912815076
    One-Electron Energy =               -1731.9773446044735010
    Two-Electron Energy =                 723.1383581778852658
    Total Energy =                       -424.7983222353066139
  Basis Set: (AUG-CC-PVTZ AUX)
    Blend: AUG-CC-PVTZ-RI
    Molecular point group: c1

    Geometry (in Angstrom), charge = 0, multiplicity = 1:

       Center              X                  Y                   Z               Mass
    ------------   -----------------  -----------------  -----------------  -----------------
         C            0.958803657875    -0.450489607608     0.012740287262    12.000000000000
         C            1.725127657875     0.141811392392    -1.178514712738    12.000000000000
         C            1.625300657875     0.064633092392     1.048823187262    12.000000000000
         C            3.202271657875     0.028498392392    -0.763877712738    12.000000000000
         C            3.202269657875     0.028470392392     0.789370287262    12.000000000000
         C           -0.526042342125    -0.202621607608     0.012743287262    12.000000000000
         C           -1.428794342125    -1.273923607608     0.012735287262    12.000000000000
         C           -1.043639342125     1.101937392392     0.012754287262    12.000000000000
         C           -2.808023342125    -1.055152607608     0.012737287262    12.000000000000
         C           -2.420438342125     1.325986392392     0.012755287262    12.000000000000
         C           -3.308740342125     0.247432392392     0.012747287262    12.000000000000
         H            1.125391657875    -1.538624607608     0.012729287262     1.007825032230
         H            1.439169657875     1.193773392392    -1.298307712738     1.007825032230
         H            1.498968657875    -0.366633607608    -2.121595712738     1.007825032230
         H            1.498962657875    -0.366670607608     2.147080287262     1.007825032230
         H            1.439176657875     1.193749392392     1.323814287262     1.007825032230
         H            3.804756657875     0.842368392392    -1.178824712738     1.007825032230
         H            3.629880657875    -0.904911607608    -1.144216712738     1.007825032230
         H            3.629864657875    -0.904960607608     1.169675287262     1.007825032230
         H            3.804766657875     0.842315392392     1.204349287262     1.007825032230
         H           -1.043940342125    -2.292762607608     0.012726287262     1.007825032230
         H           -0.366785342125     1.954470392392     0.012761287262     1.007825032230
         H           -3.490328342125    -1.902290607608     0.012732287262     1.007825032230
         H           -2.801669342125     2.344808392392     0.012763287262     1.007825032230
         H           -4.381935342125     0.422339392392     0.012748287262     1.007825032230

  Basis Set: AUG-CC-PVTZ
    Blend: AUG-CC-PVTZ
  Basis Set: (AUG-CC-PVTZ AUX)
    Blend: AUG-CC-PVTZ-JKFIT
	 Reference Energy          =    -424.7983222353066708 [Eh]
	 Singles Energy            =      -0.0000000000000000 [Eh]
	 Same-Spin Energy          =      -0.4781511738581450 [Eh]
	 Opposite-Spin Energy      =      -1.5739703370966365 [Eh]
	 Correlation Energy        =      -2.0521215109547812 [Eh]
	 Total Energy              =    -426.8504437462614760 [Eh]

	 ================> DF-SCS-MP2 Energies <==================
	-----------------------------------------------------------
	 SCS Same-Spin Scale       =       0.3333333333333333 [-]
	 SCS Opposite-Spin Scale   =       1.2000000000000000 [-]
	 SCS Same-Spin Energy      =      -0.1593837246193817 [Eh]
	 SCS Opposite-Spin Energy  =      -1.8887644045159637 [Eh]
	 SCS Correlation Energy    =      -2.0481481291353454 [Eh]
	 SCS Total Energy          =    -426.8464703644420410 [Eh]
	-----------------------------------------------------------

  Dipole Moment: [D]
     X:     0.4245      Y:    -0.0268      Z:    -0.0907     Total:     0.4349

*** Psi4 exiting successfully. Buy a developer a beer!
