                               Psi4 1.3.2 release

  ==> Input File <==

--------------------------------------------------------------------------
#psi4
#
memory 32 gb

molecule  {
0 1
  C        0.8906310    -0.4594820    -0.0000050
  C        1.6569550     0.1328190    -1.1912600
  C        1.6569550     0.1327950     1.1912610
  C        3.1340990     0.0195060    -0.7766230
  C        3.1340970     0.0194780     0.7766250
  C       -0.4955799    -0.2280793    -0.0000022
  C       -1.4969670    -1.2829160    -0.0000100
  C       -1.1118120     1.0929450     0.0000090
  C       -2.8761960    -1.0641450    -0.0000080
  C       -2.4886110     1.3169940     0.0000100
  C       -3.3769130     0.2384400     0.0000020
  H        1.0572190    -1.5476170    -0.0000160
  H        1.3709970     1.1847810    -1.3110530
  H        1.4307960    -0.3756260    -2.1343410
  H        1.4307900    -0.3756630     2.1343350
  H        1.3710040     1.1847570     1.3110690
  H        3.7365840     0.8333760    -1.1915700
  H        3.5617080    -0.9139040    -1.1569620
  H        3.5616920    -0.9139530     1.1569300
  H        3.7365940     0.8333230     1.1916040
  H       -1.1121130    -2.3017550    -0.0000190
  H       -0.4349580     1.9454780     0.0000160
  H       -3.5585010    -1.9112830    -0.0000130
  H       -2.8698420     2.3358160     0.0000180
  H       -4.4501080     0.4133470     0.0000030
units angstrom
no_reorient  #important for SAPT in psi4, default
symmetry c1  #important for SAPT in psi4, default
}

set PROPERTIES_ORIGIN ["COM"]
properties('MP2/aug-cc-pvtz', properties = ['dipole'])
--------------------------------------------------------------------------

    Molecular point group: c1
  Charge       = 0
  Multiplicity = 1
  Basis Set: AUG-CC-PVTZ
    Blend: AUG-CC-PVTZ
  Basis Set: (AUG-CC-PVTZ AUX)
    Blend: AUG-CC-PVTZ-JKFIT

    Orbital Energies [Eh]
    ---------------------

    Doubly Occupied:

       1A    -11.244741     2A    -11.234609     3A    -11.234405
       4A    -11.232932     5A    -11.232438     6A    -11.229695
       7A    -11.223807     8A    -11.219590     9A    -11.219555
      10A    -11.218318    11A    -11.217788    12A     -1.156225
      13A     -1.119032    14A     -1.033831    15A     -1.003785
      16A     -0.963923    17A     -0.943452    18A     -0.837962
      19A     -0.813881    20A     -0.775844    21A     -0.761757
      22A     -0.694184    23A     -0.659591    24A     -0.653893
      25A     -0.618365    26A     -0.606716    27A     -0.576077
      28A     -0.573734    29A     -0.563673    30A     -0.524496
      31A     -0.512666    32A     -0.489303    33A     -0.484893
      34A     -0.481401    35A     -0.471868    36A     -0.461859
      37A     -0.455062    38A     -0.445489    39A     -0.330819
      40A     -0.309054

  @DF-RHF Final Energy:  -424.82988267934763

   => Energetics <=

    Nuclear Repulsion Energy =            580.7861368163509042
    One-Electron Energy =               -1725.5706152935276805
    Two-Electron Energy =                 719.9545957978292563
    Total Energy =                       -424.8298826793476337
  Basis Set: (AUG-CC-PVTZ AUX)
    Blend: AUG-CC-PVTZ-RI
    Molecular point group: c1

    Geometry (in Angstrom), charge = 0, multiplicity = 1:

       Center              X                  Y                   Z               Mass
    ------------   -----------------  -----------------  -----------------  -----------------
         C            0.942503934875    -0.455474004574    -0.000004908342    12.000000000000
         C            1.708827934875     0.136826995426    -1.191259908342    12.000000000000
         C            1.708827934875     0.136802995426     1.191261091658    12.000000000000
         C            3.185971934875     0.023513995426    -0.776622908342    12.000000000000
         C            3.185969934875     0.023485995426     0.776625091658    12.000000000000
         C           -0.443706965125    -0.224071304574    -0.000002108342    12.000000000000
         C           -1.445094065125    -1.278908004574    -0.000009908342    12.000000000000
         C           -1.059939065125     1.096952995426     0.000009091658    12.000000000000
         C           -2.824323065125    -1.060137004574    -0.000007908342    12.000000000000
         C           -2.436738065125     1.321001995426     0.000010091658    12.000000000000
         C           -3.325040065125     0.242447995426     0.000002091658    12.000000000000
         H            1.109091934875    -1.543609004574    -0.000015908342     1.007825032230
         H            1.422869934875     1.188788995426    -1.311052908342     1.007825032230
         H            1.482668934875    -0.371618004574    -2.134340908342     1.007825032230
         H            1.482662934875    -0.371655004574     2.134335091658     1.007825032230
         H            1.422876934875     1.188764995426     1.311069091658     1.007825032230
         H            3.788456934875     0.837383995426    -1.191569908342     1.007825032230
         H            3.613580934875    -0.909896004574    -1.156961908342     1.007825032230
         H            3.613564934875    -0.909945004574     1.156930091658     1.007825032230
         H            3.788466934875     0.837330995426     1.191604091658     1.007825032230
         H           -1.060240065125    -2.297747004574    -0.000018908342     1.007825032230
         H           -0.383085065125     1.949485995426     0.000016091658     1.007825032230
         H           -3.506628065125    -1.907275004574    -0.000012908342     1.007825032230
         H           -2.817969065125     2.339823995426     0.000018091658     1.007825032230
         H           -4.398235065125     0.417354995426     0.000003091658     1.007825032230

  Basis Set: AUG-CC-PVTZ
    Blend: AUG-CC-PVTZ
  Basis Set: (AUG-CC-PVTZ AUX)
    Blend: AUG-CC-PVTZ-JKFIT
	 Reference Energy          =    -424.8298826793476337 [Eh]
	 Singles Energy            =      -0.0000000000000000 [Eh]
	 Same-Spin Energy          =      -0.4770129485409904 [Eh]
	 Opposite-Spin Energy      =      -1.5729370283850153 [Eh]
	 Correlation Energy        =      -2.0499499769260057 [Eh]
	 Total Energy              =    -426.8798326562736634 [Eh]

	 ================> DF-SCS-MP2 Energies <==================
	-----------------------------------------------------------
	 SCS Same-Spin Scale       =       0.3333333333333333 [-]
	 SCS Opposite-Spin Scale   =       1.2000000000000000 [-]
	 SCS Same-Spin Energy      =      -0.1590043161803301 [Eh]
	 SCS Opposite-Spin Energy  =      -1.8875244340620183 [Eh]
	 SCS Correlation Energy    =      -2.0465287502423486 [Eh]
	 SCS Total Energy          =    -426.8764114295900072 [Eh]
	-----------------------------------------------------------

  Dipole Moment: [D]
     X:     0.6855      Y:    -0.0244      Z:    -0.0000     Total:     0.6859

*** Psi4 exiting successfully. Buy a developer a beer!
