                               Psi4 1.3.2 release

  ==> Input File <==

--------------------------------------------------------------------------
#psi4
#
memory 32 gb

molecule  {
0 1
  C        0.8906310    -0.4594820    -0.0000050
  C        1.6569550     0.1328190    -1.1912600
  C        1.6569550     0.1327950     1.1912610
  C        3.1340990     0.0195060    -0.7766230
  C        3.1340970     0.0194780     0.7766250
  C       -0.5983147    -0.2375659    -0.0000023
  C       -1.4969670    -1.2829160    -0.0000100
  C       -1.1118120     1.0929450     0.0000090
  C       -2.8761960    -1.0641450    -0.0000080
  C       -2.4886110     1.3169940     0.0000100
  C       -3.3769130     0.2384400     0.0000020
  H        1.0572190    -1.5476170    -0.0000160
  H        1.3709970     1.1847810    -1.3110530
  H        1.4307960    -0.3756260    -2.1343410
  H        1.4307900    -0.3756630     2.1343350
  H        1.3710040     1.1847570     1.3110690
  H        3.7365840     0.8333760    -1.1915700
  H        3.5617080    -0.9139040    -1.1569620
  H        3.5616920    -0.9139530     1.1569300
  H        3.7365940     0.8333230     1.1916040
  H       -1.1121130    -2.3017550    -0.0000190
  H       -0.4349580     1.9454780     0.0000160
  H       -3.5585010    -1.9112830    -0.0000130
  H       -2.8698420     2.3358160     0.0000180
  H       -4.4501080     0.4133470     0.0000030
units angstrom
no_reorient  #important for SAPT in psi4, default
symmetry c1  #important for SAPT in psi4, default
}

set PROPERTIES_ORIGIN ["COM"]
properties('MP2/aug-cc-pvtz', properties = ['dipole'])
--------------------------------------------------------------------------

    Molecular point group: c1
  Charge       = 0
  Multiplicity = 1
  Basis Set: AUG-CC-PVTZ
    Blend: AUG-CC-PVTZ
  Basis Set: (AUG-CC-PVTZ AUX)
    Blend: AUG-CC-PVTZ-JKFIT

    Orbital Energies [Eh]
    ---------------------

    Doubly Occupied:

       1A    -11.237113     2A    -11.233576     3A    -11.233254
       4A    -11.231354     5A    -11.229676     6A    -11.227427
       7A    -11.226560     8A    -11.217175     9A    -11.217006
      10A    -11.216588    11A    -11.216236    12A     -1.155710
      13A     -1.119265    14A     -1.027880    15A     -1.008434
      16A     -0.961239    17A     -0.944173    18A     -0.833323
      19A     -0.814797    20A     -0.772957    21A     -0.763109
      22A     -0.695496    23A     -0.655205    24A     -0.645133
      25A     -0.619432    26A     -0.610500    27A     -0.581141
      28A     -0.573221    29A     -0.561608    30A     -0.525223
      31A     -0.512230    32A     -0.493399    33A     -0.479268
      34A     -0.471572    35A     -0.463666    36A     -0.461109
      37A     -0.454297    38A     -0.453212    39A     -0.333679
      40A     -0.319160

  @DF-RHF Final Energy:  -424.84553982469947

   => Energetics <=

    Nuclear Repulsion Energy =            580.6997265134891677
    One-Electron Energy =               -1725.4997228988797815
    Two-Electron Energy =                 719.9544565606911419
    Total Energy =                       -424.8455398246994719
  Basis Set: (AUG-CC-PVTZ AUX)
    Blend: AUG-CC-PVTZ-RI
    Molecular point group: c1

    Geometry (in Angstrom), charge = 0, multiplicity = 1:

       Center              X                  Y                   Z               Mass
    ------------   -----------------  -----------------  -----------------  -----------------
         C            0.950941559905    -0.454694868647    -0.000004900129    12.000000000000
         C            1.717265559905     0.137606131353    -1.191259900129    12.000000000000
         C            1.717265559905     0.137582131353     1.191261099871    12.000000000000
         C            3.194409559905     0.024293131353    -0.776622900129    12.000000000000
         C            3.194407559905     0.024265131353     0.776625099871    12.000000000000
         C           -0.538004140095    -0.232778768647    -0.000002200129    12.000000000000
         C           -1.436656440095    -1.278128868647    -0.000009900129    12.000000000000
         C           -1.051501440095     1.097732131353     0.000009099871    12.000000000000
         C           -2.815885440095    -1.059357868647    -0.000007900129    12.000000000000
         C           -2.428300440095     1.321781131353     0.000010099871    12.000000000000
         C           -3.316602440095     0.243227131353     0.000002099871    12.000000000000
         H            1.117529559905    -1.542829868647    -0.000015900129     1.007825032230
         H            1.431307559905     1.189568131353    -1.311052900129     1.007825032230
         H            1.491106559905    -0.370838868647    -2.134340900129     1.007825032230
         H            1.491100559905    -0.370875868647     2.134335099871     1.007825032230
         H            1.431314559905     1.189544131353     1.311069099871     1.007825032230
         H            3.796894559905     0.838163131353    -1.191569900129     1.007825032230
         H            3.622018559905    -0.909116868647    -1.156961900129     1.007825032230
         H            3.622002559905    -0.909165868647     1.156930099871     1.007825032230
         H            3.796904559905     0.838110131353     1.191604099871     1.007825032230
         H           -1.051802440095    -2.296967868647    -0.000018900129     1.007825032230
         H           -0.374647440095     1.950265131353     0.000016099871     1.007825032230
         H           -3.498190440095    -1.906495868647    -0.000012900129     1.007825032230
         H           -2.809531440095     2.340603131353     0.000018099871     1.007825032230
         H           -4.389797440095     0.418134131353     0.000003099871     1.007825032230

  Basis Set: AUG-CC-PVTZ
    Blend: AUG-CC-PVTZ
  Basis Set: (AUG-CC-PVTZ AUX)
    Blend: AUG-CC-PVTZ-JKFIT
	 Reference Energy          =    -424.8455398246994719 [Eh]
	 Singles Energy            =      -0.0000000000000000 [Eh]
	 Same-Spin Energy          =      -0.4751944456013739 [Eh]
	 Opposite-Spin Energy      =      -1.5699424352617850 [Eh]
	 Correlation Energy        =      -2.0451368808631587 [Eh]
	 Total Energy              =    -426.8906767055626119 [Eh]

	 ================> DF-SCS-MP2 Energies <==================
	-----------------------------------------------------------
	 SCS Same-Spin Scale       =       0.3333333333333333 [-]
	 SCS Opposite-Spin Scale   =       1.2000000000000000 [-]
	 SCS Same-Spin Energy      =      -0.1583981485337913 [Eh]
	 SCS Opposite-Spin Energy  =      -1.8839309223141418 [Eh]
	 SCS Correlation Energy    =      -2.0423290708479329 [Eh]
	 SCS Total Energy          =    -426.8878688955473990 [Eh]
	-----------------------------------------------------------

  Dipole Moment: [D]
     X:     0.4735      Y:    -0.0247      Z:    -0.0000     Total:     0.4741

*** Psi4 exiting successfully. Buy a developer a beer!
