                               Psi4 1.3.2 release

  ==> Input File <==

--------------------------------------------------------------------------
#psi4
#
memory 32 gb

molecule  {
0 1
  C        0.8906310    -0.4594820    -0.0000050
  C        1.6569550     0.1328190    -1.1912600
  C        1.6569550     0.1327950     1.1912610
  C        3.1340990     0.0195060    -0.7766230
  C        3.1340970     0.0194780     0.7766250
  C       -0.5846600    -0.1599446    -0.0000015
  C       -1.4969670    -1.2829160    -0.0000100
  C       -1.1118120     1.0929450     0.0000090
  C       -2.8761960    -1.0641450    -0.0000080
  C       -2.4886110     1.3169940     0.0000100
  C       -3.3769130     0.2384400     0.0000020
  H        1.0572190    -1.5476170    -0.0000160
  H        1.3709970     1.1847810    -1.3110530
  H        1.4307960    -0.3756260    -2.1343410
  H        1.4307900    -0.3756630     2.1343350
  H        1.3710040     1.1847570     1.3110690
  H        3.7365840     0.8333760    -1.1915700
  H        3.5617080    -0.9139040    -1.1569620
  H        3.5616920    -0.9139530     1.1569300
  H        3.7365940     0.8333230     1.1916040
  H       -1.1121130    -2.3017550    -0.0000190
  H       -0.4349580     1.9454780     0.0000160
  H       -3.5585010    -1.9112830    -0.0000130
  H       -2.8698420     2.3358160     0.0000180
  H       -4.4501080     0.4133470     0.0000030
units angstrom
no_reorient  #important for SAPT in psi4, default
symmetry c1  #important for SAPT in psi4, default
}

set PROPERTIES_ORIGIN ["COM"]
properties('MP2/aug-cc-pvtz', properties = ['dipole'])
--------------------------------------------------------------------------

    Molecular point group: c1
  Charge       = 0
  Multiplicity = 1
  Basis Set: AUG-CC-PVTZ
    Blend: AUG-CC-PVTZ
  Basis Set: (AUG-CC-PVTZ AUX)
    Blend: AUG-CC-PVTZ-JKFIT

    Orbital Energies [Eh]
    ---------------------

    Doubly Occupied:

       1A    -11.237021     2A    -11.233944     3A    -11.233667
       4A    -11.232351     5A    -11.229464     6A    -11.227637
       7A    -11.224157     8A    -11.216715     9A    -11.216491
      10A    -11.216093    11A    -11.215795    12A     -1.156204
      13A     -1.119175    14A     -1.028263    15A     -1.007752
      16A     -0.961110    17A     -0.944175    18A     -0.828806
      19A     -0.821019    20A     -0.772938    21A     -0.759951
      22A     -0.696283    23A     -0.654868    24A     -0.645204
      25A     -0.621238    26A     -0.607018    27A     -0.581986
      28A     -0.572971    29A     -0.563516    30A     -0.524951
      31A     -0.512748    32A     -0.493286    33A     -0.479016
      34A     -0.472716    35A     -0.468369    36A     -0.461066
      37A     -0.453015    38A     -0.447256    39A     -0.334579
      40A     -0.317935

  @DF-RHF Final Energy:  -424.84287473329323

   => Energetics <=

    Nuclear Repulsion Energy =            580.8956267184447597
    One-Electron Energy =               -1725.8955054314526478
    Two-Electron Energy =                 720.1570039797147729
    Total Energy =                       -424.8428747332932289
  Basis Set: (AUG-CC-PVTZ AUX)
    Blend: AUG-CC-PVTZ-RI
    Molecular point group: c1

    Geometry (in Angstrom), charge = 0, multiplicity = 1:

       Center              X                  Y                   Z               Mass
    ------------   -----------------  -----------------  -----------------  -----------------
         C            0.949820097280    -0.461069918034    -0.000004965833    12.000000000000
         C            1.716144097280     0.131231081966    -1.191259965833    12.000000000000
         C            1.716144097280     0.131207081966     1.191261034167    12.000000000000
         C            3.193288097280     0.017918081966    -0.776622965833    12.000000000000
         C            3.193286097280     0.017890081966     0.776625034167    12.000000000000
         C           -0.525470902720    -0.161532518034    -0.000001465833    12.000000000000
         C           -1.437777902720    -1.284503918034    -0.000009965833    12.000000000000
         C           -1.052622902720     1.091357081966     0.000009034167    12.000000000000
         C           -2.817006902720    -1.065732918034    -0.000007965833    12.000000000000
         C           -2.429421902720     1.315406081966     0.000010034167    12.000000000000
         C           -3.317723902720     0.236852081966     0.000002034167    12.000000000000
         H            1.116408097280    -1.549204918034    -0.000015965833     1.007825032230
         H            1.430186097280     1.183193081966    -1.311052965833     1.007825032230
         H            1.489985097280    -0.377213918034    -2.134340965833     1.007825032230
         H            1.489979097280    -0.377250918034     2.134335034167     1.007825032230
         H            1.430193097280     1.183169081966     1.311069034167     1.007825032230
         H            3.795773097280     0.831788081966    -1.191569965833     1.007825032230
         H            3.620897097280    -0.915491918034    -1.156961965833     1.007825032230
         H            3.620881097280    -0.915540918034     1.156930034167     1.007825032230
         H            3.795783097280     0.831735081966     1.191604034167     1.007825032230
         H           -1.052923902720    -2.303342918034    -0.000018965833     1.007825032230
         H           -0.375768902720     1.943890081966     0.000016034167     1.007825032230
         H           -3.499311902720    -1.912870918034    -0.000012965833     1.007825032230
         H           -2.810652902720     2.334228081966     0.000018034167     1.007825032230
         H           -4.390918902720     0.411759081966     0.000003034167     1.007825032230

  Basis Set: AUG-CC-PVTZ
    Blend: AUG-CC-PVTZ
  Basis Set: (AUG-CC-PVTZ AUX)
    Blend: AUG-CC-PVTZ-JKFIT
	 Reference Energy          =    -424.8428747332932289 [Eh]
	 Singles Energy            =      -0.0000000000000000 [Eh]
	 Same-Spin Energy          =      -0.4752627301558123 [Eh]
	 Opposite-Spin Energy      =      -1.5701388937295324 [Eh]
	 Correlation Energy        =      -2.0454016238853447 [Eh]
	 Total Energy              =    -426.8882763571785972 [Eh]

	 ================> DF-SCS-MP2 Energies <==================
	-----------------------------------------------------------
	 SCS Same-Spin Scale       =       0.3333333333333333 [-]
	 SCS Opposite-Spin Scale   =       1.2000000000000000 [-]
	 SCS Same-Spin Energy      =      -0.1584209100519374 [Eh]
	 SCS Opposite-Spin Energy  =      -1.8841666724754389 [Eh]
	 SCS Correlation Energy    =      -2.0425875825273763 [Eh]
	 SCS Total Energy          =    -426.8854623158206323 [Eh]
	-----------------------------------------------------------

  Dipole Moment: [D]
     X:     0.4766      Y:    -0.0538      Z:    -0.0000     Total:     0.4796

*** Psi4 exiting successfully. Buy a developer a beer!
