                               Psi4 1.3.2 release

  ==> Input File <==

--------------------------------------------------------------------------
#psi4
#
memory 32 gb

molecule  {
0 1
  C        0.8906310    -0.4594820    -0.0000050
  C        1.6569550     0.1328190    -1.1912600
  C        1.6569550     0.1327950     1.1912610
  C        3.1340990     0.0195060    -0.7766230
  C        3.1340970     0.0194780     0.7766250
  C       -0.6078884    -0.3157954    -0.0000030
  C       -1.4969670    -1.2829160    -0.0000100
  C       -1.1118120     1.0929450     0.0000090
  C       -2.8761960    -1.0641450    -0.0000080
  C       -2.4886110     1.3169940     0.0000100
  C       -3.3769130     0.2384400     0.0000020
  H        1.0572190    -1.5476170    -0.0000160
  H        1.3709970     1.1847810    -1.3110530
  H        1.4307960    -0.3756260    -2.1343410
  H        1.4307900    -0.3756630     2.1343350
  H        1.3710040     1.1847570     1.3110690
  H        3.7365840     0.8333760    -1.1915700
  H        3.5617080    -0.9139040    -1.1569620
  H        3.5616920    -0.9139530     1.1569300
  H        3.7365940     0.8333230     1.1916040
  H       -1.1121130    -2.3017550    -0.0000190
  H       -0.4349580     1.9454780     0.0000160
  H       -3.5585010    -1.9112830    -0.0000130
  H       -2.8698420     2.3358160     0.0000180
  H       -4.4501080     0.4133470     0.0000030
units angstrom
no_reorient  #important for SAPT in psi4, default
symmetry c1  #important for SAPT in psi4, default
}

set PROPERTIES_ORIGIN ["COM"]
properties('MP2/aug-cc-pvtz', properties = ['dipole'])
--------------------------------------------------------------------------

    Molecular point group: c1
  Charge       = 0
  Multiplicity = 1
  Basis Set: AUG-CC-PVTZ
    Blend: AUG-CC-PVTZ
  Basis Set: (AUG-CC-PVTZ AUX)
    Blend: AUG-CC-PVTZ-JKFIT

    Orbital Energies [Eh]
    ---------------------

    Doubly Occupied:

       1A    -11.237570     2A    -11.235780     3A    -11.233558
       4A    -11.232528     5A    -11.230217     6A    -11.227837
       7A    -11.218940     8A    -11.217819     9A    -11.217727
      10A    -11.217228    11A    -11.216801    12A     -1.156505
      13A     -1.119635    14A     -1.033147    15A     -1.005143
      16A     -0.961541    17A     -0.944839    18A     -0.837754
      19A     -0.808763    20A     -0.773142    21A     -0.765471
      22A     -0.694946    23A     -0.655602    24A     -0.646959
      25A     -0.619331    26A     -0.611332    27A     -0.579404
      28A     -0.573664    29A     -0.559511    30A     -0.525625
      31A     -0.512816    32A     -0.495415    33A     -0.479687
      34A     -0.471521    35A     -0.464413    36A     -0.461224
      37A     -0.453541    38A     -0.446661    39A     -0.341874
      40A     -0.314155

  @DF-RHF Final Energy:  -424.83316463384585

   => Energetics <=

    Nuclear Repulsion Energy =            580.5502708013934807
    One-Electron Energy =               -1725.1676245127082439
    Two-Electron Energy =                 719.7841890774689091
    Total Energy =                       -424.8331646338458540
  Basis Set: (AUG-CC-PVTZ AUX)
    Blend: AUG-CC-PVTZ-RI
    Molecular point group: c1

    Geometry (in Angstrom), charge = 0, multiplicity = 1:

       Center              X                  Y                   Z               Mass
    ------------   -----------------  -----------------  -----------------  -----------------
         C            0.951727849368    -0.448269867701    -0.000004842637    12.000000000000
         C            1.718051849368     0.144031132299    -1.191259842637    12.000000000000
         C            1.718051849368     0.144007132299     1.191261157363    12.000000000000
         C            3.195195849368     0.030718132299    -0.776622842637    12.000000000000
         C            3.195193849368     0.030690132299     0.776625157363    12.000000000000
         C           -0.546791550632    -0.304583267701    -0.000002842637    12.000000000000
         C           -1.435870150632    -1.271703867701    -0.000009842637    12.000000000000
         C           -1.050715150632     1.104157132299     0.000009157363    12.000000000000
         C           -2.815099150632    -1.052932867701    -0.000007842637    12.000000000000
         C           -2.427514150632     1.328206132299     0.000010157363    12.000000000000
         C           -3.315816150632     0.249652132299     0.000002157363    12.000000000000
         H            1.118315849368    -1.536404867701    -0.000015842637     1.007825032230
         H            1.432093849368     1.195993132299    -1.311052842637     1.007825032230
         H            1.491892849368    -0.364413867701    -2.134340842637     1.007825032230
         H            1.491886849368    -0.364450867701     2.134335157363     1.007825032230
         H            1.432100849368     1.195969132299     1.311069157363     1.007825032230
         H            3.797680849368     0.844588132299    -1.191569842637     1.007825032230
         H            3.622804849368    -0.902691867701    -1.156961842637     1.007825032230
         H            3.622788849368    -0.902740867701     1.156930157363     1.007825032230
         H            3.797690849368     0.844535132299     1.191604157363     1.007825032230
         H           -1.051016150632    -2.290542867701    -0.000018842637     1.007825032230
         H           -0.373861150632     1.956690132299     0.000016157363     1.007825032230
         H           -3.497404150632    -1.900070867701    -0.000012842637     1.007825032230
         H           -2.808745150632     2.347028132299     0.000018157363     1.007825032230
         H           -4.389011150632     0.424559132299     0.000003157363     1.007825032230

  Basis Set: AUG-CC-PVTZ
    Blend: AUG-CC-PVTZ
  Basis Set: (AUG-CC-PVTZ AUX)
    Blend: AUG-CC-PVTZ-JKFIT
	 Reference Energy          =    -424.8331646338458540 [Eh]
	 Singles Energy            =      -0.0000000000000000 [Eh]
	 Same-Spin Energy          =      -0.4747746433073844 [Eh]
	 Opposite-Spin Energy      =      -1.5703315435789360 [Eh]
	 Correlation Energy        =      -2.0451061868863203 [Eh]
	 Total Energy              =    -426.8782708207321548 [Eh]

	 ================> DF-SCS-MP2 Energies <==================
	-----------------------------------------------------------
	 SCS Same-Spin Scale       =       0.3333333333333333 [-]
	 SCS Opposite-Spin Scale   =       1.2000000000000000 [-]
	 SCS Same-Spin Energy      =      -0.1582582144357948 [Eh]
	 SCS Opposite-Spin Energy  =      -1.8843978522947231 [Eh]
	 SCS Correlation Energy    =      -2.0426560667305180 [Eh]
	 SCS Total Energy          =    -426.8758207005763552 [Eh]
	-----------------------------------------------------------

  Dipole Moment: [D]
     X:     0.4809      Y:     0.0016      Z:     0.0000     Total:     0.4809

*** Psi4 exiting successfully. Buy a developer a beer!
