                               Psi4 1.3.2 release

  ==> Input File <==

--------------------------------------------------------------------------
#psi4
#
memory 32 gb

molecule  {
0 1
  C        0.8983769    -0.4075106    -0.0000046
  C        1.6569550     0.1328190    -1.1912600
  C        1.6569550     0.1327950     1.1912610
  C        3.1340990     0.0195060    -0.7766230
  C        3.1340970     0.0194780     0.7766250
  C       -0.5942150    -0.2116140    -0.0000020
  C       -1.4969670    -1.2829160    -0.0000100
  C       -1.1118120     1.0929450     0.0000090
  C       -2.8761960    -1.0641450    -0.0000080
  C       -2.4886110     1.3169940     0.0000100
  C       -3.3769130     0.2384400     0.0000020
  H        1.0572190    -1.5476170    -0.0000160
  H        1.3709970     1.1847810    -1.3110530
  H        1.4307960    -0.3756260    -2.1343410
  H        1.4307900    -0.3756630     2.1343350
  H        1.3710040     1.1847570     1.3110690
  H        3.7365840     0.8333760    -1.1915700
  H        3.5617080    -0.9139040    -1.1569620
  H        3.5616920    -0.9139530     1.1569300
  H        3.7365940     0.8333230     1.1916040
  H       -1.1121130    -2.3017550    -0.0000190
  H       -0.4349580     1.9454780     0.0000160
  H       -3.5585010    -1.9112830    -0.0000130
  H       -2.8698420     2.3358160     0.0000180
  H       -4.4501080     0.4133470     0.0000030
units angstrom
no_reorient  #important for SAPT in psi4, default
symmetry c1  #important for SAPT in psi4, default
}

set PROPERTIES_ORIGIN ["COM"]
properties('MP2/aug-cc-pvtz', properties = ['dipole'])
--------------------------------------------------------------------------

    Molecular point group: c1
  Charge       = 0
  Multiplicity = 1
  Basis Set: AUG-CC-PVTZ
    Blend: AUG-CC-PVTZ
  Basis Set: (AUG-CC-PVTZ AUX)
    Blend: AUG-CC-PVTZ-JKFIT

    Orbital Energies [Eh]
    ---------------------

    Doubly Occupied:

       1A    -11.237410     2A    -11.233705     3A    -11.233493
       4A    -11.230144     5A    -11.229927     6A    -11.229615
       7A    -11.228859     8A    -11.217244     9A    -11.216749
      10A    -11.215913    11A    -11.215886    12A     -1.157245
      13A     -1.122326    14A     -1.027407    15A     -1.009025
      16A     -0.963886    17A     -0.945567    18A     -0.830308
      19A     -0.818252    20A     -0.775468    21A     -0.757862
      22A     -0.695734    23A     -0.657532    24A     -0.646501
      25A     -0.619320    26A     -0.609838    27A     -0.581636
      28A     -0.572793    29A     -0.558378    30A     -0.526874
      31A     -0.515141    32A     -0.492292    33A     -0.482968
      34A     -0.472836    35A     -0.466066    36A     -0.463292
      37A     -0.453088    38A     -0.443314    39A     -0.332783
      40A     -0.321355

  @DF-RHF Final Energy:  -424.84269908748382

   => Energetics <=

    Nuclear Repulsion Energy =            581.2056674841993527
    One-Electron Energy =               -1726.4806643570966571
    Two-Electron Energy =                 720.4322977854133114
    Total Energy =                       -424.8426990874838793
  Basis Set: (AUG-CC-PVTZ AUX)
    Blend: AUG-CC-PVTZ-RI
    Molecular point group: c1

    Geometry (in Angstrom), charge = 0, multiplicity = 1:

       Center              X                  Y                   Z               Mass
    ------------   -----------------  -----------------  -----------------  -----------------
         C            0.957714578943    -0.409123321341    -0.000004557620    12.000000000000
         C            1.716292678943     0.131206278659    -1.191259957620    12.000000000000
         C            1.716292678943     0.131182278659     1.191261042380    12.000000000000
         C            3.193436678943     0.017893278659    -0.776622957620    12.000000000000
         C            3.193434678943     0.017865278659     0.776625042380    12.000000000000
         C           -0.534877321057    -0.213226721341    -0.000001957620    12.000000000000
         C           -1.437629321057    -1.284528721341    -0.000009957620    12.000000000000
         C           -1.052474321057     1.091332278659     0.000009042380    12.000000000000
         C           -2.816858321057    -1.065757721341    -0.000007957620    12.000000000000
         C           -2.429273321057     1.315381278659     0.000010042380    12.000000000000
         C           -3.317575321057     0.236827278659     0.000002042380    12.000000000000
         H            1.116556678943    -1.549229721341    -0.000015957620     1.007825032230
         H            1.430334678943     1.183168278659    -1.311052957620     1.007825032230
         H            1.490133678943    -0.377238721341    -2.134340957620     1.007825032230
         H            1.490127678943    -0.377275721341     2.134335042380     1.007825032230
         H            1.430341678943     1.183144278659     1.311069042380     1.007825032230
         H            3.795921678943     0.831763278659    -1.191569957620     1.007825032230
         H            3.621045678943    -0.915516721341    -1.156961957620     1.007825032230
         H            3.621029678943    -0.915565721341     1.156930042380     1.007825032230
         H            3.795931678943     0.831710278659     1.191604042380     1.007825032230
         H           -1.052775321057    -2.303367721341    -0.000018957620     1.007825032230
         H           -0.375620321057     1.943865278659     0.000016042380     1.007825032230
         H           -3.499163321057    -1.912895721341    -0.000012957620     1.007825032230
         H           -2.810504321057     2.334203278659     0.000018042380     1.007825032230
         H           -4.390770321057     0.411734278659     0.000003042380     1.007825032230

  Basis Set: AUG-CC-PVTZ
    Blend: AUG-CC-PVTZ
  Basis Set: (AUG-CC-PVTZ AUX)
    Blend: AUG-CC-PVTZ-JKFIT
	 Reference Energy          =    -424.8426990874838225 [Eh]
	 Singles Energy            =      -0.0000000000000000 [Eh]
	 Same-Spin Energy          =      -0.4756281470310543 [Eh]
	 Opposite-Spin Energy      =      -1.5704429077055704 [Eh]
	 Correlation Energy        =      -2.0460710547366245 [Eh]
	 Total Energy              =    -426.8887701422204373 [Eh]

	 ================> DF-SCS-MP2 Energies <==================
	-----------------------------------------------------------
	 SCS Same-Spin Scale       =       0.3333333333333333 [-]
	 SCS Opposite-Spin Scale   =       1.2000000000000000 [-]
	 SCS Same-Spin Energy      =      -0.1585427156770181 [Eh]
	 SCS Opposite-Spin Energy  =      -1.8845314892466845 [Eh]
	 SCS Correlation Energy    =      -2.0430742049237027 [Eh]
	 SCS Total Energy          =    -426.8857732924075208 [Eh]
	-----------------------------------------------------------

  Dipole Moment: [D]
     X:     0.4476      Y:     0.0000      Z:     0.0000     Total:     0.4476

*** Psi4 exiting successfully. Buy a developer a beer!
