                               Psi4 1.3.2 release

  ==> Input File <==

--------------------------------------------------------------------------
#psi4
#
memory 32 gb

molecule  {
0 1
  C        0.8697236    -0.5624558    -0.0000058
  C        1.6569550     0.1328190    -1.1912600
  C        1.6569550     0.1327950     1.1912610
  C        3.1340990     0.0195060    -0.7766230
  C        3.1340970     0.0194780     0.7766250
  C       -0.5942150    -0.2116140    -0.0000020
  C       -1.4969670    -1.2829160    -0.0000100
  C       -1.1118120     1.0929450     0.0000090
  C       -2.8761960    -1.0641450    -0.0000080
  C       -2.4886110     1.3169940     0.0000100
  C       -3.3769130     0.2384400     0.0000020
  H        1.0572190    -1.5476170    -0.0000160
  H        1.3709970     1.1847810    -1.3110530
  H        1.4307960    -0.3756260    -2.1343410
  H        1.4307900    -0.3756630     2.1343350
  H        1.3710040     1.1847570     1.3110690
  H        3.7365840     0.8333760    -1.1915700
  H        3.5617080    -0.9139040    -1.1569620
  H        3.5616920    -0.9139530     1.1569300
  H        3.7365940     0.8333230     1.1916040
  H       -1.1121130    -2.3017550    -0.0000190
  H       -0.4349580     1.9454780     0.0000160
  H       -3.5585010    -1.9112830    -0.0000130
  H       -2.8698420     2.3358160     0.0000180
  H       -4.4501080     0.4133470     0.0000030
units angstrom
no_reorient  #important for SAPT in psi4, default
symmetry c1  #important for SAPT in psi4, default
}

set PROPERTIES_ORIGIN ["COM"]
properties('MP2/aug-cc-pvtz', properties = ['dipole'])
--------------------------------------------------------------------------

    Molecular point group: c1
  Charge       = 0
  Multiplicity = 1
  Basis Set: AUG-CC-PVTZ
    Blend: AUG-CC-PVTZ
  Basis Set: (AUG-CC-PVTZ AUX)
    Blend: AUG-CC-PVTZ-JKFIT

    Orbital Energies [Eh]
    ---------------------

    Doubly Occupied:

       1A    -11.237945     2A    -11.234082     3A    -11.232318
       4A    -11.230010     5A    -11.228668     6A    -11.226803
       7A    -11.224902     8A    -11.218980     9A    -11.218952
      10A    -11.216186    11A    -11.215639    12A     -1.153668
      13A     -1.112817    14A     -1.027701    15A     -1.008371
      16A     -0.956332    17A     -0.942205    18A     -0.835587
      19A     -0.814752    20A     -0.772623    21A     -0.768399
      22A     -0.696485    23A     -0.651367    24A     -0.641216
      25A     -0.622055    26A     -0.608787    27A     -0.582233
      28A     -0.573200    29A     -0.572160    30A     -0.521885
      31A     -0.509063    32A     -0.497455    33A     -0.482400
      34A     -0.474807    35A     -0.468191    36A     -0.453170
      37A     -0.450291    38A     -0.446417    39A     -0.332376
      40A     -0.316224

  @DF-RHF Final Energy:  -424.83402253261960

   => Energetics <=

    Nuclear Repulsion Energy =            579.8205660022963457
    One-Electron Energy =               -1723.7557283136743536
    Two-Electron Energy =                 719.1011397787583519
    Total Energy =                       -424.8340225326196560
  Basis Set: (AUG-CC-PVTZ AUX)
    Blend: AUG-CC-PVTZ-RI
    Molecular point group: c1

    Geometry (in Angstrom), charge = 0, multiplicity = 1:

       Center              X                  Y                   Z               Mass
    ------------   -----------------  -----------------  -----------------  -----------------
         C            0.931414578908    -0.551342848076    -0.000005659063    12.000000000000
         C            1.718645978908     0.143931951924    -1.191259859063    12.000000000000
         C            1.718645978908     0.143907951924     1.191261140937    12.000000000000
         C            3.195789978908     0.030618951924    -0.776622859063    12.000000000000
         C            3.195787978908     0.030590951924     0.776625140937    12.000000000000
         C           -0.532524021092    -0.200501048076    -0.000001859063    12.000000000000
         C           -1.435276021092    -1.271803048076    -0.000009859063    12.000000000000
         C           -1.050121021092     1.104057951924     0.000009140937    12.000000000000
         C           -2.814505021092    -1.053032048076    -0.000007859063    12.000000000000
         C           -2.426920021092     1.328106951924     0.000010140937    12.000000000000
         C           -3.315222021092     0.249552951924     0.000002140937    12.000000000000
         H            1.118909978908    -1.536504048076    -0.000015859063     1.007825032230
         H            1.432687978908     1.195893951924    -1.311052859063     1.007825032230
         H            1.492486978908    -0.364513048076    -2.134340859063     1.007825032230
         H            1.492480978908    -0.364550048076     2.134335140937     1.007825032230
         H            1.432694978908     1.195869951924     1.311069140937     1.007825032230
         H            3.798274978908     0.844488951924    -1.191569859063     1.007825032230
         H            3.623398978908    -0.902791048076    -1.156961859063     1.007825032230
         H            3.623382978908    -0.902840048076     1.156930140937     1.007825032230
         H            3.798284978908     0.844435951924     1.191604140937     1.007825032230
         H           -1.050422021092    -2.290642048076    -0.000018859063     1.007825032230
         H           -0.373267021092     1.956590951924     0.000016140937     1.007825032230
         H           -3.496810021092    -1.900170048076    -0.000012859063     1.007825032230
         H           -2.808151021092     2.346928951924     0.000018140937     1.007825032230
         H           -4.388417021092     0.424459951924     0.000003140937     1.007825032230

  Basis Set: AUG-CC-PVTZ
    Blend: AUG-CC-PVTZ
  Basis Set: (AUG-CC-PVTZ AUX)
    Blend: AUG-CC-PVTZ-JKFIT
	 Reference Energy          =    -424.8340225326195991 [Eh]
	 Singles Energy            =      -0.0000000000000000 [Eh]
	 Same-Spin Energy          =      -0.4750008372141733 [Eh]
	 Opposite-Spin Energy      =      -1.5701113237847517 [Eh]
	 Correlation Energy        =      -2.0451121609989249 [Eh]
	 Total Energy              =    -426.8791346936185391 [Eh]

	 ================> DF-SCS-MP2 Energies <==================
	-----------------------------------------------------------
	 SCS Same-Spin Scale       =       0.3333333333333333 [-]
	 SCS Opposite-Spin Scale   =       1.2000000000000000 [-]
	 SCS Same-Spin Energy      =      -0.1583336124047244 [Eh]
	 SCS Opposite-Spin Energy  =      -1.8841335885417019 [Eh]
	 SCS Correlation Energy    =      -2.0424672009464264 [Eh]
	 SCS Total Energy          =    -426.8764897335660180 [Eh]
	-----------------------------------------------------------

  Dipole Moment: [D]
     X:     0.5198      Y:    -0.0795      Z:    -0.0000     Total:     0.5258

*** Psi4 exiting successfully. Buy a developer a beer!
