                               Psi4 1.4a3.dev225

  ==> Input File <==

--------------------------------------------------------------------------
#psi4
#
memory 32 gb

molecule  {
0 1
  C        0.8906310    -0.4594820    -0.0000050
  C        1.6569550     0.1328190    -1.1912600
  C        1.6569550     0.1327950     1.1912610
  C        3.1340990     0.0195060    -0.7766230
  C        3.1340970     0.0194780     0.7766250
  C       -0.5744880    -0.2149071    -0.0000020
  C       -1.4969670    -1.2829160    -0.0000100
  C       -1.1118120     1.0929450     0.0000090
  C       -2.8761960    -1.0641450    -0.0000080
  C       -2.4886110     1.3169940     0.0000100
  C       -3.3769130     0.2384400     0.0000020
  H        1.0572190    -1.5476170    -0.0000160
  H        1.3709970     1.1847810    -1.3110530
  H        1.4307960    -0.3756260    -2.1343410
  H        1.4307900    -0.3756630     2.1343350
  H        1.3710040     1.1847570     1.3110690
  H        3.7365840     0.8333760    -1.1915700
  H        3.5617080    -0.9139040    -1.1569620
  H        3.5616920    -0.9139530     1.1569300
  H        3.7365940     0.8333230     1.1916040
  H       -1.1121130    -2.3017550    -0.0000190
  H       -0.4349580     1.9454780     0.0000160
  H       -3.5585010    -1.9112830    -0.0000130
  H       -2.8698420     2.3358160     0.0000180
  H       -4.4501080     0.4133470     0.0000030
units angstrom
no_reorient  #important for SAPT in psi4, default
symmetry c1  #important for SAPT in psi4, default
}

set PROPERTIES_ORIGIN ["COM"]
properties('MP2/aug-cc-pvtz', properties = ['dipole'])
--------------------------------------------------------------------------

    Molecular point group: c1
  Charge       = 0
  Multiplicity = 1
  Basis Set: AUG-CC-PVTZ
    Blend: AUG-CC-PVTZ
  Basis Set: (AUG-CC-PVTZ AUX)
    Blend: AUG-CC-PVTZ-JKFIT

    Orbital Energies [Eh]
    ---------------------

    Doubly Occupied:

       1A    -11.238672     2A    -11.233612     3A    -11.233098
       4A    -11.230165     5A    -11.229954     6A    -11.229594
       7A    -11.226820     8A    -11.217392     9A    -11.217283
      10A    -11.216810    11A    -11.216401    12A     -1.155225
      13A     -1.119366    14A     -1.028303    15A     -1.007679
      16A     -0.961674    17A     -0.944148    18A     -0.832514
      19A     -0.816657    20A     -0.773460    21A     -0.762148
      22A     -0.695335    23A     -0.655811    24A     -0.646777
      25A     -0.619443    26A     -0.609070    27A     -0.579876
      28A     -0.573644    29A     -0.562661    30A     -0.524995
      31A     -0.512045    32A     -0.491715    33A     -0.479577
      34A     -0.473381    35A     -0.468152    36A     -0.461307
      37A     -0.453484    38A     -0.452383    39A     -0.332218
      40A     -0.317824

  @DF-RHF Final Energy:  -424.84521756208653

   => Energetics <=

    Nuclear Repulsion Energy =            580.7496107600985624
    One-Electron Energy =               -1725.5883184849792542
    Two-Electron Energy =                 719.9934901627942736
    Total Energy =                       -424.8452175620865319
  Basis Set: (AUG-CC-PVTZ AUX)
    Blend: AUG-CC-PVTZ-RI
    Molecular point group: c1

    Geometry (in Angstrom), charge = 0, multiplicity = 1:

       Center              X                  Y                   Z               Mass
    ------------   -----------------  -----------------  -----------------  -----------------
         C            0.948984669345    -0.456555839400    -0.000004924768    12.000000000000
         C            1.715308669345     0.135745160600    -1.191259924768    12.000000000000
         C            1.715308669345     0.135721160600     1.191261075232    12.000000000000
         C            3.192452669345     0.022432160600    -0.776622924768    12.000000000000
         C            3.192450669345     0.022404160600     0.776625075232    12.000000000000
         C           -0.516134330655    -0.211980939400    -0.000001924768    12.000000000000
         C           -1.438613330655    -1.279989839400    -0.000009924768    12.000000000000
         C           -1.053458330655     1.095871160600     0.000009075232    12.000000000000
         C           -2.817842330655    -1.061218839400    -0.000007924768    12.000000000000
         C           -2.430257330655     1.319920160600     0.000010075232    12.000000000000
         C           -3.318559330655     0.241366160600     0.000002075232    12.000000000000
         H            1.115572669345    -1.544690839400    -0.000015924768     1.007825032230
         H            1.429350669345     1.187707160600    -1.311052924768     1.007825032230
         H            1.489149669345    -0.372699839400    -2.134340924768     1.007825032230
         H            1.489143669345    -0.372736839400     2.134335075232     1.007825032230
         H            1.429357669345     1.187683160600     1.311069075232     1.007825032230
         H            3.794937669345     0.836302160600    -1.191569924768     1.007825032230
         H            3.620061669345    -0.910977839400    -1.156961924768     1.007825032230
         H            3.620045669345    -0.911026839400     1.156930075232     1.007825032230
         H            3.794947669345     0.836249160600     1.191604075232     1.007825032230
         H           -1.053759330655    -2.298828839400    -0.000018924768     1.007825032230
         H           -0.376604330655     1.948404160600     0.000016075232     1.007825032230
         H           -3.500147330655    -1.908356839400    -0.000012924768     1.007825032230
         H           -2.811488330655     2.338742160600     0.000018075232     1.007825032230
         H           -4.391754330655     0.416273160600     0.000003075232     1.007825032230

  Basis Set: AUG-CC-PVTZ
    Blend: AUG-CC-PVTZ
  Basis Set: (AUG-CC-PVTZ AUX)
    Blend: AUG-CC-PVTZ-JKFIT
	 Reference Energy          =    -424.8452175620865319 [Eh]
	 Singles Energy            =      -0.0000000000000000 [Eh]
	 Same-Spin Energy          =      -0.4755079470933493 [Eh]
	 Opposite-Spin Energy      =      -1.5703729296991504 [Eh]
	 Correlation Energy        =      -2.0458808767924999 [Eh]
	 Total Energy              =    -426.8910984388790553 [Eh]

	 ================> DF-SCS-MP2 Energies <==================
	-----------------------------------------------------------
	 SCS Same-Spin Scale       =       0.3333333333333333 [-]
	 SCS Opposite-Spin Scale   =       1.2000000000000000 [-]
	 SCS Same-Spin Energy      =      -0.1585026490311164 [Eh]
	 SCS Opposite-Spin Energy  =      -1.8844475156389804 [Eh]
	 SCS Correlation Energy    =      -2.0429501646700969 [Eh]
	 SCS Total Energy          =    -426.8881677267566488 [Eh]
	-----------------------------------------------------------

  Dipole Moment: [D]
     X:     0.5111      Y:    -0.0325      Z:    -0.0000     Total:     0.5121

*** Psi4 exiting successfully. Buy a developer a beer!
