                               Psi4 1.3.2 release

  ==> Input File <==

--------------------------------------------------------------------------
#psi4
#
memory 32 gb

molecule  {
0 1
  C        0.8906310    -0.4594820    -0.0000050
  C        1.6569550     0.1328190    -1.1912600
  C        1.6569550     0.1327950     1.1912610
  C        3.1340990     0.0195060    -0.7766230
  C        3.1340970     0.0194780     0.7766250
  C       -0.5896630    -0.1857376    -0.0000017
  C       -1.4969670    -1.2829160    -0.0000100
  C       -1.1118120     1.0929450     0.0000090
  C       -2.8761960    -1.0641450    -0.0000080
  C       -2.4886110     1.3169940     0.0000100
  C       -3.3769130     0.2384400     0.0000020
  H        1.0572190    -1.5476170    -0.0000160
  H        1.3709970     1.1847810    -1.3110530
  H        1.4307960    -0.3756260    -2.1343410
  H        1.4307900    -0.3756630     2.1343350
  H        1.3710040     1.1847570     1.3110690
  H        3.7365840     0.8333760    -1.1915700
  H        3.5617080    -0.9139040    -1.1569620
  H        3.5616920    -0.9139530     1.1569300
  H        3.7365940     0.8333230     1.1916040
  H       -1.1121130    -2.3017550    -0.0000190
  H       -0.4349580     1.9454780     0.0000160
  H       -3.5585010    -1.9112830    -0.0000130
  H       -2.8698420     2.3358160     0.0000180
  H       -4.4501080     0.4133470     0.0000030
units angstrom
no_reorient  #important for SAPT in psi4, default
symmetry c1  #important for SAPT in psi4, default
}

set PROPERTIES_ORIGIN ["COM"]
properties('MP2/aug-cc-pvtz', properties = ['dipole'])
--------------------------------------------------------------------------

    Molecular point group: c1
  Charge       = 0
  Multiplicity = 1
  Basis Set: AUG-CC-PVTZ
    Blend: AUG-CC-PVTZ
  Basis Set: (AUG-CC-PVTZ AUX)
    Blend: AUG-CC-PVTZ-JKFIT

    Orbital Energies [Eh]
    ---------------------

    Doubly Occupied:

       1A    -11.237198     2A    -11.233811     3A    -11.233095
       4A    -11.231039     5A    -11.229491     6A    -11.227501
       7A    -11.226721     8A    -11.216849     9A    -11.216641
      10A    -11.216240    11A    -11.215927    12A     -1.155899
      13A     -1.119173    14A     -1.027401    15A     -1.008520
      16A     -0.961133    17A     -0.944098    18A     -0.830244
      19A     -0.819047    20A     -0.772925    21A     -0.761059
      22A     -0.695997    23A     -0.654968    24A     -0.644949
      25A     -0.620568    26A     -0.608312    27A     -0.581841
      28A     -0.573033    29A     -0.562917    30A     -0.525019
      31A     -0.512454    32A     -0.493096    33A     -0.479081
      34A     -0.472114    35A     -0.467150    36A     -0.461074
      37A     -0.453065    38A     -0.450415    39A     -0.332960
      40A     -0.319333

  @DF-RHF Final Energy:  -424.84542744063805

   => Energetics <=

    Nuclear Repulsion Energy =            580.8250857058528709
    One-Electron Energy =               -1725.7563081364903610
    Two-Electron Energy =                 720.0857949899993855
    Total Energy =                       -424.8454274406381046
  Basis Set: (AUG-CC-PVTZ AUX)
    Blend: AUG-CC-PVTZ-RI
    Molecular point group: c1

    Geometry (in Angstrom), charge = 0, multiplicity = 1:

       Center              X                  Y                   Z               Mass
    ------------   -----------------  -----------------  -----------------  -----------------
         C            0.950230994445    -0.458951534951    -0.000004949407    12.000000000000
         C            1.716554994445     0.133349465049    -1.191259949407    12.000000000000
         C            1.716554994445     0.133325465049     1.191261050593    12.000000000000
         C            3.193698994445     0.020036465049    -0.776622949407    12.000000000000
         C            3.193696994445     0.020008465049     0.776625050593    12.000000000000
         C           -0.530063005555    -0.185207134951    -0.000001649407    12.000000000000
         C           -1.437367005555    -1.282385534951    -0.000009949407    12.000000000000
         C           -1.052212005555     1.093475465049     0.000009050593    12.000000000000
         C           -2.816596005555    -1.063614534951    -0.000007949407    12.000000000000
         C           -2.429011005555     1.317524465049     0.000010050593    12.000000000000
         C           -3.317313005555     0.238970465049     0.000002050593    12.000000000000
         H            1.116818994445    -1.547086534951    -0.000015949407     1.007825032230
         H            1.430596994445     1.185311465049    -1.311052949407     1.007825032230
         H            1.490395994445    -0.375095534951    -2.134340949407     1.007825032230
         H            1.490389994445    -0.375132534951     2.134335050593     1.007825032230
         H            1.430603994445     1.185287465049     1.311069050593     1.007825032230
         H            3.796183994445     0.833906465049    -1.191569949407     1.007825032230
         H            3.621307994445    -0.913373534951    -1.156961949407     1.007825032230
         H            3.621291994445    -0.913422534951     1.156930050593     1.007825032230
         H            3.796193994445     0.833853465049     1.191604050593     1.007825032230
         H           -1.052513005555    -2.301224534951    -0.000018949407     1.007825032230
         H           -0.375358005555     1.946008465049     0.000016050593     1.007825032230
         H           -3.498901005555    -1.910752534951    -0.000012949407     1.007825032230
         H           -2.810242005555     2.336346465049     0.000018050593     1.007825032230
         H           -4.390508005555     0.413877465049     0.000003050593     1.007825032230

  Basis Set: AUG-CC-PVTZ
    Blend: AUG-CC-PVTZ
  Basis Set: (AUG-CC-PVTZ AUX)
    Blend: AUG-CC-PVTZ-JKFIT
	 Reference Energy          =    -424.8454274406380478 [Eh]
	 Singles Energy            =      -0.0000000000000000 [Eh]
	 Same-Spin Energy          =      -0.4752839214069616 [Eh]
	 Opposite-Spin Energy      =      -1.5700089912248578 [Eh]
	 Correlation Energy        =      -2.0452929126318193 [Eh]
	 Total Energy              =    -426.8907203532698418 [Eh]

	 ================> DF-SCS-MP2 Energies <==================
	-----------------------------------------------------------
	 SCS Same-Spin Scale       =       0.3333333333333333 [-]
	 SCS Opposite-Spin Scale   =       1.2000000000000000 [-]
	 SCS Same-Spin Energy      =      -0.1584279738023205 [Eh]
	 SCS Opposite-Spin Energy  =      -1.8840107894698293 [Eh]
	 SCS Correlation Energy    =      -2.0424387632721497 [Eh]
	 SCS Total Energy          =    -426.8878662039102210 [Eh]
	-----------------------------------------------------------

  Dipole Moment: [D]
     X:     0.4743      Y:    -0.0441      Z:    -0.0000     Total:     0.4764

*** Psi4 exiting successfully. Buy a developer a beer!
