                               Psi4 1.3.2 release

  ==> Input File <==

--------------------------------------------------------------------------
#psi4
#
memory 32 gb

molecule  {
0 1
  C        0.8906310    -0.4594820    -0.0000050
  C        1.6569550     0.1328190    -1.1912600
  C        1.6569550     0.1327950     1.1912610
  C        3.1340990     0.0195060    -0.7766230
  C        3.1340970     0.0194780     0.7766250
  C       -0.7914853    -0.1786833    -0.0000016
  C       -1.4969670    -1.2829160    -0.0000100
  C       -1.1118120     1.0929450     0.0000090
  C       -2.8761960    -1.0641450    -0.0000080
  C       -2.4886110     1.3169940     0.0000100
  C       -3.3769130     0.2384400     0.0000020
  H        1.0572190    -1.5476170    -0.0000160
  H        1.3709970     1.1847810    -1.3110530
  H        1.4307960    -0.3756260    -2.1343410
  H        1.4307900    -0.3756630     2.1343350
  H        1.3710040     1.1847570     1.3110690
  H        3.7365840     0.8333760    -1.1915700
  H        3.5617080    -0.9139040    -1.1569620
  H        3.5616920    -0.9139530     1.1569300
  H        3.7365940     0.8333230     1.1916040
  H       -1.1121130    -2.3017550    -0.0000190
  H       -0.4349580     1.9454780     0.0000160
  H       -3.5585010    -1.9112830    -0.0000130
  H       -2.8698420     2.3358160     0.0000180
  H       -4.4501080     0.4133470     0.0000030
units angstrom
no_reorient  #important for SAPT in psi4, default
symmetry c1  #important for SAPT in psi4, default
}

set PROPERTIES_ORIGIN ["COM"]
properties('MP2/aug-cc-pvtz', properties = ['dipole'])
--------------------------------------------------------------------------

    Molecular point group: c1
  Charge       = 0
  Multiplicity = 1
  Basis Set: AUG-CC-PVTZ
    Blend: AUG-CC-PVTZ
  Basis Set: (AUG-CC-PVTZ AUX)
    Blend: AUG-CC-PVTZ-JKFIT

    Orbital Energies [Eh]
    ---------------------

    Doubly Occupied:

       1A    -11.235328     2A    -11.234738     3A    -11.229098
       4A    -11.228212     5A    -11.226997     6A    -11.221041
       7A    -11.220592     8A    -11.214098     9A    -11.213575
      10A    -11.212297    11A    -11.212294    12A     -1.171679
      13A     -1.114861    14A     -1.023674    15A     -1.021349
      16A     -0.956732    17A     -0.940689    18A     -0.836969
      19A     -0.811683    20A     -0.768269    21A     -0.760069
      22A     -0.701521    23A     -0.649599    24A     -0.634794
      25A     -0.630936    26A     -0.609978    27A     -0.594470
      28A     -0.568580    29A     -0.557484    30A     -0.526289
      31A     -0.522011    32A     -0.508493    33A     -0.475315
      34A     -0.467290    35A     -0.457448    36A     -0.456053
      37A     -0.449831    38A     -0.406999    39A     -0.337660
      40A     -0.335888

  @DF-RHF Final Energy:  -424.80656492603782

   => Energetics <=

    Nuclear Repulsion Energy =            581.1846656549183763
    One-Electron Energy =               -1726.4926943485941138
    Two-Electron Energy =                 720.5014637676378015
    Total Energy =                       -424.8065649260378223
  Basis Set: (AUG-CC-PVTZ AUX)
    Blend: AUG-CC-PVTZ-RI
    Molecular point group: c1

    Geometry (in Angstrom), charge = 0, multiplicity = 1:

       Center              X                  Y                   Z               Mass
    ------------   -----------------  -----------------  -----------------  -----------------
         C            0.966806691191    -0.459530905702    -0.000004957620    12.000000000000
         C            1.733130691191     0.132770094298    -1.191259957620    12.000000000000
         C            1.733130691191     0.132746094298     1.191261042380    12.000000000000
         C            3.210274691191     0.019457094298    -0.776622957620    12.000000000000
         C            3.210272691191     0.019429094298     0.776625042380    12.000000000000
         C           -0.715309608809    -0.178732205702    -0.000001557620    12.000000000000
         C           -1.420791308809    -1.282964905702    -0.000009957620    12.000000000000
         C           -1.035636308809     1.092896094298     0.000009042380    12.000000000000
         C           -2.800020308809    -1.064193905702    -0.000007957620    12.000000000000
         C           -2.412435308809     1.316945094298     0.000010042380    12.000000000000
         C           -3.300737308809     0.238391094298     0.000002042380    12.000000000000
         H            1.133394691191    -1.547665905702    -0.000015957620     1.007825032230
         H            1.447172691191     1.184732094298    -1.311052957620     1.007825032230
         H            1.506971691191    -0.375674905702    -2.134340957620     1.007825032230
         H            1.506965691191    -0.375711905702     2.134335042380     1.007825032230
         H            1.447179691191     1.184708094298     1.311069042380     1.007825032230
         H            3.812759691191     0.833327094298    -1.191569957620     1.007825032230
         H            3.637883691191    -0.913952905702    -1.156961957620     1.007825032230
         H            3.637867691191    -0.914001905702     1.156930042380     1.007825032230
         H            3.812769691191     0.833274094298     1.191604042380     1.007825032230
         H           -1.035937308809    -2.301803905702    -0.000018957620     1.007825032230
         H           -0.358782308809     1.945429094298     0.000016042380     1.007825032230
         H           -3.482325308809    -1.911331905702    -0.000012957620     1.007825032230
         H           -2.793666308809     2.335767094298     0.000018042380     1.007825032230
         H           -4.373932308809     0.413298094298     0.000003042380     1.007825032230

  Basis Set: AUG-CC-PVTZ
    Blend: AUG-CC-PVTZ
  Basis Set: (AUG-CC-PVTZ AUX)
    Blend: AUG-CC-PVTZ-JKFIT
	 Reference Energy          =    -424.8065649260378223 [Eh]
	 Singles Energy            =      -0.0000000000000000 [Eh]
	 Same-Spin Energy          =      -0.4754418362409401 [Eh]
	 Opposite-Spin Energy      =      -1.5702071807835520 [Eh]
	 Correlation Energy        =      -2.0456490170244921 [Eh]
	 Total Energy              =    -426.8522139430623383 [Eh]

	 ================> DF-SCS-MP2 Energies <==================
	-----------------------------------------------------------
	 SCS Same-Spin Scale       =       0.3333333333333333 [-]
	 SCS Opposite-Spin Scale   =       1.2000000000000000 [-]
	 SCS Same-Spin Energy      =      -0.1584806120803133 [Eh]
	 SCS Opposite-Spin Energy  =      -1.8842486169402624 [Eh]
	 SCS Correlation Energy    =      -2.0427292290205759 [Eh]
	 SCS Total Energy          =    -426.8492941550583737 [Eh]
	-----------------------------------------------------------

  Dipole Moment: [D]
     X:     0.1355      Y:    -0.0465      Z:    -0.0000     Total:     0.1432

*** Psi4 exiting successfully. Buy a developer a beer!
