                               Psi4 1.4a3.dev225

  ==> Input File <==

--------------------------------------------------------------------------
#psi4
#
memory 32 gb

molecule  {
0 1
  C        0.8906310    -0.4594820    -0.0000050
  C        1.6569550     0.1328190    -1.1912600
  C        1.6569550     0.1327950     1.1912610
  C        3.1340990     0.0195060    -0.7766230
  C        3.1340970     0.0194780     0.7766250
  C       -0.6435326    -0.2033813    -0.0000019
  C       -1.4969670    -1.2829160    -0.0000100
  C       -1.1118120     1.0929450     0.0000090
  C       -2.8761960    -1.0641450    -0.0000080
  C       -2.4886110     1.3169940     0.0000100
  C       -3.3769130     0.2384400     0.0000020
  H        1.0572190    -1.5476170    -0.0000160
  H        1.3709970     1.1847810    -1.3110530
  H        1.4307960    -0.3756260    -2.1343410
  H        1.4307900    -0.3756630     2.1343350
  H        1.3710040     1.1847570     1.3110690
  H        3.7365840     0.8333760    -1.1915700
  H        3.5617080    -0.9139040    -1.1569620
  H        3.5616920    -0.9139530     1.1569300
  H        3.7365940     0.8333230     1.1916040
  H       -1.1121130    -2.3017550    -0.0000190
  H       -0.4349580     1.9454780     0.0000160
  H       -3.5585010    -1.9112830    -0.0000130
  H       -2.8698420     2.3358160     0.0000180
  H       -4.4501080     0.4133470     0.0000030
units angstrom
no_reorient  #important for SAPT in psi4, default
symmetry c1  #important for SAPT in psi4, default
}

set PROPERTIES_ORIGIN ["COM"]
properties('MP2/aug-cc-pvtz', properties = ['dipole'])
--------------------------------------------------------------------------

    Molecular point group: c1
  Charge       = 0
  Multiplicity = 1
  Basis Set: AUG-CC-PVTZ
    Blend: AUG-CC-PVTZ
  Basis Set: (AUG-CC-PVTZ AUX)
    Blend: AUG-CC-PVTZ-JKFIT

    Orbital Energies [Eh]
    ---------------------

    Doubly Occupied:

       1A    -11.233930     2A    -11.233816     3A    -11.233357
       4A    -11.229276     5A    -11.228645     6A    -11.226711
       7A    -11.226402     8A    -11.216209     9A    -11.215821
      10A    -11.215354    11A    -11.215218    12A     -1.158080
      13A     -1.118479    14A     -1.025122    15A     -1.011730
      16A     -0.960008    17A     -0.943670    18A     -0.831319
      19A     -0.816633    20A     -0.771693    21A     -0.761867
      22A     -0.696889    23A     -0.653469    24A     -0.640536
      25A     -0.621742    26A     -0.610346    27A     -0.585701
      28A     -0.571894    29A     -0.561200    30A     -0.525397
      31A     -0.513503    32A     -0.497097    33A     -0.478183
      34A     -0.470054    35A     -0.460419    36A     -0.459006
      37A     -0.452293    38A     -0.449296    39A     -0.333595
      40A     -0.324441

  @DF-RHF Final Energy:  -424.84468124562375

   => Energetics <=

    Nuclear Repulsion Energy =            580.8148887165931455
    One-Electron Energy =               -1725.7623385539452556
    Two-Electron Energy =                 720.1027685917282497
    Total Energy =                       -424.8446812456237467
  Basis Set: (AUG-CC-PVTZ AUX)
    Blend: AUG-CC-PVTZ-RI
    Molecular point group: c1

    Geometry (in Angstrom), charge = 0, multiplicity = 1:

       Center              X                  Y                   Z               Mass
    ------------   -----------------  -----------------  -----------------  -----------------
         C            0.954655313033    -0.457502455138    -0.000004932981    12.000000000000
         C            1.720979313033     0.134798544862    -1.191259932981    12.000000000000
         C            1.720979313033     0.134774544862     1.191261067019    12.000000000000
         C            3.198123313033     0.021485544862    -0.776622932981    12.000000000000
         C            3.198121313033     0.021457544862     0.776625067019    12.000000000000
         C           -0.579508286967    -0.201401755138    -0.000001832981    12.000000000000
         C           -1.432942686967    -1.280936455138    -0.000009932981    12.000000000000
         C           -1.047787686967     1.094924544862     0.000009067019    12.000000000000
         C           -2.812171686967    -1.062165455138    -0.000007932981    12.000000000000
         C           -2.424586686967     1.318973544862     0.000010067019    12.000000000000
         C           -3.312888686967     0.240419544862     0.000002067019    12.000000000000
         H            1.121243313033    -1.545637455138    -0.000015932981     1.007825032230
         H            1.435021313033     1.186760544862    -1.311052932981     1.007825032230
         H            1.494820313033    -0.373646455138    -2.134340932981     1.007825032230
         H            1.494814313033    -0.373683455138     2.134335067019     1.007825032230
         H            1.435028313033     1.186736544862     1.311069067019     1.007825032230
         H            3.800608313033     0.835355544862    -1.191569932981     1.007825032230
         H            3.625732313033    -0.911924455138    -1.156961932981     1.007825032230
         H            3.625716313033    -0.911973455138     1.156930067019     1.007825032230
         H            3.800618313033     0.835302544862     1.191604067019     1.007825032230
         H           -1.048088686967    -2.299775455138    -0.000018932981     1.007825032230
         H           -0.370933686967     1.947457544862     0.000016067019     1.007825032230
         H           -3.494476686967    -1.909303455138    -0.000012932981     1.007825032230
         H           -2.805817686967     2.337795544862     0.000018067019     1.007825032230
         H           -4.386083686967     0.415326544862     0.000003067019     1.007825032230

  Basis Set: AUG-CC-PVTZ
    Blend: AUG-CC-PVTZ
  Basis Set: (AUG-CC-PVTZ AUX)
    Blend: AUG-CC-PVTZ-JKFIT
	 Reference Energy          =    -424.8446812456237467 [Eh]
	 Singles Energy            =      -0.0000000000000000 [Eh]
	 Same-Spin Energy          =      -0.4748633447867014 [Eh]
	 Opposite-Spin Energy      =      -1.5692416134999636 [Eh]
	 Correlation Energy        =      -2.0441049582866651 [Eh]
	 Total Energy              =    -426.8887862039103993 [Eh]

	 ================> DF-SCS-MP2 Energies <==================
	-----------------------------------------------------------
	 SCS Same-Spin Scale       =       0.3333333333333333 [-]
	 SCS Opposite-Spin Scale   =       1.2000000000000000 [-]
	 SCS Same-Spin Energy      =      -0.1582877815955671 [Eh]
	 SCS Opposite-Spin Energy  =      -1.8830899361999562 [Eh]
	 SCS Correlation Energy    =      -2.0413777177955232 [Eh]
	 SCS Total Energy          =    -426.8860589634192593 [Eh]
	-----------------------------------------------------------

  Dipole Moment: [D]
     X:     0.3855      Y:    -0.0386      Z:    -0.0000     Total:     0.3875

*** Psi4 exiting successfully. Buy a developer a beer!
