                               Psi4 1.3.2 release

  ==> Input File <==

--------------------------------------------------------------------------
#psi4
#
memory 32 gb

molecule  {
0 1
  C        0.8906310    -0.4594820    -0.0000050
  C        1.6569550     0.1328190    -1.1912600
  C        1.7068685     0.1713722     1.2688525
  C        3.1340990     0.0195060    -0.7766230
  C        3.1340970     0.0194780     0.7766250
  C       -0.5942150    -0.2116140    -0.0000020
  C       -1.4969670    -1.2829160    -0.0000100
  C       -1.1118120     1.0929450     0.0000090
  C       -2.8761960    -1.0641450    -0.0000080
  C       -2.4886110     1.3169940     0.0000100
  C       -3.3769130     0.2384400     0.0000020
  H        1.0572190    -1.5476170    -0.0000160
  H        1.3709970     1.1847810    -1.3110530
  H        1.4307960    -0.3756260    -2.1343410
  H        1.4307900    -0.3756630     2.1343350
  H        1.3710040     1.1847570     1.3110690
  H        3.7365840     0.8333760    -1.1915700
  H        3.5617080    -0.9139040    -1.1569620
  H        3.5616920    -0.9139530     1.1569300
  H        3.7365940     0.8333230     1.1916040
  H       -1.1121130    -2.3017550    -0.0000190
  H       -0.4349580     1.9454780     0.0000160
  H       -3.5585010    -1.9112830    -0.0000130
  H       -2.8698420     2.3358160     0.0000180
  H       -4.4501080     0.4133470     0.0000030
units angstrom
no_reorient  #important for SAPT in psi4, default
symmetry c1  #important for SAPT in psi4, default
}

set PROPERTIES_ORIGIN ["COM"]
properties('MP2/aug-cc-pvtz', properties = ['dipole'])
--------------------------------------------------------------------------

    Molecular point group: c1
  Charge       = 0
  Multiplicity = 1
  Basis Set: AUG-CC-PVTZ
    Blend: AUG-CC-PVTZ
  Basis Set: (AUG-CC-PVTZ AUX)
    Blend: AUG-CC-PVTZ-JKFIT

    Orbital Energies [Eh]
    ---------------------

    Doubly Occupied:

       1A    -11.236722     2A    -11.233414     3A    -11.232869
       4A    -11.230521     5A    -11.229133     6A    -11.228688
       7A    -11.228296     8A    -11.217659     9A    -11.216631
      10A    -11.216471    11A    -11.215792    12A     -1.152922
      13A     -1.113872    14A     -1.026794    15A     -1.008381
      16A     -0.965850    17A     -0.938213    18A     -0.832313
      19A     -0.816842    20A     -0.774602    21A     -0.761854
      22A     -0.693876    23A     -0.655296    24A     -0.642385
      25A     -0.620776    26A     -0.608508    27A     -0.581276
      28A     -0.578702    29A     -0.561359    30A     -0.524517
      31A     -0.510109    32A     -0.494164    33A     -0.488224
      34A     -0.473428    35A     -0.470726    36A     -0.460012
      37A     -0.453818    38A     -0.434389    39A     -0.332344
      40A     -0.317254

  @DF-RHF Final Energy:  -424.83889483777330

   => Energetics <=

    Nuclear Repulsion Energy =            579.2251429720034821
    One-Electron Energy =               -1722.5700710393032296
    Two-Electron Energy =                 718.5060332295265653
    Total Energy =                       -424.8388948377732959
  Basis Set: (AUG-CC-PVTZ AUX)
    Blend: AUG-CC-PVTZ-RI
    Molecular point group: c1

    Geometry (in Angstrom), charge = 0, multiplicity = 1:

       Center              X                  Y                   Z               Mass
    ------------   -----------------  -----------------  -----------------  -----------------
         C            0.946505447427    -0.459994653621    -0.006377526676    12.000000000000
         C            1.712829447427     0.132306346379    -1.197632526676    12.000000000000
         C            1.762742947427     0.170859546379     1.262479973324    12.000000000000
         C            3.189973447427     0.018993346379    -0.782995526676    12.000000000000
         C            3.189971447427     0.018965346379     0.770252473324    12.000000000000
         C           -0.538340552573    -0.212126653621    -0.006374526676    12.000000000000
         C           -1.441092552573    -1.283428653621    -0.006382526676    12.000000000000
         C           -1.055937552573     1.092432346379    -0.006363526676    12.000000000000
         C           -2.820321552573    -1.064657653621    -0.006380526676    12.000000000000
         C           -2.432736552573     1.316481346379    -0.006362526676    12.000000000000
         C           -3.321038552573     0.237927346379    -0.006370526676    12.000000000000
         H            1.113093447427    -1.548129653621    -0.006388526676     1.007825032230
         H            1.426871447427     1.184268346379    -1.317425526676     1.007825032230
         H            1.486670447427    -0.376138653621    -2.140713526676     1.007825032230
         H            1.486664447427    -0.376175653621     2.127962473324     1.007825032230
         H            1.426878447427     1.184244346379     1.304696473324     1.007825032230
         H            3.792458447427     0.832863346379    -1.197942526676     1.007825032230
         H            3.617582447427    -0.914416653621    -1.163334526676     1.007825032230
         H            3.617566447427    -0.914465653621     1.150557473324     1.007825032230
         H            3.792468447427     0.832810346379     1.185231473324     1.007825032230
         H           -1.056238552573    -2.302267653621    -0.006391526676     1.007825032230
         H           -0.379083552573     1.944965346379    -0.006356526676     1.007825032230
         H           -3.502626552573    -1.911795653621    -0.006385526676     1.007825032230
         H           -2.813967552573     2.335303346379    -0.006354526676     1.007825032230
         H           -4.394233552573     0.412834346379    -0.006369526676     1.007825032230

  Basis Set: AUG-CC-PVTZ
    Blend: AUG-CC-PVTZ
  Basis Set: (AUG-CC-PVTZ AUX)
    Blend: AUG-CC-PVTZ-JKFIT
	 Reference Energy          =    -424.8388948377732959 [Eh]
	 Singles Energy            =      -0.0000000000000000 [Eh]
	 Same-Spin Energy          =      -0.4752263463059918 [Eh]
	 Opposite-Spin Energy      =      -1.5703203302970494 [Eh]
	 Correlation Energy        =      -2.0455466766030410 [Eh]
	 Total Energy              =    -426.8844415143763626 [Eh]

	 ================> DF-SCS-MP2 Energies <==================
	-----------------------------------------------------------
	 SCS Same-Spin Scale       =       0.3333333333333333 [-]
	 SCS Opposite-Spin Scale   =       1.2000000000000000 [-]
	 SCS Same-Spin Energy      =      -0.1584087821019973 [Eh]
	 SCS Opposite-Spin Energy  =      -1.8843843963564593 [Eh]
	 SCS Correlation Energy    =      -2.0427931784584565 [Eh]
	 SCS Total Energy          =    -426.8816880162317489 [Eh]
	-----------------------------------------------------------

  Dipole Moment: [D]
     X:     0.4909      Y:    -0.0487      Z:    -0.0042     Total:     0.4933

*** Psi4 exiting successfully. Buy a developer a beer!
