                               Psi4 1.3.2 release

  ==> Input File <==

--------------------------------------------------------------------------
#psi4
#
memory 32 gb

molecule  {
0 1
  C        0.8906310    -0.4594820    -0.0000050
  C        1.5542337     0.0534270    -1.2859744
  C        1.6569550     0.1327950     1.1912610
  C        3.1340990     0.0195060    -0.7766230
  C        3.1340970     0.0194780     0.7766250
  C       -0.5942150    -0.2116140    -0.0000020
  C       -1.4969670    -1.2829160    -0.0000100
  C       -1.1118120     1.0929450     0.0000090
  C       -2.8761960    -1.0641450    -0.0000080
  C       -2.4886110     1.3169940     0.0000100
  C       -3.3769130     0.2384400     0.0000020
  H        1.0572190    -1.5476170    -0.0000160
  H        1.3709970     1.1847810    -1.3110530
  H        1.4307960    -0.3756260    -2.1343410
  H        1.4307900    -0.3756630     2.1343350
  H        1.3710040     1.1847570     1.3110690
  H        3.7365840     0.8333760    -1.1915700
  H        3.5617080    -0.9139040    -1.1569620
  H        3.5616920    -0.9139530     1.1569300
  H        3.7365940     0.8333230     1.1916040
  H       -1.1121130    -2.3017550    -0.0000190
  H       -0.4349580     1.9454780     0.0000160
  H       -3.5585010    -1.9112830    -0.0000130
  H       -2.8698420     2.3358160     0.0000180
  H       -4.4501080     0.4133470     0.0000030
units angstrom
no_reorient  #important for SAPT in psi4, default
symmetry c1  #important for SAPT in psi4, default
}

set PROPERTIES_ORIGIN ["COM"]
properties('MP2/aug-cc-pvtz', properties = ['dipole'])
--------------------------------------------------------------------------

    Molecular point group: c1
  Charge       = 0
  Multiplicity = 1
  Basis Set: AUG-CC-PVTZ
    Blend: AUG-CC-PVTZ
  Basis Set: (AUG-CC-PVTZ AUX)
    Blend: AUG-CC-PVTZ-JKFIT

    Orbital Energies [Eh]
    ---------------------

    Doubly Occupied:

       1A    -11.235766     2A    -11.232875     3A    -11.232296
       4A    -11.230056     5A    -11.228481     6A    -11.227957
       7A    -11.227572     8A    -11.221249     9A    -11.219367
      10A    -11.217971    11A    -11.216984    12A     -1.154058
      13A     -1.111800    14A     -1.024667    15A     -1.007815
      16A     -0.962489    17A     -0.941824    18A     -0.831861
      19A     -0.817399    20A     -0.779346    21A     -0.763179
      22A     -0.693744    23A     -0.666207    24A     -0.642299
      25A     -0.618018    26A     -0.606206    27A     -0.580760
      28A     -0.571319    29A     -0.561311    30A     -0.528361
      31A     -0.519410    32A     -0.496481    33A     -0.489044
      34A     -0.472667    35A     -0.465729    36A     -0.458697
      37A     -0.445742    38A     -0.429042    39A     -0.331753
      40A     -0.318226

  @DF-RHF Final Energy:  -424.81729434263690

   => Energetics <=

    Nuclear Repulsion Energy =            579.7203674080993778
    One-Electron Energy =               -1723.5152638807473977
    Two-Electron Energy =                 718.9776021300109505
    Total Energy =                       -424.8172943426369557
  Basis Set: (AUG-CC-PVTZ AUX)
    Blend: AUG-CC-PVTZ-RI
    Molecular point group: c1

    Geometry (in Angstrom), charge = 0, multiplicity = 1:

       Center              X                  Y                   Z               Mass
    ------------   -----------------  -----------------  -----------------  -----------------
         C            0.959041367182    -0.450305824961     0.007773983569    12.000000000000
         C            1.622644067182     0.062603175039    -1.278195416431    12.000000000000
         C            1.725365367182     0.141971175039     1.199039983569    12.000000000000
         C            3.202509367182     0.028682175039    -0.768844016431    12.000000000000
         C            3.202507367182     0.028654175039     0.784403983569    12.000000000000
         C           -0.525804632818    -0.202437824961     0.007776983569    12.000000000000
         C           -1.428556632818    -1.273739824961     0.007768983569    12.000000000000
         C           -1.043401632818     1.102121175039     0.007787983569    12.000000000000
         C           -2.807785632818    -1.054968824961     0.007770983569    12.000000000000
         C           -2.420200632818     1.326170175039     0.007788983569    12.000000000000
         C           -3.308502632818     0.247616175039     0.007780983569    12.000000000000
         H            1.125629367182    -1.538440824961     0.007762983569     1.007825032230
         H            1.439407367182     1.193957175039    -1.303274016431     1.007825032230
         H            1.499206367182    -0.366449824961    -2.126562016431     1.007825032230
         H            1.499200367182    -0.366486824961     2.142113983569     1.007825032230
         H            1.439414367182     1.193933175039     1.318847983569     1.007825032230
         H            3.804994367182     0.842552175039    -1.183791016431     1.007825032230
         H            3.630118367182    -0.904727824961    -1.149183016431     1.007825032230
         H            3.630102367182    -0.904776824961     1.164708983569     1.007825032230
         H            3.805004367182     0.842499175039     1.199382983569     1.007825032230
         H           -1.043702632818    -2.292578824961     0.007759983569     1.007825032230
         H           -0.366547632818     1.954654175039     0.007794983569     1.007825032230
         H           -3.490090632818    -1.902106824961     0.007765983569     1.007825032230
         H           -2.801431632818     2.344992175039     0.007796983569     1.007825032230
         H           -4.381697632818     0.422523175039     0.007781983569     1.007825032230

  Basis Set: AUG-CC-PVTZ
    Blend: AUG-CC-PVTZ
  Basis Set: (AUG-CC-PVTZ AUX)
    Blend: AUG-CC-PVTZ-JKFIT
	 Reference Energy          =    -424.8172943426368988 [Eh]
	 Singles Energy            =      -0.0000000000000000 [Eh]
	 Same-Spin Energy          =      -0.4753279497494896 [Eh]
	 Opposite-Spin Energy      =      -1.5713401514224090 [Eh]
	 Correlation Energy        =      -2.0466681011718988 [Eh]
	 Total Energy              =    -426.8639624438088163 [Eh]

	 ================> DF-SCS-MP2 Energies <==================
	-----------------------------------------------------------
	 SCS Same-Spin Scale       =       0.3333333333333333 [-]
	 SCS Opposite-Spin Scale   =       1.2000000000000000 [-]
	 SCS Same-Spin Energy      =      -0.1584426499164965 [Eh]
	 SCS Opposite-Spin Energy  =      -1.8856081817068908 [Eh]
	 SCS Correlation Energy    =      -2.0440508316233874 [Eh]
	 SCS Total Energy          =    -426.8613451742602933 [Eh]
	-----------------------------------------------------------

  Dipole Moment: [D]
     X:     0.5340      Y:    -0.0872      Z:     0.0147     Total:     0.5413

*** Psi4 exiting successfully. Buy a developer a beer!
