                               Psi4 1.3.2 release

  ==> Input File <==

--------------------------------------------------------------------------
#psi4
#
memory 32 gb

molecule  {
0 1
  C        0.8906310    -0.4594820    -0.0000050
  C        1.7208372     0.1821926    -1.1207961
  C        1.6569550     0.1327950     1.1912610
  C        3.1340990     0.0195060    -0.7766230
  C        3.1340970     0.0194780     0.7766250
  C       -0.5942150    -0.2116140    -0.0000020
  C       -1.4969670    -1.2829160    -0.0000100
  C       -1.1118120     1.0929450     0.0000090
  C       -2.8761960    -1.0641450    -0.0000080
  C       -2.4886110     1.3169940     0.0000100
  C       -3.3769130     0.2384400     0.0000020
  H        1.0572190    -1.5476170    -0.0000160
  H        1.3709970     1.1847810    -1.3110530
  H        1.4307960    -0.3756260    -2.1343410
  H        1.4307900    -0.3756630     2.1343350
  H        1.3710040     1.1847570     1.3110690
  H        3.7365840     0.8333760    -1.1915700
  H        3.5617080    -0.9139040    -1.1569620
  H        3.5616920    -0.9139530     1.1569300
  H        3.7365940     0.8333230     1.1916040
  H       -1.1121130    -2.3017550    -0.0000190
  H       -0.4349580     1.9454780     0.0000160
  H       -3.5585010    -1.9112830    -0.0000130
  H       -2.8698420     2.3358160     0.0000180
  H       -4.4501080     0.4133470     0.0000030
units angstrom
no_reorient  #important for SAPT in psi4, default
symmetry c1  #important for SAPT in psi4, default
}

set PROPERTIES_ORIGIN ["COM"]
properties('MP2/aug-cc-pvtz', properties = ['dipole'])
--------------------------------------------------------------------------

    Molecular point group: c1
  Charge       = 0
  Multiplicity = 1
  Basis Set: AUG-CC-PVTZ
    Blend: AUG-CC-PVTZ
  Basis Set: (AUG-CC-PVTZ AUX)
    Blend: AUG-CC-PVTZ-JKFIT

    Orbital Energies [Eh]
    ---------------------

    Doubly Occupied:

       1A    -11.238595     2A    -11.234286     3A    -11.233822
       4A    -11.230395     5A    -11.230043     6A    -11.229861
       7A    -11.227485     8A    -11.220386     9A    -11.216482
      10A    -11.215764    11A    -11.213861    12A     -1.158081
      13A     -1.126430    14A     -1.030255    15A     -1.009501
      16A     -0.964755    17A     -0.944221    18A     -0.832657
      19A     -0.817431    20A     -0.772053    21A     -0.762165
      22A     -0.697720    23A     -0.650351    24A     -0.648194
      25A     -0.621727    26A     -0.612859    27A     -0.582624
      28A     -0.573737    29A     -0.563102    30A     -0.533664
      31A     -0.511752    32A     -0.494824    33A     -0.483573
      34A     -0.470716    35A     -0.465412    36A     -0.457996
      37A     -0.453563    38A     -0.440431    39A     -0.333227
      40A     -0.320416

  @DF-RHF Final Energy:  -424.83359381189229

   => Energetics <=

    Nuclear Repulsion Energy =            581.5847826929276607
    One-Electron Energy =               -1727.1879252618793998
    Two-Electron Energy =                 720.7695487570592832
    Total Energy =                       -424.8335938118923423
  Basis Set: (AUG-CC-PVTZ AUX)
    Blend: AUG-CC-PVTZ-RI
    Molecular point group: c1

    Geometry (in Angstrom), charge = 0, multiplicity = 1:

       Center              X                  Y                   Z               Mass
    ------------   -----------------  -----------------  -----------------  -----------------
         C            0.945358195933    -0.460881363625    -0.005792135784    12.000000000000
         C            1.775564395933     0.180793236375    -1.126583235784    12.000000000000
         C            1.711682195933     0.131395636375     1.185473864216    12.000000000000
         C            3.188826195933     0.018106636375    -0.782410135784    12.000000000000
         C            3.188824195933     0.018078636375     0.770837864216    12.000000000000
         C           -0.539487804067    -0.213013363625    -0.005789135784    12.000000000000
         C           -1.442239804067    -1.284315363625    -0.005797135784    12.000000000000
         C           -1.057084804067     1.091545636375    -0.005778135784    12.000000000000
         C           -2.821468804067    -1.065544363625    -0.005795135784    12.000000000000
         C           -2.433883804067     1.315594636375    -0.005777135784    12.000000000000
         C           -3.322185804067     0.237040636375    -0.005785135784    12.000000000000
         H            1.111946195933    -1.549016363625    -0.005803135784     1.007825032230
         H            1.425724195933     1.183381636375    -1.316840135784     1.007825032230
         H            1.485523195933    -0.377025363625    -2.140128135784     1.007825032230
         H            1.485517195933    -0.377062363625     2.128547864216     1.007825032230
         H            1.425731195933     1.183357636375     1.305281864216     1.007825032230
         H            3.791311195933     0.831976636375    -1.197357135784     1.007825032230
         H            3.616435195933    -0.915303363625    -1.162749135784     1.007825032230
         H            3.616419195933    -0.915352363625     1.151142864216     1.007825032230
         H            3.791321195933     0.831923636375     1.185816864216     1.007825032230
         H           -1.057385804067    -2.303154363625    -0.005806135784     1.007825032230
         H           -0.380230804067     1.944078636375    -0.005771135784     1.007825032230
         H           -3.503773804067    -1.912682363625    -0.005800135784     1.007825032230
         H           -2.815114804067     2.334416636375    -0.005769135784     1.007825032230
         H           -4.395380804067     0.411947636375    -0.005784135784     1.007825032230

  Basis Set: AUG-CC-PVTZ
    Blend: AUG-CC-PVTZ
  Basis Set: (AUG-CC-PVTZ AUX)
    Blend: AUG-CC-PVTZ-JKFIT
	 Reference Energy          =    -424.8335938118922854 [Eh]
	 Singles Energy            =      -0.0000000000000000 [Eh]
	 Same-Spin Energy          =      -0.4761317051484935 [Eh]
	 Opposite-Spin Energy      =      -1.5709337081988133 [Eh]
	 Correlation Energy        =      -2.0470654133473070 [Eh]
	 Total Energy              =    -426.8806592252395831 [Eh]

	 ================> DF-SCS-MP2 Energies <==================
	-----------------------------------------------------------
	 SCS Same-Spin Scale       =       0.3333333333333333 [-]
	 SCS Opposite-Spin Scale   =       1.2000000000000000 [-]
	 SCS Same-Spin Energy      =      -0.1587105683828312 [Eh]
	 SCS Opposite-Spin Energy  =      -1.8851204498385759 [Eh]
	 SCS Correlation Energy    =      -2.0438310182214070 [Eh]
	 SCS Total Energy          =    -426.8774248301136822 [Eh]
	-----------------------------------------------------------

  Dipole Moment: [D]
     X:     0.4602      Y:     0.0058      Z:     0.0512     Total:     0.4631

*** Psi4 exiting successfully. Buy a developer a beer!
