                               Psi4 1.3.2 release

  ==> Input File <==

--------------------------------------------------------------------------
#psi4
#
memory 32 gb

molecule  {
0 1
  C        0.8906310    -0.4594820    -0.0000050
  C        1.6569550     0.1328190    -1.1912600
  C        1.6569550     0.1327950     1.1912610
  C        3.1340990     0.0195060    -0.7766230
  C        3.1340970     0.0194780     0.7766250
  C       -0.5601716    -0.0577632    -0.0000005
  C       -1.4969670    -1.2829160    -0.0000100
  C       -1.1118120     1.0929450     0.0000090
  C       -2.8761960    -1.0641450    -0.0000080
  C       -2.4886110     1.3169940     0.0000100
  C       -3.3769130     0.2384400     0.0000020
  H        1.0572190    -1.5476170    -0.0000160
  H        1.3709970     1.1847810    -1.3110530
  H        1.4307960    -0.3756260    -2.1343410
  H        1.4307900    -0.3756630     2.1343350
  H        1.3710040     1.1847570     1.3110690
  H        3.7365840     0.8333760    -1.1915700
  H        3.5617080    -0.9139040    -1.1569620
  H        3.5616920    -0.9139530     1.1569300
  H        3.7365940     0.8333230     1.1916040
  H       -1.1121130    -2.3017550    -0.0000190
  H       -0.4349580     1.9454780     0.0000160
  H       -3.5585010    -1.9112830    -0.0000130
  H       -2.8698420     2.3358160     0.0000180
  H       -4.4501080     0.4133470     0.0000030
units angstrom
no_reorient  #important for SAPT in psi4, default
symmetry c1  #important for SAPT in psi4, default
}

set PROPERTIES_ORIGIN ["COM"]
properties('MP2/aug-cc-pvtz', properties = ['dipole'])
--------------------------------------------------------------------------

    Molecular point group: c1
  Charge       = 0
  Multiplicity = 1
  Basis Set: AUG-CC-PVTZ
    Blend: AUG-CC-PVTZ
  Basis Set: (AUG-CC-PVTZ AUX)
    Blend: AUG-CC-PVTZ-JKFIT

    Orbital Energies [Eh]
    ---------------------

    Doubly Occupied:

       1A    -11.239944     2A    -11.234925     3A    -11.234240
       4A    -11.231703     5A    -11.229712     6A    -11.228892
       7A    -11.216380     8A    -11.216143     9A    -11.215748
      10A    -11.215461    11A    -11.213140    12A     -1.158789
      13A     -1.119535    14A     -1.035955    15A     -1.002210
      16A     -0.961254    17A     -0.945232    18A     -0.830548
      19A     -0.820748    20A     -0.773216    21A     -0.755296
      22A     -0.697647    23A     -0.654840    24A     -0.648390
      25A     -0.623226    26A     -0.602831    27A     -0.580859
      28A     -0.572970    29A     -0.565168    30A     -0.524970
      31A     -0.515203    32A     -0.495446    33A     -0.478982
      34A     -0.475213    35A     -0.469776    36A     -0.461122
      37A     -0.453010    38A     -0.429629    39A     -0.346168
      40A     -0.310191

  @DF-RHF Final Energy:  -424.81606774602761

   => Energetics <=

    Nuclear Repulsion Energy =            581.2262117013010538
    One-Electron Energy =               -1726.5151341846155901
    Two-Electron Energy =                 720.4728547372869798
    Total Energy =                       -424.8160677460275565
  Basis Set: (AUG-CC-PVTZ AUX)
    Blend: AUG-CC-PVTZ-RI
    Molecular point group: c1

    Geometry (in Angstrom), charge = 0, multiplicity = 1:

       Center              X                  Y                   Z               Mass
    ------------   -----------------  -----------------  -----------------  -----------------
         C            0.947808861197    -0.469462092236    -0.000005047963    12.000000000000
         C            1.714132861197     0.122838907764    -1.191260047963    12.000000000000
         C            1.714132861197     0.122814907764     1.191260952037    12.000000000000
         C            3.191276861197     0.009525907764    -0.776623047963    12.000000000000
         C            3.191274861197     0.009497907764     0.776624952037    12.000000000000
         C           -0.502993738803    -0.067743292236    -0.000000547963    12.000000000000
         C           -1.439789138803    -1.292896092236    -0.000010047963    12.000000000000
         C           -1.054634138803     1.082964907764     0.000008952037    12.000000000000
         C           -2.819018138803    -1.074125092236    -0.000008047963    12.000000000000
         C           -2.431433138803     1.307013907764     0.000009952037    12.000000000000
         C           -3.319735138803     0.228459907764     0.000001952037    12.000000000000
         H            1.114396861197    -1.557597092236    -0.000016047963     1.007825032230
         H            1.428174861197     1.174800907764    -1.311053047963     1.007825032230
         H            1.487973861197    -0.385606092236    -2.134341047963     1.007825032230
         H            1.487967861197    -0.385643092236     2.134334952037     1.007825032230
         H            1.428181861197     1.174776907764     1.311068952037     1.007825032230
         H            3.793761861197     0.823395907764    -1.191570047963     1.007825032230
         H            3.618885861197    -0.923884092236    -1.156962047963     1.007825032230
         H            3.618869861197    -0.923933092236     1.156929952037     1.007825032230
         H            3.793771861197     0.823342907764     1.191603952037     1.007825032230
         H           -1.054935138803    -2.311735092236    -0.000019047963     1.007825032230
         H           -0.377780138803     1.935497907764     0.000015952037     1.007825032230
         H           -3.501323138803    -1.921263092236    -0.000013047963     1.007825032230
         H           -2.812664138803     2.325835907764     0.000017952037     1.007825032230
         H           -4.392930138803     0.403366907764     0.000002952037     1.007825032230

  Basis Set: AUG-CC-PVTZ
    Blend: AUG-CC-PVTZ
  Basis Set: (AUG-CC-PVTZ AUX)
    Blend: AUG-CC-PVTZ-JKFIT
	 Reference Energy          =    -424.8160677460276133 [Eh]
	 Singles Energy            =      -0.0000000000000000 [Eh]
	 Same-Spin Energy          =      -0.4748663295352479 [Eh]
	 Opposite-Spin Energy      =      -1.5712687404622316 [Eh]
	 Correlation Energy        =      -2.0461350699974794 [Eh]
	 Total Energy              =    -426.8622028160251034 [Eh]

	 ================> DF-SCS-MP2 Energies <==================
	-----------------------------------------------------------
	 SCS Same-Spin Scale       =       0.3333333333333333 [-]
	 SCS Opposite-Spin Scale   =       1.2000000000000000 [-]
	 SCS Same-Spin Energy      =      -0.1582887765117493 [Eh]
	 SCS Opposite-Spin Energy  =      -1.8855224885546780 [Eh]
	 SCS Correlation Energy    =      -2.0438112650664273 [Eh]
	 SCS Total Energy          =    -426.8598790110940513 [Eh]
	-----------------------------------------------------------

  Dipole Moment: [D]
     X:     0.4999      Y:    -0.0869      Z:    -0.0000     Total:     0.5074

*** Psi4 exiting successfully. Buy a developer a beer!
