                               Psi4 1.3.2 release

  ==> Input File <==

--------------------------------------------------------------------------
#psi4
#
memory 32 gb

molecule  {
0 1
  C        0.8906310    -0.4594820    -0.0000050
  C        1.7512803     0.2057216    -1.0834940
  C        1.6569550     0.1327950     1.1912610
  C        3.1340990     0.0195060    -0.7766230
  C        3.1340970     0.0194780     0.7766250
  C       -0.5942150    -0.2116140    -0.0000020
  C       -1.4969670    -1.2829160    -0.0000100
  C       -1.1118120     1.0929450     0.0000090
  C       -2.8761960    -1.0641450    -0.0000080
  C       -2.4886110     1.3169940     0.0000100
  C       -3.3769130     0.2384400     0.0000020
  H        1.0572190    -1.5476170    -0.0000160
  H        1.3709970     1.1847810    -1.3110530
  H        1.4307960    -0.3756260    -2.1343410
  H        1.4307900    -0.3756630     2.1343350
  H        1.3710040     1.1847570     1.3110690
  H        3.7365840     0.8333760    -1.1915700
  H        3.5617080    -0.9139040    -1.1569620
  H        3.5616920    -0.9139530     1.1569300
  H        3.7365940     0.8333230     1.1916040
  H       -1.1121130    -2.3017550    -0.0000190
  H       -0.4349580     1.9454780     0.0000160
  H       -3.5585010    -1.9112830    -0.0000130
  H       -2.8698420     2.3358160     0.0000180
  H       -4.4501080     0.4133470     0.0000030
units angstrom
no_reorient  #important for SAPT in psi4, default
symmetry c1  #important for SAPT in psi4, default
}

set PROPERTIES_ORIGIN ["COM"]
properties('MP2/aug-cc-pvtz', properties = ['dipole'])
--------------------------------------------------------------------------

    Molecular point group: c1
  Charge       = 0
  Multiplicity = 1
  Basis Set: AUG-CC-PVTZ
    Blend: AUG-CC-PVTZ
  Basis Set: (AUG-CC-PVTZ AUX)
    Blend: AUG-CC-PVTZ-JKFIT

    Orbital Energies [Eh]
    ---------------------

    Doubly Occupied:

       1A    -11.239373     2A    -11.234612     3A    -11.234176
       4A    -11.230803     5A    -11.230524     6A    -11.230369
       7A    -11.228000     8A    -11.223476     9A    -11.216697
      10A    -11.215818    11A    -11.212883    12A     -1.159953
      13A     -1.130576    14A     -1.032134    15A     -1.009892
      16A     -0.967502    17A     -0.944002    18A     -0.833229
      19A     -0.817821    20A     -0.772289    21A     -0.762314
      22A     -0.698915    23A     -0.651075    24A     -0.648500
      25A     -0.622859    26A     -0.614785    27A     -0.583434
      28A     -0.574401    29A     -0.563640    30A     -0.539382
      31A     -0.512304    32A     -0.495933    33A     -0.486815
      34A     -0.472037    35A     -0.465114    36A     -0.459682
      37A     -0.452192    38A     -0.424823    39A     -0.333559
      40A     -0.320610

  @DF-RHF Final Energy:  -424.81901762038791

   => Energetics <=

    Nuclear Repulsion Energy =            582.0299059295290363
    One-Electron Energy =               -1728.0048401416920569
    Two-Electron Energy =                 721.1559165917751670
    Total Energy =                       -424.8190176203879673
  Basis Set: (AUG-CC-PVTZ AUX)
    Blend: AUG-CC-PVTZ-RI
    Molecular point group: c1

    Geometry (in Angstrom), charge = 0, multiplicity = 1:

       Center              X                  Y                   Z               Mass
    ------------   -----------------  -----------------  -----------------  -----------------
         C            0.942857899416    -0.462813804038    -0.008855763032    12.000000000000
         C            1.803507199416     0.202389795962    -1.092344763032    12.000000000000
         C            1.709181899416     0.129463195962     1.182410236968    12.000000000000
         C            3.186325899416     0.016174195962    -0.785473763032    12.000000000000
         C            3.186323899416     0.016146195962     0.767774236968    12.000000000000
         C           -0.541988100584    -0.214945804038    -0.008852763032    12.000000000000
         C           -1.444740100584    -1.286247804038    -0.008860763032    12.000000000000
         C           -1.059585100584     1.089613195962    -0.008841763032    12.000000000000
         C           -2.823969100584    -1.067476804038    -0.008858763032    12.000000000000
         C           -2.436384100584     1.313662195962    -0.008840763032    12.000000000000
         C           -3.324686100584     0.235108195962    -0.008848763032    12.000000000000
         H            1.109445899416    -1.550948804038    -0.008866763032     1.007825032230
         H            1.423223899416     1.181449195962    -1.319903763032     1.007825032230
         H            1.483022899416    -0.378957804038    -2.143191763032     1.007825032230
         H            1.483016899416    -0.378994804038     2.125484236968     1.007825032230
         H            1.423230899416     1.181425195962     1.302218236968     1.007825032230
         H            3.788810899416     0.830044195962    -1.200420763032     1.007825032230
         H            3.613934899416    -0.917235804038    -1.165812763032     1.007825032230
         H            3.613918899416    -0.917284804038     1.148079236968     1.007825032230
         H            3.788820899416     0.829991195962     1.182753236968     1.007825032230
         H           -1.059886100584    -2.305086804038    -0.008869763032     1.007825032230
         H           -0.382731100584     1.942146195962    -0.008834763032     1.007825032230
         H           -3.506274100584    -1.914614804038    -0.008863763032     1.007825032230
         H           -2.817615100584     2.332484195962    -0.008832763032     1.007825032230
         H           -4.397881100584     0.410015195962    -0.008847763032     1.007825032230

  Basis Set: AUG-CC-PVTZ
    Blend: AUG-CC-PVTZ
  Basis Set: (AUG-CC-PVTZ AUX)
    Blend: AUG-CC-PVTZ-JKFIT
	 Reference Energy          =    -424.8190176203879105 [Eh]
	 Singles Energy            =      -0.0000000000000000 [Eh]
	 Same-Spin Energy          =      -0.4768426215231347 [Eh]
	 Opposite-Spin Energy      =      -1.5719642394899371 [Eh]
	 Correlation Energy        =      -2.0488068610130719 [Eh]
	 Total Energy              =    -426.8678244814009872 [Eh]

	 ================> DF-SCS-MP2 Energies <==================
	-----------------------------------------------------------
	 SCS Same-Spin Scale       =       0.3333333333333333 [-]
	 SCS Opposite-Spin Scale   =       1.2000000000000000 [-]
	 SCS Same-Spin Energy      =      -0.1589475405077116 [Eh]
	 SCS Opposite-Spin Energy  =      -1.8863570873879245 [Eh]
	 SCS Correlation Energy    =      -2.0453046278956362 [Eh]
	 SCS Total Energy          =    -426.8643222482835426 [Eh]
	-----------------------------------------------------------

  Dipole Moment: [D]
     X:     0.4637      Y:     0.0283      Z:     0.0963     Total:     0.4745

*** Psi4 exiting successfully. Buy a developer a beer!
