                               Psi4 1.3.2 release

  ==> Input File <==

--------------------------------------------------------------------------
#psi4
#
memory 32 gb

molecule  {
0 1
  C        0.8565876    -0.6133328    -0.0000062
  C        1.6569550     0.1328190    -1.1912600
  C        1.6569550     0.1327950     1.1912610
  C        3.1340990     0.0195060    -0.7766230
  C        3.1340970     0.0194780     0.7766250
  C       -0.5942150    -0.2116140    -0.0000020
  C       -1.4969670    -1.2829160    -0.0000100
  C       -1.1118120     1.0929450     0.0000090
  C       -2.8761960    -1.0641450    -0.0000080
  C       -2.4886110     1.3169940     0.0000100
  C       -3.3769130     0.2384400     0.0000020
  H        1.0572190    -1.5476170    -0.0000160
  H        1.3709970     1.1847810    -1.3110530
  H        1.4307960    -0.3756260    -2.1343410
  H        1.4307900    -0.3756630     2.1343350
  H        1.3710040     1.1847570     1.3110690
  H        3.7365840     0.8333760    -1.1915700
  H        3.5617080    -0.9139040    -1.1569620
  H        3.5616920    -0.9139530     1.1569300
  H        3.7365940     0.8333230     1.1916040
  H       -1.1121130    -2.3017550    -0.0000190
  H       -0.4349580     1.9454780     0.0000160
  H       -3.5585010    -1.9112830    -0.0000130
  H       -2.8698420     2.3358160     0.0000180
  H       -4.4501080     0.4133470     0.0000030
units angstrom
no_reorient  #important for SAPT in psi4, default
symmetry c1  #important for SAPT in psi4, default
}

set PROPERTIES_ORIGIN ["COM"]
properties('MP2/aug-cc-pvtz', properties = ['dipole'])
--------------------------------------------------------------------------

    Molecular point group: c1
  Charge       = 0
  Multiplicity = 1
  Basis Set: AUG-CC-PVTZ
    Blend: AUG-CC-PVTZ
  Basis Set: (AUG-CC-PVTZ AUX)
    Blend: AUG-CC-PVTZ-JKFIT

    Orbital Energies [Eh]
    ---------------------

    Doubly Occupied:

       1A    -11.238838     2A    -11.234384     3A    -11.231943
       4A    -11.230561     5A    -11.228251     6A    -11.225814
       7A    -11.224523     8A    -11.220525     9A    -11.220490
      10A    -11.216034    11A    -11.215485    12A     -1.153044
      13A     -1.109729    14A     -1.028281    15A     -1.008234
      16A     -0.954220    17A     -0.942038    18A     -0.837924
      19A     -0.813877    20A     -0.778805    21A     -0.766423
      22A     -0.697287    23A     -0.650420    24A     -0.639010
      25A     -0.623507    26A     -0.608502    27A     -0.584012
      28A     -0.576417    29A     -0.572991    30A     -0.520467
      31A     -0.508227    32A     -0.501555    33A     -0.486699
      34A     -0.473681    35A     -0.467603    36A     -0.453191
      37A     -0.445641    38A     -0.438103    39A     -0.332345
      40A     -0.314080

  @DF-RHF Final Energy:  -424.81645799614091

   => Energetics <=

    Nuclear Repulsion Energy =            579.3407686825022438
    One-Electron Energy =               -1722.7681340069152611
    Two-Electron Energy =                 718.6109073282722193
    Total Energy =                       -424.8164579961409117
  Basis Set: (AUG-CC-PVTZ AUX)
    Blend: AUG-CC-PVTZ-RI
    Molecular point group: c1

    Geometry (in Angstrom), charge = 0, multiplicity = 1:

       Center              X                  Y                   Z               Mass
    ------------   -----------------  -----------------  -----------------  -----------------
         C            0.919357440622    -0.598041312188    -0.000006026211    12.000000000000
         C            1.719724840622     0.148110487812    -1.191259826211    12.000000000000
         C            1.719724840622     0.148086487812     1.191261173789    12.000000000000
         C            3.196868840622     0.034797487812    -0.776622826211    12.000000000000
         C            3.196866840622     0.034769487812     0.776625173789    12.000000000000
         C           -0.531445159378    -0.196322512188    -0.000001826211    12.000000000000
         C           -1.434197159378    -1.267624512188    -0.000009826211    12.000000000000
         C           -1.049042159378     1.108236487812     0.000009173789    12.000000000000
         C           -2.813426159378    -1.048853512188    -0.000007826211    12.000000000000
         C           -2.425841159378     1.332285487812     0.000010173789    12.000000000000
         C           -3.314143159378     0.253731487812     0.000002173789    12.000000000000
         H            1.119988840622    -1.532325512188    -0.000015826211     1.007825032230
         H            1.433766840622     1.200072487812    -1.311052826211     1.007825032230
         H            1.493565840622    -0.360334512188    -2.134340826211     1.007825032230
         H            1.493559840622    -0.360371512188     2.134335173789     1.007825032230
         H            1.433773840622     1.200048487812     1.311069173789     1.007825032230
         H            3.799353840622     0.848667487812    -1.191569826211     1.007825032230
         H            3.624477840622    -0.898612512188    -1.156961826211     1.007825032230
         H            3.624461840622    -0.898661512188     1.156930173789     1.007825032230
         H            3.799363840622     0.848614487812     1.191604173789     1.007825032230
         H           -1.049343159378    -2.286463512188    -0.000018826211     1.007825032230
         H           -0.372188159378     1.960769487812     0.000016173789     1.007825032230
         H           -3.495731159378    -1.895991512188    -0.000012826211     1.007825032230
         H           -2.807072159378     2.351107487812     0.000018173789     1.007825032230
         H           -4.387338159378     0.428638487812     0.000003173789     1.007825032230

  Basis Set: AUG-CC-PVTZ
    Blend: AUG-CC-PVTZ
  Basis Set: (AUG-CC-PVTZ AUX)
    Blend: AUG-CC-PVTZ-JKFIT
	 Reference Energy          =    -424.8164579961409117 [Eh]
	 Singles Energy            =      -0.0000000000000000 [Eh]
	 Same-Spin Energy          =      -0.4751289443681036 [Eh]
	 Opposite-Spin Energy      =      -1.5708519761248629 [Eh]
	 Correlation Energy        =      -2.0459809204929664 [Eh]
	 Total Energy              =    -426.8624389166338915 [Eh]

	 ================> DF-SCS-MP2 Energies <==================
	-----------------------------------------------------------
	 SCS Same-Spin Scale       =       0.3333333333333333 [-]
	 SCS Opposite-Spin Scale   =       1.2000000000000000 [-]
	 SCS Same-Spin Energy      =      -0.1583763147893679 [Eh]
	 SCS Opposite-Spin Energy  =      -1.8850223713498355 [Eh]
	 SCS Correlation Energy    =      -2.0433986861392035 [Eh]
	 SCS Total Energy          =    -426.8598566822801104 [Eh]
	-----------------------------------------------------------

  Dipole Moment: [D]
     X:     0.5410      Y:    -0.0913      Z:    -0.0000     Total:     0.5487

*** Psi4 exiting successfully. Buy a developer a beer!
