                               Psi4 1.3.2 release

  ==> Input File <==

--------------------------------------------------------------------------
#psi4
#
memory 32 gb

molecule  {
0 1
  C        0.8906310    -0.4594820    -0.0000050
  C        1.6569550     0.1328190    -1.1912600
  C        1.7899550     0.0709150     1.1256302
  C        3.1340990     0.0195060    -0.7766230
  C        3.1340970     0.0194780     0.7766250
  C       -0.5942150    -0.2116140    -0.0000020
  C       -1.4969670    -1.2829160    -0.0000100
  C       -1.1118120     1.0929450     0.0000090
  C       -2.8761960    -1.0641450    -0.0000080
  C       -2.4886110     1.3169940     0.0000100
  C       -3.3769130     0.2384400     0.0000020
  H        1.0572190    -1.5476170    -0.0000160
  H        1.3709970     1.1847810    -1.3110530
  H        1.4307960    -0.3756260    -2.1343410
  H        1.4307900    -0.3756630     2.1343350
  H        1.3710040     1.1847570     1.3110690
  H        3.7365840     0.8333760    -1.1915700
  H        3.5617080    -0.9139040    -1.1569620
  H        3.5616920    -0.9139530     1.1569300
  H        3.7365940     0.8333230     1.1916040
  H       -1.1121130    -2.3017550    -0.0000190
  H       -0.4349580     1.9454780     0.0000160
  H       -3.5585010    -1.9112830    -0.0000130
  H       -2.8698420     2.3358160     0.0000180
  H       -4.4501080     0.4133470     0.0000030
units angstrom
no_reorient  #important for SAPT in psi4, default
symmetry c1  #important for SAPT in psi4, default
}

set PROPERTIES_ORIGIN ["COM"]
properties('MP2/aug-cc-pvtz', properties = ['dipole'])
--------------------------------------------------------------------------

    Molecular point group: c1
  Charge       = 0
  Multiplicity = 1
  Basis Set: AUG-CC-PVTZ
    Blend: AUG-CC-PVTZ
  Basis Set: (AUG-CC-PVTZ AUX)
    Blend: AUG-CC-PVTZ-JKFIT

    Orbital Energies [Eh]
    ---------------------

    Doubly Occupied:

       1A    -11.239675     2A    -11.234264     3A    -11.233979
       4A    -11.231141     5A    -11.230794     6A    -11.230377
       7A    -11.227870     8A    -11.225159     9A    -11.217931
      10A    -11.216018    11A    -11.210303    12A     -1.160040
      13A     -1.132247    14A     -1.033411    15A     -1.009759
      16A     -0.972871    17A     -0.943442    18A     -0.830873
      19A     -0.817836    20A     -0.775311    21A     -0.752946
      22A     -0.697216    23A     -0.655907    24A     -0.651452
      25A     -0.622649    26A     -0.615282    27A     -0.582709
      28A     -0.570470    29A     -0.557427    30A     -0.541809
      31A     -0.514551    32A     -0.493403    33A     -0.491106
      34A     -0.476571    35A     -0.466812    36A     -0.455834
      37A     -0.448769    38A     -0.420942    39A     -0.333198
      40A     -0.321800

  @DF-RHF Final Energy:  -424.81599713159818

   => Energetics <=

    Nuclear Repulsion Energy =            581.7490535136840890
    One-Electron Energy =               -1727.4417904205834020
    Two-Electron Energy =                 720.8767397753013029
    Total Energy =                       -424.8159971315981238
  Basis Set: (AUG-CC-PVTZ AUX)
    Blend: AUG-CC-PVTZ-RI
    Molecular point group: c1

    Geometry (in Angstrom), charge = 0, multiplicity = 1:

       Center              X                  Y                   Z               Mass
    ------------   -----------------  -----------------  -----------------  -----------------
         C            0.939681540318    -0.451744088232     0.005385342998    12.000000000000
         C            1.706005540318     0.140556911768    -1.185869657002    12.000000000000
         C            1.839005540318     0.078652911768     1.131020542998    12.000000000000
         C            3.183149540318     0.027243911768    -0.771232657002    12.000000000000
         C            3.183147540318     0.027215911768     0.782015342998    12.000000000000
         C           -0.545164459682    -0.203876088232     0.005388342998    12.000000000000
         C           -1.447916459682    -1.275178088232     0.005380342998    12.000000000000
         C           -1.062761459682     1.100682911768     0.005399342998    12.000000000000
         C           -2.827145459682    -1.056407088232     0.005382342998    12.000000000000
         C           -2.439560459682     1.324731911768     0.005400342998    12.000000000000
         C           -3.327862459682     0.246177911768     0.005392342998    12.000000000000
         H            1.106269540318    -1.539879088232     0.005374342998     1.007825032230
         H            1.420047540318     1.192518911768    -1.305662657002     1.007825032230
         H            1.479846540318    -0.367888088232    -2.128950657002     1.007825032230
         H            1.479840540318    -0.367925088232     2.139725342998     1.007825032230
         H            1.420054540318     1.192494911768     1.316459342998     1.007825032230
         H            3.785634540318     0.841113911768    -1.186179657002     1.007825032230
         H            3.610758540318    -0.906166088232    -1.151571657002     1.007825032230
         H            3.610742540318    -0.906215088232     1.162320342998     1.007825032230
         H            3.785644540318     0.841060911768     1.196994342998     1.007825032230
         H           -1.063062459682    -2.294017088232     0.005371342998     1.007825032230
         H           -0.385907459682     1.953215911768     0.005406342998     1.007825032230
         H           -3.509450459682    -1.903545088232     0.005377342998     1.007825032230
         H           -2.820791459682     2.343553911768     0.005408342998     1.007825032230
         H           -4.401057459682     0.421084911768     0.005393342998     1.007825032230

  Basis Set: AUG-CC-PVTZ
    Blend: AUG-CC-PVTZ
  Basis Set: (AUG-CC-PVTZ AUX)
    Blend: AUG-CC-PVTZ-JKFIT
	 Reference Energy          =    -424.8159971315981807 [Eh]
	 Singles Energy            =      -0.0000000000000000 [Eh]
	 Same-Spin Energy          =      -0.4771735265276190 [Eh]
	 Opposite-Spin Energy      =      -1.5722731210359060 [Eh]
	 Correlation Energy        =      -2.0494466475635251 [Eh]
	 Total Energy              =    -426.8654437791616942 [Eh]

	 ================> DF-SCS-MP2 Energies <==================
	-----------------------------------------------------------
	 SCS Same-Spin Scale       =       0.3333333333333333 [-]
	 SCS Opposite-Spin Scale   =       1.2000000000000000 [-]
	 SCS Same-Spin Energy      =      -0.1590578421758730 [Eh]
	 SCS Opposite-Spin Energy  =      -1.8867277452430871 [Eh]
	 SCS Correlation Energy    =      -2.0457855874189601 [Eh]
	 SCS Total Energy          =    -426.8617827190171283 [Eh]
	-----------------------------------------------------------

  Dipole Moment: [D]
     X:     0.4567      Y:    -0.0655      Z:    -0.0574     Total:     0.4649

*** Psi4 exiting successfully. Buy a developer a beer!
