                               Psi4 1.3.2 release

  ==> Input File <==

--------------------------------------------------------------------------
#psi4
#
memory 32 gb

molecule  {
0 1
  C        0.8906310    -0.4594820    -0.0000050
  C        1.6893827     0.1578819    -1.1567327
  C        1.6569550     0.1327950     1.1912610
  C        3.1340990     0.0195060    -0.7766230
  C        3.1340970     0.0194780     0.7766250
  C       -0.5942150    -0.2116140    -0.0000020
  C       -1.4969670    -1.2829160    -0.0000100
  C       -1.1118120     1.0929450     0.0000090
  C       -2.8761960    -1.0641450    -0.0000080
  C       -2.4886110     1.3169940     0.0000100
  C       -3.3769130     0.2384400     0.0000020
  H        1.0572190    -1.5476170    -0.0000160
  H        1.3709970     1.1847810    -1.3110530
  H        1.4307960    -0.3756260    -2.1343410
  H        1.4307900    -0.3756630     2.1343350
  H        1.3710040     1.1847570     1.3110690
  H        3.7365840     0.8333760    -1.1915700
  H        3.5617080    -0.9139040    -1.1569620
  H        3.5616920    -0.9139530     1.1569300
  H        3.7365940     0.8333230     1.1916040
  H       -1.1121130    -2.3017550    -0.0000190
  H       -0.4349580     1.9454780     0.0000160
  H       -3.5585010    -1.9112830    -0.0000130
  H       -2.8698420     2.3358160     0.0000180
  H       -4.4501080     0.4133470     0.0000030
units angstrom
no_reorient  #important for SAPT in psi4, default
symmetry c1  #important for SAPT in psi4, default
}

set PROPERTIES_ORIGIN ["COM"]
properties('MP2/aug-cc-pvtz', properties = ['dipole'])
--------------------------------------------------------------------------

    Molecular point group: c1
  Charge       = 0
  Multiplicity = 1
  Basis Set: AUG-CC-PVTZ
    Blend: AUG-CC-PVTZ
  Basis Set: (AUG-CC-PVTZ AUX)
    Blend: AUG-CC-PVTZ-JKFIT

    Orbital Energies [Eh]
    ---------------------

    Doubly Occupied:

       1A    -11.237878     2A    -11.233972     3A    -11.233479
       4A    -11.229994     5A    -11.229583     6A    -11.229359
       7A    -11.227288     8A    -11.218135     9A    -11.216562
      10A    -11.215957    11A    -11.215024    12A     -1.156730
      13A     -1.122602    14A     -1.028629    15A     -1.009123
      16A     -0.962581    17A     -0.944293    18A     -0.832165
      19A     -0.817129    20A     -0.772229    21A     -0.762083
      22A     -0.696663    23A     -0.652284    24A     -0.646413
      25A     -0.620778    26A     -0.611080    27A     -0.582016
      28A     -0.573405    29A     -0.562653    30A     -0.528736
      31A     -0.511582    32A     -0.493830    33A     -0.479911
      34A     -0.468790    35A     -0.467085    36A     -0.457633
      37A     -0.454670    38A     -0.451555    39A     -0.332903
      40A     -0.320149

  @DF-RHF Final Energy:  -424.84285103295258

   => Energetics <=

    Nuclear Repulsion Energy =            581.1604917291384709
    One-Electron Energy =               -1726.3928229067423672
    Two-Electron Energy =                 720.3894801446514293
    Total Energy =                       -424.8428510329525807
  Basis Set: (AUG-CC-PVTZ AUX)
    Blend: AUG-CC-PVTZ-RI
    Molecular point group: c1

    Geometry (in Angstrom), charge = 0, multiplicity = 1:

       Center              X                  Y                   Z               Mass
    ------------   -----------------  -----------------  -----------------  -----------------
         C            0.947941558888    -0.458884722070    -0.002840657262    12.000000000000
         C            1.746693258888     0.158479177930    -1.159568357262    12.000000000000
         C            1.714265558888     0.133392277930     1.188425342738    12.000000000000
         C            3.191409558888     0.020103277930    -0.779458657262    12.000000000000
         C            3.191407558888     0.020075277930     0.773789342738    12.000000000000
         C           -0.536904441112    -0.211016722070    -0.002837657262    12.000000000000
         C           -1.439656441112    -1.282318722070    -0.002845657262    12.000000000000
         C           -1.054501441112     1.093542277930    -0.002826657262    12.000000000000
         C           -2.818885441112    -1.063547722070    -0.002843657262    12.000000000000
         C           -2.431300441112     1.317591277930    -0.002825657262    12.000000000000
         C           -3.319602441112     0.239037277930    -0.002833657262    12.000000000000
         H            1.114529558888    -1.547019722070    -0.002851657262     1.007825032230
         H            1.428307558888     1.185378277930    -1.313888657262     1.007825032230
         H            1.488106558888    -0.375028722070    -2.137176657262     1.007825032230
         H            1.488100558888    -0.375065722070     2.131499342738     1.007825032230
         H            1.428314558888     1.185354277930     1.308233342738     1.007825032230
         H            3.793894558888     0.833973277930    -1.194405657262     1.007825032230
         H            3.619018558888    -0.913306722070    -1.159797657262     1.007825032230
         H            3.619002558888    -0.913355722070     1.154094342738     1.007825032230
         H            3.793904558888     0.833920277930     1.188768342738     1.007825032230
         H           -1.054802441112    -2.301157722070    -0.002854657262     1.007825032230
         H           -0.377647441112     1.946075277930    -0.002819657262     1.007825032230
         H           -3.501190441112    -1.910685722070    -0.002848657262     1.007825032230
         H           -2.812531441112     2.336413277930    -0.002817657262     1.007825032230
         H           -4.392797441112     0.413944277930    -0.002832657262     1.007825032230

  Basis Set: AUG-CC-PVTZ
    Blend: AUG-CC-PVTZ
  Basis Set: (AUG-CC-PVTZ AUX)
    Blend: AUG-CC-PVTZ-JKFIT
	 Reference Energy          =    -424.8428510329525807 [Eh]
	 Singles Energy            =      -0.0000000000000000 [Eh]
	 Same-Spin Energy          =      -0.4756049168368056 [Eh]
	 Opposite-Spin Energy      =      -1.5702567635570099 [Eh]
	 Correlation Energy        =      -2.0458616803938154 [Eh]
	 Total Energy              =    -426.8887127133464219 [Eh]

	 ================> DF-SCS-MP2 Energies <==================
	-----------------------------------------------------------
	 SCS Same-Spin Scale       =       0.3333333333333333 [-]
	 SCS Opposite-Spin Scale   =       1.2000000000000000 [-]
	 SCS Same-Spin Energy      =      -0.1585349722789352 [Eh]
	 SCS Opposite-Spin Energy  =      -1.8843081162684119 [Eh]
	 SCS Correlation Energy    =      -2.0428430885473472 [Eh]
	 SCS Total Energy          =    -426.8856941214999097 [Eh]
	-----------------------------------------------------------

  Dipole Moment: [D]
     X:     0.4636      Y:    -0.0150      Z:     0.0192     Total:     0.4643

*** Psi4 exiting successfully. Buy a developer a beer!
