                               Psi4 1.3.2 release

  ==> Input File <==

--------------------------------------------------------------------------
#psi4
#
memory 32 gb

molecule  {
0 1
  C        0.8906310    -0.4594820    -0.0000050
  C        1.6569550     0.1328190    -1.1912600
  C        1.6070415     0.0942178     1.1136695
  C        3.1340990     0.0195060    -0.7766230
  C        3.1340970     0.0194780     0.7766250
  C       -0.5942150    -0.2116140    -0.0000020
  C       -1.4969670    -1.2829160    -0.0000100
  C       -1.1118120     1.0929450     0.0000090
  C       -2.8761960    -1.0641450    -0.0000080
  C       -2.4886110     1.3169940     0.0000100
  C       -3.3769130     0.2384400     0.0000020
  H        1.0572190    -1.5476170    -0.0000160
  H        1.3709970     1.1847810    -1.3110530
  H        1.4307960    -0.3756260    -2.1343410
  H        1.4307900    -0.3756630     2.1343350
  H        1.3710040     1.1847570     1.3110690
  H        3.7365840     0.8333760    -1.1915700
  H        3.5617080    -0.9139040    -1.1569620
  H        3.5616920    -0.9139530     1.1569300
  H        3.7365940     0.8333230     1.1916040
  H       -1.1121130    -2.3017550    -0.0000190
  H       -0.4349580     1.9454780     0.0000160
  H       -3.5585010    -1.9112830    -0.0000130
  H       -2.8698420     2.3358160     0.0000180
  H       -4.4501080     0.4133470     0.0000030
units angstrom
no_reorient  #important for SAPT in psi4, default
symmetry c1  #important for SAPT in psi4, default
}

set PROPERTIES_ORIGIN ["COM"]
properties('MP2/aug-cc-pvtz', properties = ['dipole'])
--------------------------------------------------------------------------

    Molecular point group: c1
  Charge       = 0
  Multiplicity = 1
  Basis Set: AUG-CC-PVTZ
    Blend: AUG-CC-PVTZ
  Basis Set: (AUG-CC-PVTZ AUX)
    Blend: AUG-CC-PVTZ-JKFIT

    Orbital Energies [Eh]
    ---------------------

    Doubly Occupied:

       1A    -11.238013     2A    -11.233938     3A    -11.233449
       4A    -11.230061     5A    -11.229628     6A    -11.229484
       7A    -11.223416     8A    -11.219815     9A    -11.217655
      10A    -11.217273    11A    -11.215745    12A     -1.160820
      13A     -1.125649    14A     -1.028186    15A     -1.009167
      16A     -0.959788    17A     -0.948608    18A     -0.831448
      19A     -0.817258    20A     -0.774755    21A     -0.759515
      22A     -0.698007    23A     -0.656274    24A     -0.647584
      25A     -0.619321    26A     -0.610536    27A     -0.581899
      28A     -0.570028    29A     -0.564100    30A     -0.530121
      31A     -0.515531    32A     -0.492785    33A     -0.479590
      34A     -0.474523    35A     -0.467714    36A     -0.458951
      37A     -0.448196    38A     -0.443690    39A     -0.332847
      40A     -0.321466

  @DF-RHF Final Energy:  -424.83518260267925

   => Energetics <=

    Nuclear Repulsion Energy =            582.3513673559647259
    One-Electron Energy =               -1728.7394292733649763
    Two-Electron Energy =                 721.5528793147209399
    Total Energy =                       -424.8351826026791969
  Basis Set: (AUG-CC-PVTZ AUX)
    Blend: AUG-CC-PVTZ-RI
    Molecular point group: c1

    Geometry (in Angstrom), charge = 0, multiplicity = 1:

       Center              X                  Y                   Z               Mass
    ------------   -----------------  -----------------  -----------------  -----------------
         C            0.954704254392    -0.453657950804     0.006367677141    12.000000000000
         C            1.721028254392     0.138643049196    -1.184887322859    12.000000000000
         C            1.671114754392     0.100041849196     1.120042177141    12.000000000000
         C            3.198172254392     0.025330049196    -0.770250322859    12.000000000000
         C            3.198170254392     0.025302049196     0.782997677141    12.000000000000
         C           -0.530141745608    -0.205789950804     0.006370677141    12.000000000000
         C           -1.432893745608    -1.277091950804     0.006362677141    12.000000000000
         C           -1.047738745608     1.098769049196     0.006381677141    12.000000000000
         C           -2.812122745608    -1.058320950804     0.006364677141    12.000000000000
         C           -2.424537745608     1.322818049196     0.006382677141    12.000000000000
         C           -3.312839745608     0.244264049196     0.006374677141    12.000000000000
         H            1.121292254392    -1.541792950804     0.006356677141     1.007825032230
         H            1.435070254392     1.190605049196    -1.304680322859     1.007825032230
         H            1.494869254392    -0.369801950804    -2.127968322859     1.007825032230
         H            1.494863254392    -0.369838950804     2.140707677141     1.007825032230
         H            1.435077254392     1.190581049196     1.317441677141     1.007825032230
         H            3.800657254392     0.839200049196    -1.185197322859     1.007825032230
         H            3.625781254392    -0.908079950804    -1.150589322859     1.007825032230
         H            3.625765254392    -0.908128950804     1.163302677141     1.007825032230
         H            3.800667254392     0.839147049196     1.197976677141     1.007825032230
         H           -1.048039745608    -2.295930950804     0.006353677141     1.007825032230
         H           -0.370884745608     1.951302049196     0.006388677141     1.007825032230
         H           -3.494427745608    -1.905458950804     0.006359677141     1.007825032230
         H           -2.805768745608     2.341640049196     0.006390677141     1.007825032230
         H           -4.386034745608     0.419171049196     0.006375677141     1.007825032230

  Basis Set: AUG-CC-PVTZ
    Blend: AUG-CC-PVTZ
  Basis Set: (AUG-CC-PVTZ AUX)
    Blend: AUG-CC-PVTZ-JKFIT
	 Reference Energy          =    -424.8351826026792537 [Eh]
	 Singles Energy            =      -0.0000000000000000 [Eh]
	 Same-Spin Energy          =      -0.4761870662164729 [Eh]
	 Opposite-Spin Energy      =      -1.5710915800537446 [Eh]
	 Correlation Energy        =      -2.0472786462702177 [Eh]
	 Total Energy              =    -426.8824612489494825 [Eh]

	 ================> DF-SCS-MP2 Energies <==================
	-----------------------------------------------------------
	 SCS Same-Spin Scale       =       0.3333333333333333 [-]
	 SCS Opposite-Spin Scale   =       1.2000000000000000 [-]
	 SCS Same-Spin Energy      =      -0.1587290220721576 [Eh]
	 SCS Opposite-Spin Energy  =      -1.8853098960644934 [Eh]
	 SCS Correlation Energy    =      -2.0440389181366512 [Eh]
	 SCS Total Energy          =    -426.8792215208159178 [Eh]
	-----------------------------------------------------------

  Dipole Moment: [D]
     X:     0.4524      Y:    -0.0264      Z:    -0.0265     Total:     0.4540

*** Psi4 exiting successfully. Buy a developer a beer!
