                               Psi4 1.4a3.dev225

  ==> Input File <==

--------------------------------------------------------------------------
#psi4
#
memory 32 gb

molecule  {
0 1
  C        0.8906310    -0.4594820    -0.0000050
  C        1.6569550     0.1328190    -1.1912600
  C        1.6469723     0.1250796     1.1757427
  C        3.1340990     0.0195060    -0.7766230
  C        3.1340970     0.0194780     0.7766250
  C       -0.5942150    -0.2116140    -0.0000020
  C       -1.4969670    -1.2829160    -0.0000100
  C       -1.1118120     1.0929450     0.0000090
  C       -2.8761960    -1.0641450    -0.0000080
  C       -2.4886110     1.3169940     0.0000100
  C       -3.3769130     0.2384400     0.0000020
  H        1.0572190    -1.5476170    -0.0000160
  H        1.3709970     1.1847810    -1.3110530
  H        1.4307960    -0.3756260    -2.1343410
  H        1.4307900    -0.3756630     2.1343350
  H        1.3710040     1.1847570     1.3110690
  H        3.7365840     0.8333760    -1.1915700
  H        3.5617080    -0.9139040    -1.1569620
  H        3.5616920    -0.9139530     1.1569300
  H        3.7365940     0.8333230     1.1916040
  H       -1.1121130    -2.3017550    -0.0000190
  H       -0.4349580     1.9454780     0.0000160
  H       -3.5585010    -1.9112830    -0.0000130
  H       -2.8698420     2.3358160     0.0000180
  H       -4.4501080     0.4133470     0.0000030
units angstrom
no_reorient  #important for SAPT in psi4, default
symmetry c1  #important for SAPT in psi4, default
}

set PROPERTIES_ORIGIN ["COM"]
properties('MP2/aug-cc-pvtz', properties = ['dipole'])
--------------------------------------------------------------------------

    Molecular point group: c1
  Charge       = 0
  Multiplicity = 1
  Basis Set: AUG-CC-PVTZ
    Blend: AUG-CC-PVTZ
  Basis Set: (AUG-CC-PVTZ AUX)
    Blend: AUG-CC-PVTZ-JKFIT

    Orbital Energies [Eh]
    ---------------------

    Doubly Occupied:

       1A    -11.237361     2A    -11.233723     3A    -11.233209
       4A    -11.229692     5A    -11.229235     6A    -11.228993
       7A    -11.226699     8A    -11.217253     9A    -11.216909
      10A    -11.216572    11A    -11.216058    12A     -1.156512
      13A     -1.120419    14A     -1.027402    15A     -1.008841
      16A     -0.960406    17A     -0.945327    18A     -0.831692
      19A     -0.816979    20A     -0.772995    21A     -0.761850
      22A     -0.696157    23A     -0.655209    24A     -0.645449
      25A     -0.619791    26A     -0.609710    27A     -0.581614
      28A     -0.572223    29A     -0.562565    30A     -0.525658
      31A     -0.512921    32A     -0.492993    33A     -0.478140
      34A     -0.471498    35A     -0.464231    36A     -0.463200
      37A     -0.453272    38A     -0.452197    39A     -0.332641
      40A     -0.320199

  @DF-RHF Final Energy:  -424.84578176022160

   => Energetics <=

    Nuclear Repulsion Energy =            581.0723137650613808
    One-Electron Energy =               -1726.2406010278280064
    Two-Electron Energy =                 720.3225055025450274
    Total Energy =                       -424.8457817602215982
  Basis Set: (AUG-CC-PVTZ AUX)
    Blend: AUG-CC-PVTZ-RI
    Molecular point group: c1

    Geometry (in Angstrom), charge = 0, multiplicity = 1:

       Center              X                  Y                   Z               Mass
    ------------   -----------------  -----------------  -----------------  -----------------
         C            0.951424731606    -0.456192635216     0.001269595614    12.000000000000
         C            1.717748731606     0.136108364784    -1.189985404386    12.000000000000
         C            1.707766031606     0.128368964784     1.177017295614    12.000000000000
         C            3.194892731606     0.022795364784    -0.775348404386    12.000000000000
         C            3.194890731606     0.022767364784     0.777899595614    12.000000000000
         C           -0.533421268394    -0.208324635216     0.001272595614    12.000000000000
         C           -1.436173268394    -1.279626635216     0.001264595614    12.000000000000
         C           -1.051018268394     1.096234364784     0.001283595614    12.000000000000
         C           -2.815402268394    -1.060855635216     0.001266595614    12.000000000000
         C           -2.427817268394     1.320283364784     0.001284595614    12.000000000000
         C           -3.316119268394     0.241729364784     0.001276595614    12.000000000000
         H            1.118012731606    -1.544327635216     0.001258595614     1.007825032230
         H            1.431790731606     1.188070364784    -1.309778404386     1.007825032230
         H            1.491589731606    -0.372336635216    -2.133066404386     1.007825032230
         H            1.491583731606    -0.372373635216     2.135609595614     1.007825032230
         H            1.431797731606     1.188046364784     1.312343595614     1.007825032230
         H            3.797377731606     0.836665364784    -1.190295404386     1.007825032230
         H            3.622501731606    -0.910614635216    -1.155687404386     1.007825032230
         H            3.622485731606    -0.910663635216     1.158204595614     1.007825032230
         H            3.797387731606     0.836612364784     1.192878595614     1.007825032230
         H           -1.051319268394    -2.298465635216     0.001255595614     1.007825032230
         H           -0.374164268394     1.948767364784     0.001290595614     1.007825032230
         H           -3.497707268394    -1.907993635216     0.001261595614     1.007825032230
         H           -2.809048268394     2.339105364784     0.001292595614     1.007825032230
         H           -4.389314268394     0.416636364784     0.001277595614     1.007825032230

  Basis Set: AUG-CC-PVTZ
    Blend: AUG-CC-PVTZ
  Basis Set: (AUG-CC-PVTZ AUX)
    Blend: AUG-CC-PVTZ-JKFIT
	 Reference Energy          =    -424.8457817602215982 [Eh]
	 Singles Energy            =      -0.0000000000000000 [Eh]
	 Same-Spin Energy          =      -0.4753709269034663 [Eh]
	 Opposite-Spin Energy      =      -1.5700447563942812 [Eh]
	 Correlation Energy        =      -2.0454156832977475 [Eh]
	 Total Energy              =    -426.8911974435193315 [Eh]

	 ================> DF-SCS-MP2 Energies <==================
	-----------------------------------------------------------
	 SCS Same-Spin Scale       =       0.3333333333333333 [-]
	 SCS Opposite-Spin Scale   =       1.2000000000000000 [-]
	 SCS Same-Spin Energy      =      -0.1584569756344887 [Eh]
	 SCS Opposite-Spin Energy  =      -1.8840537076731374 [Eh]
	 SCS Correlation Energy    =      -2.0425106833076261 [Eh]
	 SCS Total Energy          =    -426.8882924435292239 [Eh]
	-----------------------------------------------------------

  Dipole Moment: [D]
     X:     0.4694      Y:    -0.0322      Z:    -0.0028     Total:     0.4705

*** Psi4 exiting successfully. Buy a developer a beer!
