                               Psi4 1.4a3.dev225

  ==> Input File <==

--------------------------------------------------------------------------
#psi4
#
memory 32 gb

molecule  {
0 1
  C        0.8906310    -0.4594820    -0.0000050
  C        1.6569550     0.1328190    -1.1912600
  C        1.6669377     0.1405104     1.2067793
  C        3.1340990     0.0195060    -0.7766230
  C        3.1340970     0.0194780     0.7766250
  C       -0.5942150    -0.2116140    -0.0000020
  C       -1.4969670    -1.2829160    -0.0000100
  C       -1.1118120     1.0929450     0.0000090
  C       -2.8761960    -1.0641450    -0.0000080
  C       -2.4886110     1.3169940     0.0000100
  C       -3.3769130     0.2384400     0.0000020
  H        1.0572190    -1.5476170    -0.0000160
  H        1.3709970     1.1847810    -1.3110530
  H        1.4307960    -0.3756260    -2.1343410
  H        1.4307900    -0.3756630     2.1343350
  H        1.3710040     1.1847570     1.3110690
  H        3.7365840     0.8333760    -1.1915700
  H        3.5617080    -0.9139040    -1.1569620
  H        3.5616920    -0.9139530     1.1569300
  H        3.7365940     0.8333230     1.1916040
  H       -1.1121130    -2.3017550    -0.0000190
  H       -0.4349580     1.9454780     0.0000160
  H       -3.5585010    -1.9112830    -0.0000130
  H       -2.8698420     2.3358160     0.0000180
  H       -4.4501080     0.4133470     0.0000030
units angstrom
no_reorient  #important for SAPT in psi4, default
symmetry c1  #important for SAPT in psi4, default
}

set PROPERTIES_ORIGIN ["COM"]
properties('MP2/aug-cc-pvtz', properties = ['dipole'])
--------------------------------------------------------------------------

    Molecular point group: c1
  Charge       = 0
  Multiplicity = 1
  Basis Set: AUG-CC-PVTZ
    Blend: AUG-CC-PVTZ
  Basis Set: (AUG-CC-PVTZ AUX)
    Blend: AUG-CC-PVTZ-JKFIT

    Orbital Energies [Eh]
    ---------------------

    Doubly Occupied:

       1A    -11.237110     2A    -11.233619     3A    -11.233094
       4A    -11.229508     5A    -11.229051     6A    -11.228758
       7A    -11.228118     8A    -11.217025     9A    -11.216649
      10A    -11.216323    11A    -11.215981    12A     -1.155043
      13A     -1.118034    14A     -1.027134    15A     -1.008685
      16A     -0.962039    17A     -0.942853    18A     -0.831870
      19A     -0.816906    20A     -0.773028    21A     -0.762252
      22A     -0.695328    23A     -0.655013    24A     -0.644411
      25A     -0.620091    26A     -0.609318    27A     -0.581491
      28A     -0.574109    29A     -0.562026    30A     -0.524740
      31A     -0.511698    32A     -0.493294    33A     -0.480598
      34A     -0.472200    35A     -0.466556    36A     -0.459797
      37A     -0.453558    38A     -0.451121    39A     -0.332541
      40A     -0.319384

  @DF-RHF Final Energy:  -424.84611317121562

   => Energetics <=

    Nuclear Repulsion Energy =            580.4494916962883053
    One-Electron Energy =               -1725.0105019567768068
    Two-Electron Energy =                 719.7148970892728812
    Total Energy =                       -424.8461131712156202
  Basis Set: (AUG-CC-PVTZ AUX)
    Blend: AUG-CC-PVTZ-RI
    Molecular point group: c1

    Geometry (in Angstrom), charge = 0, multiplicity = 1:

       Center              X                  Y                   Z               Mass
    ------------   -----------------  -----------------  -----------------  -----------------
         C            0.949784970213    -0.457459969209    -0.001279445149    12.000000000000
         C            1.716108970213     0.134841030791    -1.192534445149    12.000000000000
         C            1.726091670213     0.142532430791     1.205504854851    12.000000000000
         C            3.193252970213     0.021528030791    -0.777897445149    12.000000000000
         C            3.193250970213     0.021500030791     0.775350554851    12.000000000000
         C           -0.535061029787    -0.209591969209    -0.001276445149    12.000000000000
         C           -1.437813029787    -1.280893969209    -0.001284445149    12.000000000000
         C           -1.052658029787     1.094967030791    -0.001265445149    12.000000000000
         C           -2.817042029787    -1.062122969209    -0.001282445149    12.000000000000
         C           -2.429457029787     1.319016030791    -0.001264445149    12.000000000000
         C           -3.317759029787     0.240462030791    -0.001272445149    12.000000000000
         H            1.116372970213    -1.545594969209    -0.001290445149     1.007825032230
         H            1.430150970213     1.186803030791    -1.312327445149     1.007825032230
         H            1.489949970213    -0.373603969209    -2.135615445149     1.007825032230
         H            1.489943970213    -0.373640969209     2.133060554851     1.007825032230
         H            1.430157970213     1.186779030791     1.309794554851     1.007825032230
         H            3.795737970213     0.835398030791    -1.192844445149     1.007825032230
         H            3.620861970213    -0.911881969209    -1.158236445149     1.007825032230
         H            3.620845970213    -0.911930969209     1.155655554851     1.007825032230
         H            3.795747970213     0.835345030791     1.190329554851     1.007825032230
         H           -1.052959029787    -2.299732969209    -0.001293445149     1.007825032230
         H           -0.375804029787     1.947500030791    -0.001258445149     1.007825032230
         H           -3.499347029787    -1.909260969209    -0.001287445149     1.007825032230
         H           -2.810688029787     2.337838030791    -0.001256445149     1.007825032230
         H           -4.390954029787     0.415369030791    -0.001271445149     1.007825032230

  Basis Set: AUG-CC-PVTZ
    Blend: AUG-CC-PVTZ
  Basis Set: (AUG-CC-PVTZ AUX)
    Blend: AUG-CC-PVTZ-JKFIT
	 Reference Energy          =    -424.8461131712156202 [Eh]
	 Singles Energy            =      -0.0000000000000000 [Eh]
	 Same-Spin Energy          =      -0.4751873558681663 [Eh]
	 Opposite-Spin Energy      =      -1.5699024468033225 [Eh]
	 Correlation Energy        =      -2.0450898026714888 [Eh]
	 Total Energy              =    -426.8912029738871183 [Eh]

	 ================> DF-SCS-MP2 Energies <==================
	-----------------------------------------------------------
	 SCS Same-Spin Scale       =       0.3333333333333333 [-]
	 SCS Opposite-Spin Scale   =       1.2000000000000000 [-]
	 SCS Same-Spin Energy      =      -0.1583957852893887 [Eh]
	 SCS Opposite-Spin Energy  =      -1.8838829361639868 [Eh]
	 SCS Correlation Energy    =      -2.0422787214533757 [Eh]
	 SCS Total Energy          =    -426.8883918926690058 [Eh]
	-----------------------------------------------------------

  Dipole Moment: [D]
     X:     0.4772      Y:    -0.0367      Z:     0.0016     Total:     0.4786

*** Psi4 exiting successfully. Buy a developer a beer!
