                               Psi4 1.4a3.dev225

  ==> Input File <==

--------------------------------------------------------------------------
#psi4
#
memory 32 gb

molecule  {
0 1
  F        1.1818710    -0.3420110    -0.0000470
  C        0.1054700     0.5542920     0.0000170
  C       -1.1453405    -0.1995781     0.0000267
  H        0.1975230     1.1848990     0.8894060
  H        0.1974700     1.1849630    -0.8893330
  H       -2.0446770     0.4547970     0.0000770
  H       -1.2455220    -0.8599590    -0.8867050
  H       -1.2454690    -0.8600240     0.8867160
units angstrom
no_reorient  #important for SAPT in psi4, default
symmetry c1  #important for SAPT in psi4, default
}

set PROPERTIES_ORIGIN ["COM"]
properties('MP2/aug-cc-pvtz', properties = ['dipole'])
--------------------------------------------------------------------------

    Molecular point group: c1
  Charge       = 0
  Multiplicity = 1
  Basis Set: AUG-CC-PVTZ
    Blend: AUG-CC-PVTZ
  Basis Set: (AUG-CC-PVTZ AUX)
    Blend: AUG-CC-PVTZ-JKFIT

    Orbital Energies [Eh]
    ---------------------

    Doubly Occupied:

       1A    -26.270681     2A    -11.306803     3A    -11.229605
       4A     -1.577484     5A     -1.044889     6A     -0.857852
       7A     -0.700505     8A     -0.691519     9A     -0.652699
      10A     -0.576158    11A     -0.540346    12A     -0.523289
      13A     -0.490138

  @DF-RHF Final Energy:  -178.14883846129013

   => Energetics <=

    Nuclear Repulsion Energy =             79.6371156264477520
    One-Electron Energy =                -402.6479745518788604
    Two-Electron Energy =                 144.8620204641409543
    Total Energy =                       -178.1488384612901257
  Basis Set: (AUG-CC-PVTZ AUX)
    Blend: AUG-CC-PVTZ-RI
    Molecular point group: c1

    Geometry (in Angstrom), charge = 0, multiplicity = 1:

       Center              X                  Y                   Z               Mass
    ------------   -----------------  -----------------  -----------------  -----------------
         F            1.061087520261    -0.318534023183    -0.000042706167    18.998403162730
         C           -0.015313479739     0.577768976817     0.000021293833    12.000000000000
         C           -1.266123979739    -0.176101123183     0.000030993833    12.000000000000
         H            0.076739520261     1.208375976817     0.889410293833     1.007825032230
         H            0.076686520261     1.208439976817    -0.889328706167     1.007825032230
         H           -2.165460479739     0.478273976817     0.000081293833     1.007825032230
         H           -1.366305479739    -0.836482023183    -0.886700706167     1.007825032230
         H           -1.366252479739    -0.836547023183     0.886720293833     1.007825032230

  Basis Set: AUG-CC-PVTZ
    Blend: AUG-CC-PVTZ
  Basis Set: (AUG-CC-PVTZ AUX)
    Blend: AUG-CC-PVTZ-JKFIT
	 Reference Energy          =    -178.1488384612901257 [Eh]
	 Singles Energy            =      -0.0000000000000000 [Eh]
	 Same-Spin Energy          =      -0.1521356462992098 [Eh]
	 Opposite-Spin Energy      =      -0.5198653448973840 [Eh]
	 Correlation Energy        =      -0.6720009911965937 [Eh]
	 Total Energy              =    -178.8208394524867231 [Eh]

	 ================> DF-SCS-MP2 Energies <==================
	-----------------------------------------------------------
	 SCS Same-Spin Scale       =       0.3333333333333333 [-]
	 SCS Opposite-Spin Scale   =       1.2000000000000000 [-]
	 SCS Same-Spin Energy      =      -0.0507118820997366 [Eh]
	 SCS Opposite-Spin Energy  =      -0.6238384138768608 [Eh]
	 SCS Correlation Energy    =      -0.6745502959765973 [Eh]
	 SCS Total Energy          =    -178.8233887572667129 [Eh]
	-----------------------------------------------------------

  Dipole Moment: [D]
     X:    -1.6901      Y:     1.1021      Z:     0.0001     Total:     2.0177

*** Psi4 exiting successfully. Buy a developer a beer!
