                               Psi4 1.3.2 release

  ==> Input File <==

--------------------------------------------------------------------------
#psi4
#
memory 32 gb

molecule  {
0 1
  F        1.1822990    -0.3416560    -0.0000460
  C        0.1052850     0.5537950     0.0000160
  C       -1.0170411    -0.1223828     0.0000247
  H        0.1969430     1.1845370     0.8894130
  H        0.1968930     1.1846010    -0.8893400
  H       -2.0439400     0.4559590     0.0000790
  H       -1.2461210    -0.8596670    -0.8868920
  H       -1.2460630    -0.8597320     0.8869000
units angstrom
no_reorient  #important for SAPT in psi4, default
symmetry c1  #important for SAPT in psi4, default
}

set PROPERTIES_ORIGIN ["COM"]
properties('MP2/aug-cc-pvtz', properties = ['dipole'])
--------------------------------------------------------------------------

    Molecular point group: c1
  Charge       = 0
  Multiplicity = 1
  Basis Set: AUG-CC-PVTZ
    Blend: AUG-CC-PVTZ
  Basis Set: (AUG-CC-PVTZ AUX)
    Blend: AUG-CC-PVTZ-JKFIT

    Orbital Energies [Eh]
    ---------------------

    Doubly Occupied:

       1A    -26.270278     2A    -11.298598     3A    -11.239527
       4A     -1.579583     5A     -1.085622     6A     -0.843163
       7A     -0.708654     8A     -0.701363     9A     -0.668150
      10A     -0.573665    11A     -0.556211    12A     -0.506143
      13A     -0.461178

  @DF-RHF Final Energy:  -178.09978636353239

   => Energetics <=

    Nuclear Repulsion Energy =             81.5210904585585183
    One-Electron Energy =                -406.2574870617465308
    Two-Electron Energy =                 146.6366102396556528
    Total Energy =                       -178.0997863635323881
  Basis Set: (AUG-CC-PVTZ AUX)
    Blend: AUG-CC-PVTZ-RI
    Molecular point group: c1

    Geometry (in Angstrom), charge = 0, multiplicity = 1:

       Center              X                  Y                   Z               Mass
    ------------   -----------------  -----------------  -----------------  -----------------
         F            1.029376512518    -0.337500459208    -0.000041331264    18.998403162730
         C           -0.047637487482     0.557950540792     0.000020668736    12.000000000000
         C           -1.169963587482    -0.118227259208     0.000029368736    12.000000000000
         H            0.044020512518     1.188692540792     0.889417668736     1.007825032230
         H            0.043970512518     1.188756540792    -0.889335331264     1.007825032230
         H           -2.196862487482     0.460114540792     0.000083668736     1.007825032230
         H           -1.399043487482    -0.855511459208    -0.886887331264     1.007825032230
         H           -1.398985487482    -0.855576459208     0.886904668736     1.007825032230

  Basis Set: AUG-CC-PVTZ
    Blend: AUG-CC-PVTZ
  Basis Set: (AUG-CC-PVTZ AUX)
    Blend: AUG-CC-PVTZ-JKFIT
	 Reference Energy          =    -178.0997863635323881 [Eh]
	 Singles Energy            =      -0.0000000000000000 [Eh]
	 Same-Spin Energy          =      -0.1545348477303198 [Eh]
	 Opposite-Spin Energy      =      -0.5230517492668519 [Eh]
	 Correlation Energy        =      -0.6775865969971717 [Eh]
	 Total Energy              =    -178.7773729605295614 [Eh]

	 ================> DF-SCS-MP2 Energies <==================
	-----------------------------------------------------------
	 SCS Same-Spin Scale       =       0.3333333333333333 [-]
	 SCS Opposite-Spin Scale   =       1.2000000000000000 [-]
	 SCS Same-Spin Energy      =      -0.0515116159101066 [Eh]
	 SCS Opposite-Spin Energy  =      -0.6276620991202223 [Eh]
	 SCS Correlation Energy    =      -0.6791737150303289 [Eh]
	 SCS Total Energy          =    -178.7789600785627044 [Eh]
	-----------------------------------------------------------

  Dipole Moment: [D]
     X:    -1.8021      Y:     1.1053      Z:     0.0001     Total:     2.1141

*** Psi4 exiting successfully. Buy a developer a beer!
