                               Psi4 1.3.2 release

  ==> Input File <==

--------------------------------------------------------------------------
#psi4
#
memory 32 gb

molecule  {
0 1
  F        1.1822990    -0.3416560    -0.0000460
  C        0.1052850     0.5537950     0.0000160
  C       -1.2740075    -0.2771996     0.0000267
  H        0.1969430     1.1845370     0.8894130
  H        0.1968930     1.1846010    -0.8893400
  H       -2.0439400     0.4559590     0.0000790
  H       -1.2461210    -0.8596670    -0.8868920
  H       -1.2460630    -0.8597320     0.8869000
units angstrom
no_reorient  #important for SAPT in psi4, default
symmetry c1  #important for SAPT in psi4, default
}

set PROPERTIES_ORIGIN ["COM"]
properties('MP2/aug-cc-pvtz', properties = ['dipole'])
--------------------------------------------------------------------------

    Molecular point group: c1
  Charge       = 0
  Multiplicity = 1
  Basis Set: AUG-CC-PVTZ
    Blend: AUG-CC-PVTZ
  Basis Set: (AUG-CC-PVTZ AUX)
    Blend: AUG-CC-PVTZ-JKFIT

    Orbital Energies [Eh]
    ---------------------

    Doubly Occupied:

       1A    -26.271232     2A    -11.312249     3A    -11.225401
       4A     -1.576239     5A     -1.019291     6A     -0.868422
       7A     -0.695790     8A     -0.685236     9A     -0.642624
      10A     -0.587749    11A     -0.569901    12A     -0.506815
      13A     -0.480065

  @DF-RHF Final Energy:  -178.14400491796184

   => Energetics <=

    Nuclear Repulsion Energy =             78.0161927291959358
    One-Electron Energy =                -399.4383674794577814
    Two-Electron Energy =                 143.2781698322999944
    Total Energy =                       -178.1440049179618370
  Basis Set: (AUG-CC-PVTZ AUX)
    Blend: AUG-CC-PVTZ-RI
    Molecular point group: c1

    Geometry (in Angstrom), charge = 0, multiplicity = 1:

       Center              X                  Y                   Z               Mass
    ------------   -----------------  -----------------  -----------------  -----------------
         F            1.093567925099    -0.298826496063    -0.000041830873    18.998403162730
         C            0.016553925099     0.596624503937     0.000020169127    12.000000000000
         C           -1.362738574901    -0.234370096063     0.000030869127    12.000000000000
         H            0.108211925099     1.227366503937     0.889417169127     1.007825032230
         H            0.108161925099     1.227430503937    -0.889335830873     1.007825032230
         H           -2.132671074901     0.498788503937     0.000083169127     1.007825032230
         H           -1.334852074901    -0.816837496063    -0.886887830873     1.007825032230
         H           -1.334794074901    -0.816902496063     0.886904169127     1.007825032230

  Basis Set: AUG-CC-PVTZ
    Blend: AUG-CC-PVTZ
  Basis Set: (AUG-CC-PVTZ AUX)
    Blend: AUG-CC-PVTZ-JKFIT
	 Reference Energy          =    -178.1440049179618370 [Eh]
	 Singles Energy            =      -0.0000000000000000 [Eh]
	 Same-Spin Energy          =      -0.1514768073752191 [Eh]
	 Opposite-Spin Energy      =      -0.5197212214575128 [Eh]
	 Correlation Energy        =      -0.6711980288327318 [Eh]
	 Total Energy              =    -178.8152029467945567 [Eh]

	 ================> DF-SCS-MP2 Energies <==================
	-----------------------------------------------------------
	 SCS Same-Spin Scale       =       0.3333333333333333 [-]
	 SCS Opposite-Spin Scale   =       1.2000000000000000 [-]
	 SCS Same-Spin Energy      =      -0.0504922691250730 [Eh]
	 SCS Opposite-Spin Energy  =      -0.6236654657490153 [Eh]
	 SCS Correlation Energy    =      -0.6741577348740883 [Eh]
	 SCS Total Energy          =    -178.8181626528359232 [Eh]
	-----------------------------------------------------------

  Dipole Moment: [D]
     X:    -1.5821      Y:     1.1199      Z:     0.0001     Total:     1.9383

*** Psi4 exiting successfully. Buy a developer a beer!
