                               Psi4 1.3.2 release

  ==> Input File <==

--------------------------------------------------------------------------
#psi4
#
memory 32 gb

molecule  {
0 1
  F        1.2421390    -0.2643460    -0.0000450
  C        0.1052850     0.5537950     0.0000160
  C       -1.1883520    -0.2255940     0.0000260
  H        0.1969430     1.1845370     0.8894130
  H        0.1968930     1.1846010    -0.8893400
  H       -2.0439400     0.4559590     0.0000790
  H       -1.2461210    -0.8596670    -0.8868920
  H       -1.2460630    -0.8597320     0.8869000
units angstrom
no_reorient  #important for SAPT in psi4, default
symmetry c1  #important for SAPT in psi4, default
}

set PROPERTIES_ORIGIN ["COM"]
properties('MP2/aug-cc-pvtz', properties = ['dipole'])
--------------------------------------------------------------------------

    Molecular point group: c1
  Charge       = 0
  Multiplicity = 1
  Basis Set: AUG-CC-PVTZ
    Blend: AUG-CC-PVTZ
  Basis Set: (AUG-CC-PVTZ AUX)
    Blend: AUG-CC-PVTZ-JKFIT

    Orbital Energies [Eh]
    ---------------------

    Doubly Occupied:

       1A    -26.270489     2A    -11.308429     3A    -11.229882
       4A     -1.576454     5A     -1.035896     6A     -0.862575
       7A     -0.698767     8A     -0.685682     9A     -0.649336
      10A     -0.581207    11A     -0.553971    12A     -0.509955
      13A     -0.495090

  @DF-RHF Final Energy:  -178.15120009694573

   => Energetics <=

    Nuclear Repulsion Energy =             78.7422262465017724
    One-Electron Energy =                -400.8713848581578532
    Two-Electron Energy =                 143.9779585147103376
    Total Energy =                       -178.1512000969457290
  Basis Set: (AUG-CC-PVTZ AUX)
    Blend: AUG-CC-PVTZ-RI
    Molecular point group: c1

    Geometry (in Angstrom), charge = 0, multiplicity = 1:

       Center              X                  Y                   Z               Mass
    ------------   -----------------  -----------------  -----------------  -----------------
         F            1.108344606464    -0.264983215134    -0.000041051501    18.998403162730
         C           -0.028509393536     0.553157784866     0.000019948499    12.000000000000
         C           -1.322146393536    -0.226231215134     0.000029948499    12.000000000000
         H            0.063148606464     1.183899784866     0.889416948499     1.007825032230
         H            0.063098606464     1.183963784866    -0.889336051501     1.007825032230
         H           -2.177734393536     0.455321784866     0.000082948499     1.007825032230
         H           -1.379915393536    -0.860304215134    -0.886888051501     1.007825032230
         H           -1.379857393536    -0.860369215134     0.886903948499     1.007825032230

  Basis Set: AUG-CC-PVTZ
    Blend: AUG-CC-PVTZ
  Basis Set: (AUG-CC-PVTZ AUX)
    Blend: AUG-CC-PVTZ-JKFIT
	 Reference Energy          =    -178.1512000969457290 [Eh]
	 Singles Energy            =      -0.0000000000000000 [Eh]
	 Same-Spin Energy          =      -0.1517241922148659 [Eh]
	 Opposite-Spin Energy      =      -0.5194893820907626 [Eh]
	 Correlation Energy        =      -0.6712135743056284 [Eh]
	 Total Energy              =    -178.8224136712513541 [Eh]

	 ================> DF-SCS-MP2 Energies <==================
	-----------------------------------------------------------
	 SCS Same-Spin Scale       =       0.3333333333333333 [-]
	 SCS Opposite-Spin Scale   =       1.2000000000000000 [-]
	 SCS Same-Spin Energy      =      -0.0505747307382886 [Eh]
	 SCS Opposite-Spin Energy  =      -0.6233872585089151 [Eh]
	 SCS Correlation Energy    =      -0.6739619892472037 [Eh]
	 SCS Total Energy          =    -178.8251620861929325 [Eh]
	-----------------------------------------------------------

  Dipole Moment: [D]
     X:    -1.7673      Y:     0.9928      Z:     0.0001     Total:     2.0270

*** Psi4 exiting successfully. Buy a developer a beer!
