                               Psi4 1.4a3.dev225

  ==> Input File <==

--------------------------------------------------------------------------
#psi4
#
memory 32 gb

molecule  {
0 1
  F        1.1818710    -0.3420110    -0.0000470
  C        0.1054700     0.5542920     0.0000170
  C       -1.2309875    -0.2511979     0.0000273
  H        0.1975230     1.1848990     0.8894060
  H        0.1974700     1.1849630    -0.8893330
  H       -2.0446770     0.4547970     0.0000770
  H       -1.2455220    -0.8599590    -0.8867050
  H       -1.2454690    -0.8600240     0.8867160
units angstrom
no_reorient  #important for SAPT in psi4, default
symmetry c1  #important for SAPT in psi4, default
}

set PROPERTIES_ORIGIN ["COM"]
properties('MP2/aug-cc-pvtz', properties = ['dipole'])
--------------------------------------------------------------------------

    Molecular point group: c1
  Charge       = 0
  Multiplicity = 1
  Basis Set: AUG-CC-PVTZ
    Blend: AUG-CC-PVTZ
  Basis Set: (AUG-CC-PVTZ AUX)
    Blend: AUG-CC-PVTZ-JKFIT

    Orbital Energies [Eh]
    ---------------------

    Doubly Occupied:

       1A    -26.271011     2A    -11.310718     3A    -11.226019
       4A     -1.576548     5A     -1.026368     6A     -0.865334
       7A     -0.697069     8A     -0.687008     9A     -0.645326
      10A     -0.583013    11A     -0.560613    12A     -0.502602
      13A     -0.495330

  @DF-RHF Final Energy:  -178.14993075266338

   => Energetics <=

    Nuclear Repulsion Energy =             78.5363649717916701
    One-Electron Energy =                -400.4786695055048540
    Two-Electron Energy =                 143.7923737810498039
    Total Energy =                       -178.1499307526633800
  Basis Set: (AUG-CC-PVTZ AUX)
    Blend: AUG-CC-PVTZ-RI
    Molecular point group: c1

    Geometry (in Angstrom), charge = 0, multiplicity = 1:

       Center              X                  Y                   Z               Mass
    ------------   -----------------  -----------------  -----------------  -----------------
         F            1.082482542775    -0.305639154908    -0.000042856050    18.998403162730
         C            0.006081542775     0.590663845092     0.000021143950    12.000000000000
         C           -1.330375957225    -0.214826054908     0.000031443950    12.000000000000
         H            0.098134542775     1.221270845092     0.889410143950     1.007825032230
         H            0.098081542775     1.221334845092    -0.889328856050     1.007825032230
         H           -2.144065457225     0.491168845092     0.000081143950     1.007825032230
         H           -1.344910457225    -0.823587154908    -0.886700856050     1.007825032230
         H           -1.344857457225    -0.823652154908     0.886720143950     1.007825032230

  Basis Set: AUG-CC-PVTZ
    Blend: AUG-CC-PVTZ
  Basis Set: (AUG-CC-PVTZ AUX)
    Blend: AUG-CC-PVTZ-JKFIT
	 Reference Energy          =    -178.1499307526633800 [Eh]
	 Singles Energy            =      -0.0000000000000000 [Eh]
	 Same-Spin Energy          =      -0.1515335936494408 [Eh]
	 Opposite-Spin Energy      =      -0.5194663554749102 [Eh]
	 Correlation Energy        =      -0.6709999491243510 [Eh]
	 Total Energy              =    -178.8209307017877450 [Eh]

	 ================> DF-SCS-MP2 Energies <==================
	-----------------------------------------------------------
	 SCS Same-Spin Scale       =       0.3333333333333333 [-]
	 SCS Opposite-Spin Scale   =       1.2000000000000000 [-]
	 SCS Same-Spin Energy      =      -0.0505111978831469 [Eh]
	 SCS Opposite-Spin Energy  =      -0.6233596265698922 [Eh]
	 SCS Correlation Energy    =      -0.6738708244530391 [Eh]
	 SCS Total Energy          =    -178.8238015771164271 [Eh]
	-----------------------------------------------------------

  Dipole Moment: [D]
     X:    -1.6189      Y:     1.1126      Z:     0.0001     Total:     1.9644

*** Psi4 exiting successfully. Buy a developer a beer!
