                               Psi4 1.4a3.dev225

  ==> Input File <==

--------------------------------------------------------------------------
#psi4
#
memory 32 gb

molecule  {
0 1
  F        1.1818710    -0.3420110    -0.0000470
  C        0.1054700     0.5542920     0.0000170
  C       -1.2052934    -0.2357120     0.0000271
  H        0.1975230     1.1848990     0.8894060
  H        0.1974700     1.1849630    -0.8893330
  H       -2.0446770     0.4547970     0.0000770
  H       -1.2455220    -0.8599590    -0.8867050
  H       -1.2454690    -0.8600240     0.8867160
units angstrom
no_reorient  #important for SAPT in psi4, default
symmetry c1  #important for SAPT in psi4, default
}

set PROPERTIES_ORIGIN ["COM"]
properties('MP2/aug-cc-pvtz', properties = ['dipole'])
--------------------------------------------------------------------------

    Molecular point group: c1
  Charge       = 0
  Multiplicity = 1
  Basis Set: AUG-CC-PVTZ
    Blend: AUG-CC-PVTZ
  Basis Set: (AUG-CC-PVTZ AUX)
    Blend: AUG-CC-PVTZ-JKFIT

    Orbital Energies [Eh]
    ---------------------

    Doubly Occupied:

       1A    -26.270905     2A    -11.309667     3A    -11.226782
       4A     -1.576794     5A     -1.031291     6A     -0.863269
       7A     -0.697974     8A     -0.688219     9A     -0.647262
      10A     -0.580572    11A     -0.554697    12A     -0.504180
      13A     -0.499455

  @DF-RHF Final Energy:  -178.15161519466648

   => Energetics <=

    Nuclear Repulsion Energy =             78.8568815798123381
    One-Electron Energy =                -401.1148608681271526
    Two-Electron Energy =                 144.1063640936483239
    Total Energy =                       -178.1516151946664763
  Basis Set: (AUG-CC-PVTZ AUX)
    Blend: AUG-CC-PVTZ-RI
    Molecular point group: c1

    Geometry (in Angstrom), charge = 0, multiplicity = 1:

       Center              X                  Y                   Z               Mass
    ------------   -----------------  -----------------  -----------------  -----------------
         F            1.076064036021    -0.309507605399    -0.000042806089    18.998403162730
         C           -0.000336963979     0.586795394601     0.000021193911    12.000000000000
         C           -1.311100363979    -0.203208605399     0.000031293911    12.000000000000
         H            0.091716036021     1.217402394601     0.889410193911     1.007825032230
         H            0.091663036021     1.217466394601    -0.889328806089     1.007825032230
         H           -2.150483963979     0.487300394601     0.000081193911     1.007825032230
         H           -1.351328963979    -0.827455605399    -0.886700806089     1.007825032230
         H           -1.351275963979    -0.827520605399     0.886720193911     1.007825032230

  Basis Set: AUG-CC-PVTZ
    Blend: AUG-CC-PVTZ
  Basis Set: (AUG-CC-PVTZ AUX)
    Blend: AUG-CC-PVTZ-JKFIT
	 Reference Energy          =    -178.1516151946664763 [Eh]
	 Singles Energy            =      -0.0000000000000000 [Eh]
	 Same-Spin Energy          =      -0.1516427839789068 [Eh]
	 Opposite-Spin Energy      =      -0.5194553336499212 [Eh]
	 Correlation Energy        =      -0.6710981176288281 [Eh]
	 Total Energy              =    -178.8227133122952921 [Eh]

	 ================> DF-SCS-MP2 Energies <==================
	-----------------------------------------------------------
	 SCS Same-Spin Scale       =       0.3333333333333333 [-]
	 SCS Opposite-Spin Scale   =       1.2000000000000000 [-]
	 SCS Same-Spin Energy      =      -0.0505475946596356 [Eh]
	 SCS Opposite-Spin Energy  =      -0.6233464003799055 [Eh]
	 SCS Correlation Energy    =      -0.6738939950395412 [Eh]
	 SCS Total Energy          =    -178.8255091897060254 [Eh]
	-----------------------------------------------------------

  Dipole Moment: [D]
     X:    -1.6405      Y:     1.1087      Z:     0.0001     Total:     1.9800

*** Psi4 exiting successfully. Buy a developer a beer!
