                               Psi4 1.3.2 release

  ==> Input File <==

--------------------------------------------------------------------------
#psi4
#
memory 32 gb

molecule  {
0 1
  F        1.1822990    -0.3416560    -0.0000460
  C        0.1052850     0.5537950     0.0000160
  C       -1.3596629    -0.3288052     0.0000273
  H        0.1969430     1.1845370     0.8894130
  H        0.1968930     1.1846010    -0.8893400
  H       -2.0439400     0.4559590     0.0000790
  H       -1.2461210    -0.8596670    -0.8868920
  H       -1.2460630    -0.8597320     0.8869000
units angstrom
no_reorient  #important for SAPT in psi4, default
symmetry c1  #important for SAPT in psi4, default
}

set PROPERTIES_ORIGIN ["COM"]
properties('MP2/aug-cc-pvtz', properties = ['dipole'])
--------------------------------------------------------------------------

    Molecular point group: c1
  Charge       = 0
  Multiplicity = 1
  Basis Set: AUG-CC-PVTZ
    Blend: AUG-CC-PVTZ
  Basis Set: (AUG-CC-PVTZ AUX)
    Blend: AUG-CC-PVTZ-JKFIT

    Orbital Energies [Eh]
    ---------------------

    Doubly Occupied:

       1A    -26.271852     2A    -11.314865     3A    -11.226585
       4A     -1.575909     5A     -1.008235     6A     -0.873764
       7A     -0.693901     8A     -0.682487     9A     -0.638836
      10A     -0.597543    11A     -0.585935    12A     -0.512374
      13A     -0.449226

  @DF-RHF Final Energy:  -178.12350192821273

   => Energetics <=

    Nuclear Repulsion Energy =             77.0158514728810673
    One-Electron Energy =                -397.4156845769377355
    Two-Electron Energy =                 142.2763311758439215
    Total Energy =                       -178.1235019282127325
  Basis Set: (AUG-CC-PVTZ AUX)
    Blend: AUG-CC-PVTZ-RI
    Molecular point group: c1

    Geometry (in Angstrom), charge = 0, multiplicity = 1:

       Center              X                  Y                   Z               Mass
    ------------   -----------------  -----------------  -----------------  -----------------
         F            1.114965045972    -0.285935175014    -0.000041980756    18.998403162730
         C            0.037951045972     0.609515824986     0.000020019244    12.000000000000
         C           -1.426996854028    -0.273084375014     0.000031319244    12.000000000000
         H            0.129609045972     1.240257824986     0.889417019244     1.007825032230
         H            0.129559045972     1.240321824986    -0.889335980756     1.007825032230
         H           -2.111273954028     0.511679824986     0.000083019244     1.007825032230
         H           -1.313454954028    -0.803946175014    -0.886887980756     1.007825032230
         H           -1.313396954028    -0.804011175014     0.886904019244     1.007825032230

  Basis Set: AUG-CC-PVTZ
    Blend: AUG-CC-PVTZ
  Basis Set: (AUG-CC-PVTZ AUX)
    Blend: AUG-CC-PVTZ-JKFIT
	 Reference Energy          =    -178.1235019282127325 [Eh]
	 Singles Energy            =      -0.0000000000000000 [Eh]
	 Same-Spin Energy          =      -0.1517672832188789 [Eh]
	 Opposite-Spin Energy      =      -0.5210700766583927 [Eh]
	 Correlation Energy        =      -0.6728373598772717 [Eh]
	 Total Energy              =    -178.7963392880899960 [Eh]

	 ================> DF-SCS-MP2 Energies <==================
	-----------------------------------------------------------
	 SCS Same-Spin Scale       =       0.3333333333333333 [-]
	 SCS Opposite-Spin Scale   =       1.2000000000000000 [-]
	 SCS Same-Spin Energy      =      -0.0505890944062930 [Eh]
	 SCS Opposite-Spin Energy  =      -0.6252840919900712 [Eh]
	 SCS Correlation Energy    =      -0.6758731863963642 [Eh]
	 SCS Total Energy          =    -178.7993751146090915 [Eh]
	-----------------------------------------------------------

  Dipole Moment: [D]
     X:    -1.4919      Y:     1.1462      Z:     0.0001     Total:     1.8814

*** Psi4 exiting successfully. Buy a developer a beer!
