                               Psi4 1.3.2 release

  ==> Input File <==

--------------------------------------------------------------------------
#psi4
#
memory 32 gb

molecule  {
0 1
  F        1.1172119    -0.4146034    -0.0000467
  C        0.1052850     0.5537950     0.0000160
  C       -1.1883520    -0.2255940     0.0000260
  H        0.1969430     1.1845370     0.8894130
  H        0.1968930     1.1846010    -0.8893400
  H       -2.0439400     0.4559590     0.0000790
  H       -1.2461210    -0.8596670    -0.8868920
  H       -1.2460630    -0.8597320     0.8869000
units angstrom
no_reorient  #important for SAPT in psi4, default
symmetry c1  #important for SAPT in psi4, default
}

set PROPERTIES_ORIGIN ["COM"]
properties('MP2/aug-cc-pvtz', properties = ['dipole'])
--------------------------------------------------------------------------

    Molecular point group: c1
  Charge       = 0
  Multiplicity = 1
  Basis Set: AUG-CC-PVTZ
    Blend: AUG-CC-PVTZ
  Basis Set: (AUG-CC-PVTZ AUX)
    Blend: AUG-CC-PVTZ-JKFIT

    Orbital Energies [Eh]
    ---------------------

    Doubly Occupied:

       1A    -26.271107     2A    -11.309303     3A    -11.224964
       4A     -1.577783     5A     -1.033894     6A     -0.861020
       7A     -0.698817     8A     -0.692593     9A     -0.648064
      10A     -0.577019    11A     -0.547864    12A     -0.508064
      13A     -0.499009

  @DF-RHF Final Energy:  -178.15050524856505

   => Energetics <=

    Nuclear Repulsion Energy =             79.4522429414575271
    One-Electron Energy =                -402.3064932819116848
    Two-Electron Energy =                 144.7037450918890897
    Total Energy =                       -178.1505052485650538
  Basis Set: (AUG-CC-PVTZ AUX)
    Blend: AUG-CC-PVTZ-RI
    Molecular point group: c1

    Geometry (in Angstrom), charge = 0, multiplicity = 1:

       Center              X                  Y                   Z               Mass
    ------------   -----------------  -----------------  -----------------  -----------------
         F            1.032825032092    -0.355815187494    -0.000042079166    18.998403162730
         C            0.020898132092     0.612583212506     0.000020620834    12.000000000000
         C           -1.272738867908    -0.166805787494     0.000030620834    12.000000000000
         H            0.112556132092     1.243325212506     0.889417620834     1.007825032230
         H            0.112506132092     1.243389212506    -0.889335379166     1.007825032230
         H           -2.128326867908     0.514747212506     0.000083620834     1.007825032230
         H           -1.330507867908    -0.800878787494    -0.886887379166     1.007825032230
         H           -1.330449867908    -0.800943787494     0.886904620834     1.007825032230

  Basis Set: AUG-CC-PVTZ
    Blend: AUG-CC-PVTZ
  Basis Set: (AUG-CC-PVTZ AUX)
    Blend: AUG-CC-PVTZ-JKFIT
	 Reference Energy          =    -178.1505052485650538 [Eh]
	 Singles Energy            =      -0.0000000000000000 [Eh]
	 Same-Spin Energy          =      -0.1518384187635790 [Eh]
	 Opposite-Spin Energy      =      -0.5196453389812108 [Eh]
	 Correlation Energy        =      -0.6714837577447897 [Eh]
	 Total Energy              =    -178.8219890063098489 [Eh]

	 ================> DF-SCS-MP2 Energies <==================
	-----------------------------------------------------------
	 SCS Same-Spin Scale       =       0.3333333333333333 [-]
	 SCS Opposite-Spin Scale   =       1.2000000000000000 [-]
	 SCS Same-Spin Energy      =      -0.0506128062545263 [Eh]
	 SCS Opposite-Spin Energy  =      -0.6235744067774529 [Eh]
	 SCS Correlation Energy    =      -0.6741872130319793 [Eh]
	 SCS Total Energy          =    -178.8246924615970386 [Eh]
	-----------------------------------------------------------

  Dipole Moment: [D]
     X:    -1.5311      Y:     1.2085      Z:     0.0001     Total:     1.9506

*** Psi4 exiting successfully. Buy a developer a beer!
