                               Psi4 1.3.2 release

  ==> Input File <==

--------------------------------------------------------------------------
#psi4
#
memory 32 gb

molecule  {
0 1
  F        1.1977627    -0.3227231    -0.0000458
  C        0.1052850     0.5537950     0.0000160
  C       -1.1883520    -0.2255940     0.0000260
  H        0.1969430     1.1845370     0.8894130
  H        0.1968930     1.1846010    -0.8893400
  H       -2.0439400     0.4559590     0.0000790
  H       -1.2461210    -0.8596670    -0.8868920
  H       -1.2460630    -0.8597320     0.8869000
units angstrom
no_reorient  #important for SAPT in psi4, default
symmetry c1  #important for SAPT in psi4, default
}

set PROPERTIES_ORIGIN ["COM"]
properties('MP2/aug-cc-pvtz', properties = ['dipole'])
--------------------------------------------------------------------------

    Molecular point group: c1
  Charge       = 0
  Multiplicity = 1
  Basis Set: AUG-CC-PVTZ
    Blend: AUG-CC-PVTZ
  Basis Set: (AUG-CC-PVTZ AUX)
    Blend: AUG-CC-PVTZ-JKFIT

    Orbital Energies [Eh]
    ---------------------

    Doubly Occupied:

       1A    -26.270772     2A    -11.308772     3A    -11.228058
       4A     -1.576844     5A     -1.035189     6A     -0.861960
       7A     -0.698654     8A     -0.688233     9A     -0.648874
      10A     -0.579750    11A     -0.551443    12A     -0.510034
      13A     -0.496582

  @DF-RHF Final Energy:  -178.15186740257084

   => Energetics <=

    Nuclear Repulsion Energy =             78.9874431057574498
    One-Electron Energy =                -401.3682915089477206
    Two-Electron Energy =                 144.2289810006194273
    Total Energy =                       -178.1518674025708435
  Basis Set: (AUG-CC-PVTZ AUX)
    Blend: AUG-CC-PVTZ-RI
    Molecular point group: c1

    Geometry (in Angstrom), charge = 0, multiplicity = 1:

       Center              X                  Y                   Z               Mass
    ------------   -----------------  -----------------  -----------------  -----------------
         F            1.081518727306    -0.300272705925    -0.000041535108    18.998403162730
         C           -0.010958972694     0.576245394075     0.000020264892    12.000000000000
         C           -1.304595972694    -0.203143605925     0.000030264892    12.000000000000
         H            0.080699027306     1.206987394075     0.889417264892     1.007825032230
         H            0.080649027306     1.207051394075    -0.889335735108     1.007825032230
         H           -2.160183972694     0.478409394075     0.000083264892     1.007825032230
         H           -1.362364972694    -0.837216605925    -0.886887735108     1.007825032230
         H           -1.362306972694    -0.837281605925     0.886904264892     1.007825032230

  Basis Set: AUG-CC-PVTZ
    Blend: AUG-CC-PVTZ
  Basis Set: (AUG-CC-PVTZ AUX)
    Blend: AUG-CC-PVTZ-JKFIT
	 Reference Energy          =    -178.1518674025708435 [Eh]
	 Singles Energy            =      -0.0000000000000000 [Eh]
	 Same-Spin Energy          =      -0.1517373893542352 [Eh]
	 Opposite-Spin Energy      =      -0.5194925520282826 [Eh]
	 Correlation Energy        =      -0.6712299413825178 [Eh]
	 Total Energy              =    -178.8230973439533500 [Eh]

	 ================> DF-SCS-MP2 Energies <==================
	-----------------------------------------------------------
	 SCS Same-Spin Scale       =       0.3333333333333333 [-]
	 SCS Opposite-Spin Scale   =       1.2000000000000000 [-]
	 SCS Same-Spin Energy      =      -0.0505791297847451 [Eh]
	 SCS Opposite-Spin Energy  =      -0.6233910624339390 [Eh]
	 SCS Correlation Energy    =      -0.6739701922186841 [Eh]
	 SCS Total Energy          =    -178.8258375947895331 [Eh]
	-----------------------------------------------------------

  Dipole Moment: [D]
     X:    -1.6848      Y:     1.0782      Z:     0.0001     Total:     2.0003

*** Psi4 exiting successfully. Buy a developer a beer!
