                               Psi4 1.3.2 release

  ==> Input File <==

--------------------------------------------------------------------------
#psi4
#
memory 32 gb

molecule  {
0 1
  F        1.2128937    -0.3035233    -0.0000456
  C        0.1052850     0.5537950     0.0000160
  C       -1.1883520    -0.2255940     0.0000260
  H        0.1969430     1.1845370     0.8894130
  H        0.1968930     1.1846010    -0.8893400
  H       -2.0439400     0.4559590     0.0000790
  H       -1.2461210    -0.8596670    -0.8868920
  H       -1.2460630    -0.8597320     0.8869000
units angstrom
no_reorient  #important for SAPT in psi4, default
symmetry c1  #important for SAPT in psi4, default
}

set PROPERTIES_ORIGIN ["COM"]
properties('MP2/aug-cc-pvtz', properties = ['dipole'])
--------------------------------------------------------------------------

    Molecular point group: c1
  Charge       = 0
  Multiplicity = 1
  Basis Set: AUG-CC-PVTZ
    Blend: AUG-CC-PVTZ
  Basis Set: (AUG-CC-PVTZ AUX)
    Blend: AUG-CC-PVTZ-JKFIT

    Orbital Energies [Eh]
    ---------------------

    Doubly Occupied:

       1A    -26.270685     2A    -11.308659     3A    -11.228669
       4A     -1.576701     5A     -1.035431     6A     -0.862162
       7A     -0.698675     8A     -0.687376     9A     -0.649032
      10A     -0.580250    11A     -0.552262    12A     -0.510102
      13A     -0.496088

  @DF-RHF Final Energy:  -178.15176443007977

   => Energetics <=

    Nuclear Repulsion Energy =             78.9030077430655439
    One-Electron Energy =                -401.1973584927871457
    Two-Electron Energy =                 144.1425863196418504
    Total Energy =                       -178.1517644300797656
  Basis Set: (AUG-CC-PVTZ AUX)
    Blend: AUG-CC-PVTZ-RI
    Molecular point group: c1

    Geometry (in Angstrom), charge = 0, multiplicity = 1:

       Center              X                  Y                   Z               Mass
    ------------   -----------------  -----------------  -----------------  -----------------
         F            1.090665555175    -0.288666251249    -0.000041414206    18.998403162730
         C           -0.016943144825     0.568652048751     0.000020185794    12.000000000000
         C           -1.310580144825    -0.210736951249     0.000030185794    12.000000000000
         H            0.074714855175     1.199394048751     0.889417185794     1.007825032230
         H            0.074664855175     1.199458048751    -0.889335814206     1.007825032230
         H           -2.166168144825     0.470816048751     0.000083185794     1.007825032230
         H           -1.368349144825    -0.844809951249    -0.886887814206     1.007825032230
         H           -1.368291144825    -0.844874951249     0.886904185794     1.007825032230

  Basis Set: AUG-CC-PVTZ
    Blend: AUG-CC-PVTZ
  Basis Set: (AUG-CC-PVTZ AUX)
    Blend: AUG-CC-PVTZ-JKFIT
	 Reference Energy          =    -178.1517644300797656 [Eh]
	 Singles Energy            =      -0.0000000000000000 [Eh]
	 Same-Spin Energy          =      -0.1517292276029300 [Eh]
	 Opposite-Spin Energy      =      -0.5194844280924418 [Eh]
	 Correlation Energy        =      -0.6712136556953717 [Eh]
	 Total Energy              =    -178.8229780857751336 [Eh]

	 ================> DF-SCS-MP2 Energies <==================
	-----------------------------------------------------------
	 SCS Same-Spin Scale       =       0.3333333333333333 [-]
	 SCS Opposite-Spin Scale   =       1.2000000000000000 [-]
	 SCS Same-Spin Energy      =      -0.0505764092009766 [Eh]
	 SCS Opposite-Spin Energy  =      -0.6233813137109301 [Eh]
	 SCS Correlation Energy    =      -0.6739577229119067 [Eh]
	 SCS Total Energy          =    -178.8257221529916592 [Eh]
	-----------------------------------------------------------

  Dipole Moment: [D]
     X:    -1.7131      Y:     1.0503      Z:     0.0001     Total:     2.0094

*** Psi4 exiting successfully. Buy a developer a beer!
