                               Psi4 1.3.2 release

  ==> Input File <==

--------------------------------------------------------------------------
#psi4
#
memory 32 gb

molecule  {
0 1
  F        1.1665072    -0.3603161    -0.0000462
  C        0.1052850     0.5537950     0.0000160
  C       -1.1883520    -0.2255940     0.0000260
  H        0.1969430     1.1845370     0.8894130
  H        0.1968930     1.1846010    -0.8893400
  H       -2.0439400     0.4559590     0.0000790
  H       -1.2461210    -0.8596670    -0.8868920
  H       -1.2460630    -0.8597320     0.8869000
units angstrom
no_reorient  #important for SAPT in psi4, default
symmetry c1  #important for SAPT in psi4, default
}

set PROPERTIES_ORIGIN ["COM"]
properties('MP2/aug-cc-pvtz', properties = ['dipole'])
--------------------------------------------------------------------------

    Molecular point group: c1
  Charge       = 0
  Multiplicity = 1
  Basis Set: AUG-CC-PVTZ
    Blend: AUG-CC-PVTZ
  Basis Set: (AUG-CC-PVTZ AUX)
    Blend: AUG-CC-PVTZ-JKFIT

    Orbital Energies [Eh]
    ---------------------

    Doubly Occupied:

       1A    -26.270927     2A    -11.308992     3A    -11.226826
       4A     -1.577172     5A     -1.034688     6A     -0.861569
       7A     -0.698664     8A     -0.689963     9A     -0.648552
      10A     -0.578704    11A     -0.549896    12A     -0.509585
      13A     -0.497560

  @DF-RHF Final Energy:  -178.15170505980393

   => Energetics <=

    Nuclear Repulsion Energy =             79.1646629583644739
    One-Electron Energy =                -401.7265388844439826
    Two-Electron Energy =                 144.4101708662755641
    Total Energy =                       -178.1517050598039305
  Basis Set: (AUG-CC-PVTZ AUX)
    Blend: AUG-CC-PVTZ-RI
    Molecular point group: c1

    Geometry (in Angstrom), charge = 0, multiplicity = 1:

       Center              X                  Y                   Z               Mass
    ------------   -----------------  -----------------  -----------------  -----------------
         F            1.062624491733    -0.322998018203    -0.000041776912    18.998403162730
         C            0.001402291733     0.591113081797     0.000020423088    12.000000000000
         C           -1.292234708267    -0.188275918203     0.000030423088    12.000000000000
         H            0.093060291733     1.221855081797     0.889417423088     1.007825032230
         H            0.093010291733     1.221919081797    -0.889335576912     1.007825032230
         H           -2.147822708267     0.493277081797     0.000083423088     1.007825032230
         H           -1.350003708267    -0.822348918203    -0.886887576912     1.007825032230
         H           -1.349945708267    -0.822413918203     0.886904423088     1.007825032230

  Basis Set: AUG-CC-PVTZ
    Blend: AUG-CC-PVTZ
  Basis Set: (AUG-CC-PVTZ AUX)
    Blend: AUG-CC-PVTZ-JKFIT
	 Reference Energy          =    -178.1517050598039305 [Eh]
	 Singles Energy            =      -0.0000000000000000 [Eh]
	 Same-Spin Energy          =      -0.1517654462076143 [Eh]
	 Opposite-Spin Energy      =      -0.5195306856102989 [Eh]
	 Correlation Energy        =      -0.6712961318179131 [Eh]
	 Total Energy              =    -178.8230011916218416 [Eh]

	 ================> DF-SCS-MP2 Energies <==================
	-----------------------------------------------------------
	 SCS Same-Spin Scale       =       0.3333333333333333 [-]
	 SCS Opposite-Spin Scale   =       1.2000000000000000 [-]
	 SCS Same-Spin Energy      =      -0.0505884820692048 [Eh]
	 SCS Opposite-Spin Energy  =      -0.6234368227323587 [Eh]
	 SCS Correlation Energy    =      -0.6740253048015634 [Eh]
	 SCS Total Energy          =    -178.8257303646055050 [Eh]
	-----------------------------------------------------------

  Dipole Moment: [D]
     X:    -1.6258      Y:     1.1322      Z:     0.0001     Total:     1.9812

*** Psi4 exiting successfully. Buy a developer a beer!
