                               Psi4 1.3.2 release

  ==> Input File <==

--------------------------------------------------------------------------
#psi4
#
memory 32 gb

molecule  {
0 1
  F        1.2699991    -0.2241720    -0.0000444
  C        0.1052850     0.5537950     0.0000160
  C       -1.1883520    -0.2255940     0.0000260
  H        0.1969430     1.1845370     0.8894130
  H        0.1968930     1.1846010    -0.8893400
  H       -2.0439400     0.4559590     0.0000790
  H       -1.2461210    -0.8596670    -0.8868920
  H       -1.2460630    -0.8597320     0.8869000
units angstrom
no_reorient  #important for SAPT in psi4, default
symmetry c1  #important for SAPT in psi4, default
}

set PROPERTIES_ORIGIN ["COM"]
properties('MP2/aug-cc-pvtz', properties = ['dipole'])
--------------------------------------------------------------------------

    Molecular point group: c1
  Charge       = 0
  Multiplicity = 1
  Basis Set: AUG-CC-PVTZ
    Blend: AUG-CC-PVTZ
  Basis Set: (AUG-CC-PVTZ AUX)
    Blend: AUG-CC-PVTZ-JKFIT

    Orbital Energies [Eh]
    ---------------------

    Doubly Occupied:

       1A    -26.270267     2A    -11.308194     3A    -11.231079
       4A     -1.576256     5A     -1.036338     6A     -0.862997
       7A     -0.698925     8A     -0.684019     9A     -0.649620
      10A     -0.582110    11A     -0.555746    12A     -0.509458
      13A     -0.494075

  @DF-RHF Final Energy:  -178.15016904950318

   => Energetics <=

    Nuclear Repulsion Energy =             78.5918962406711614
    One-Electron Energy =                -400.5659650508653726
    Two-Electron Energy =                 143.8238997606910630
    Total Energy =                       -178.1501690495031767
  Basis Set: (AUG-CC-PVTZ AUX)
    Blend: AUG-CC-PVTZ-RI
    Molecular point group: c1

    Geometry (in Angstrom), charge = 0, multiplicity = 1:

       Center              X                  Y                   Z               Mass
    ------------   -----------------  -----------------  -----------------  -----------------
         F            1.125186291687    -0.240697664754    -0.000040688795    18.998403162730
         C           -0.039527808313     0.537269335246     0.000019711205    12.000000000000
         C           -1.333164808313    -0.242119664754     0.000029711205    12.000000000000
         H            0.052130191687     1.168011335246     0.889416711205     1.007825032230
         H            0.052080191687     1.168075335246    -0.889336288795     1.007825032230
         H           -2.188752808313     0.439433335246     0.000082711205     1.007825032230
         H           -1.390933808313    -0.876192664754    -0.886888288795     1.007825032230
         H           -1.390875808313    -0.876257664754     0.886903711205     1.007825032230

  Basis Set: AUG-CC-PVTZ
    Blend: AUG-CC-PVTZ
  Basis Set: (AUG-CC-PVTZ AUX)
    Blend: AUG-CC-PVTZ-JKFIT
	 Reference Energy          =    -178.1501690495031767 [Eh]
	 Singles Energy            =      -0.0000000000000000 [Eh]
	 Same-Spin Energy          =      -0.1517336987850724 [Eh]
	 Opposite-Spin Energy      =      -0.5195220110551743 [Eh]
	 Correlation Energy        =      -0.6712557098402466 [Eh]
	 Total Energy              =    -178.8214247593434152 [Eh]

	 ================> DF-SCS-MP2 Energies <==================
	-----------------------------------------------------------
	 SCS Same-Spin Scale       =       0.3333333333333333 [-]
	 SCS Opposite-Spin Scale   =       1.2000000000000000 [-]
	 SCS Same-Spin Energy      =      -0.0505778995950241 [Eh]
	 SCS Opposite-Spin Energy  =      -0.6234264132662091 [Eh]
	 SCS Correlation Energy    =      -0.6740043128612332 [Eh]
	 SCS Total Energy          =    -178.8241733623644052 [Eh]
	-----------------------------------------------------------

  Dipole Moment: [D]
     X:    -1.8181      Y:     0.9333      Z:     0.0001     Total:     2.0437

*** Psi4 exiting successfully. Buy a developer a beer!
