                               Psi4 1.3.2 release

  ==> Input File <==

--------------------------------------------------------------------------
#psi4
#
memory 32 gb

molecule  {
0 1
  F        1.1822990    -0.3416560    -0.0000460
  C        0.1052850     0.5537950     0.0000160
  C       -1.1883520    -0.2255940     0.0000260
  H        0.1969430     1.1845370     0.8894130
  H        0.1968930     1.1846010    -0.8893400
  H       -2.0439400     0.4559590     0.0000790
  H       -1.2461210    -0.8596670    -0.8868920
  H       -1.2460630    -0.8597320     0.8869000
units angstrom
no_reorient  #important for SAPT in psi4, default
symmetry c1  #important for SAPT in psi4, default
}

set PROPERTIES_ORIGIN ["COM"]
properties('MP2/aug-cc-pvtz', properties = ['dipole'])
--------------------------------------------------------------------------

    Molecular point group: c1
  Charge       = 0
  Multiplicity = 1
  Basis Set: AUG-CC-PVTZ
    Blend: AUG-CC-PVTZ
  Basis Set: (AUG-CC-PVTZ AUX)
    Blend: AUG-CC-PVTZ-JKFIT

    Orbital Energies [Eh]
    ---------------------

    Doubly Occupied:

       1A    -26.270853     2A    -11.308883     3A    -11.227443
       4A     -1.577001     5A     -1.034942     6A     -0.861763
       7A     -0.698650     8A     -0.689096     9A     -0.648714
      10A     -0.579234    11A     -0.550653    12A     -0.509863
      13A     -0.497072

  @DF-RHF Final Energy:  -178.15184833175846

   => Energetics <=

    Nuclear Repulsion Energy =             79.0746418628074821
    One-Electron Energy =                -401.5446481697318859
    Two-Electron Energy =                 144.3181579751659456
    Total Energy =                       -178.1518483317584582
  Basis Set: (AUG-CC-PVTZ AUX)
    Blend: AUG-CC-PVTZ-RI
    Molecular point group: c1

    Geometry (in Angstrom), charge = 0, multiplicity = 1:

       Center              X                  Y                   Z               Mass
    ------------   -----------------  -----------------  -----------------  -----------------
         F            1.072170779245    -0.311717817111    -0.000041656010    18.998403162730
         C           -0.004843220755     0.583733182889     0.000020343990    12.000000000000
         C           -1.298480220755    -0.195655817111     0.000030343990    12.000000000000
         H            0.086814779245     1.214475182889     0.889417343990     1.007825032230
         H            0.086764779245     1.214539182889    -0.889335656010     1.007825032230
         H           -2.154068220755     0.485897182889     0.000083343990     1.007825032230
         H           -1.356249220755    -0.829728817111    -0.886887656010     1.007825032230
         H           -1.356191220755    -0.829793817111     0.886904343990     1.007825032230

  Basis Set: AUG-CC-PVTZ
    Blend: AUG-CC-PVTZ
  Basis Set: (AUG-CC-PVTZ AUX)
    Blend: AUG-CC-PVTZ-JKFIT
	 Reference Energy          =    -178.1518483317584582 [Eh]
	 Singles Energy            =      -0.0000000000000000 [Eh]
	 Same-Spin Energy          =      -0.1517494304533925 [Eh]
	 Opposite-Spin Energy      =      -0.5195079193748428 [Eh]
	 Correlation Energy        =      -0.6712573498282353 [Eh]
	 Total Energy              =    -178.8231056815866964 [Eh]

	 ================> DF-SCS-MP2 Energies <==================
	-----------------------------------------------------------
	 SCS Same-Spin Scale       =       0.3333333333333333 [-]
	 SCS Opposite-Spin Scale   =       1.2000000000000000 [-]
	 SCS Same-Spin Energy      =      -0.0505831434844642 [Eh]
	 SCS Opposite-Spin Energy  =      -0.6234095032498113 [Eh]
	 SCS Correlation Energy    =      -0.6739926467342754 [Eh]
	 SCS Total Energy          =    -178.8258409784927210 [Eh]
	-----------------------------------------------------------

  Dipole Moment: [D]
     X:    -1.6557      Y:     1.1055      Z:     0.0001     Total:     1.9909

*** Psi4 exiting successfully. Buy a developer a beer!
