                               Psi4 1.3.2 release

  ==> Input File <==

--------------------------------------------------------------------------
#psi4
#
memory 32 gb

molecule  {
0 1
  F        1.1822990    -0.3416560    -0.0000460
  C        0.1052850     0.5537950     0.0000160
  C       -1.1026965    -0.1739884     0.0000253
  H        0.1969430     1.1845370     0.8894130
  H        0.1968930     1.1846010    -0.8893400
  H       -2.0439400     0.4559590     0.0000790
  H       -1.2461210    -0.8596670    -0.8868920
  H       -1.2460630    -0.8597320     0.8869000
units angstrom
no_reorient  #important for SAPT in psi4, default
symmetry c1  #important for SAPT in psi4, default
}

set PROPERTIES_ORIGIN ["COM"]
properties('MP2/aug-cc-pvtz', properties = ['dipole'])
--------------------------------------------------------------------------

    Molecular point group: c1
  Charge       = 0
  Multiplicity = 1
  Basis Set: AUG-CC-PVTZ
    Blend: AUG-CC-PVTZ
  Basis Set: (AUG-CC-PVTZ AUX)
    Blend: AUG-CC-PVTZ-JKFIT

    Orbital Energies [Eh]
    ---------------------

    Doubly Occupied:

       1A    -26.270547     2A    -11.304347     3A    -11.232401
       4A     -1.578099     5A     -1.056701     6A     -0.853392
       7A     -0.702754     8A     -0.694346     9A     -0.657390
      10A     -0.574358    11A     -0.536955    12A     -0.528060
      13A     -0.481766

  @DF-RHF Final Energy:  -178.13994491229920

   => Energetics <=

    Nuclear Repulsion Energy =             80.2285510631580507
    One-Electron Energy =                -403.7947617302344838
    Two-Electron Energy =                 145.4262657547772619
    Total Energy =                       -178.1399449122991996
  Basis Set: (AUG-CC-PVTZ AUX)
    Blend: AUG-CC-PVTZ-RI
    Molecular point group: c1

    Geometry (in Angstrom), charge = 0, multiplicity = 1:

       Center              X                  Y                   Z               Mass
    ------------   -----------------  -----------------  -----------------  -----------------
         F            1.050773633391    -0.324609138160    -0.000041481147    18.998403162730
         C           -0.026240366609     0.570841861840     0.000020518853    12.000000000000
         C           -1.234221866609    -0.156941538160     0.000029818853    12.000000000000
         H            0.065417633391     1.201583861840     0.889417518853     1.007825032230
         H            0.065367633391     1.201647861840    -0.889335481147     1.007825032230
         H           -2.175465366609     0.473005861840     0.000083518853     1.007825032230
         H           -1.377646366609    -0.842620138160    -0.886887481147     1.007825032230
         H           -1.377588366609    -0.842685138160     0.886904518853     1.007825032230

  Basis Set: AUG-CC-PVTZ
    Blend: AUG-CC-PVTZ
  Basis Set: (AUG-CC-PVTZ AUX)
    Blend: AUG-CC-PVTZ-JKFIT
	 Reference Energy          =    -178.1399449122991996 [Eh]
	 Singles Energy            =      -0.0000000000000000 [Eh]
	 Same-Spin Energy          =      -0.1527142086861563 [Eh]
	 Opposite-Spin Energy      =      -0.5205540622068038 [Eh]
	 Correlation Energy        =      -0.6732682708929602 [Eh]
	 Total Energy              =    -178.8132131831921470 [Eh]

	 ================> DF-SCS-MP2 Energies <==================
	-----------------------------------------------------------
	 SCS Same-Spin Scale       =       0.3333333333333333 [-]
	 SCS Opposite-Spin Scale   =       1.2000000000000000 [-]
	 SCS Same-Spin Energy      =      -0.0509047362287188 [Eh]
	 SCS Opposite-Spin Energy  =      -0.6246648746481646 [Eh]
	 SCS Correlation Energy    =      -0.6755696108768834 [Eh]
	 SCS Total Energy          =    -178.8155145231760912 [Eh]
	-----------------------------------------------------------

  Dipole Moment: [D]
     X:    -1.7274      Y:     1.0992      Z:     0.0001     Total:     2.0475

*** Psi4 exiting successfully. Buy a developer a beer!
