                               Psi4 1.4a3.dev225

  ==> Input File <==

--------------------------------------------------------------------------
#psi4
#
memory 32 gb

molecule  {
0 1
  F        1.1818710    -0.3420110    -0.0000470
  C        0.1054700     0.5542920     0.0000170
  C       -1.1710346    -0.2150640     0.0000269
  H        0.1975230     1.1848990     0.8894060
  H        0.1974700     1.1849630    -0.8893330
  H       -2.0446770     0.4547970     0.0000770
  H       -1.2455220    -0.8599590    -0.8867050
  H       -1.2454690    -0.8600240     0.8867160
units angstrom
no_reorient  #important for SAPT in psi4, default
symmetry c1  #important for SAPT in psi4, default
}

set PROPERTIES_ORIGIN ["COM"]
properties('MP2/aug-cc-pvtz', properties = ['dipole'])
--------------------------------------------------------------------------

    Molecular point group: c1
  Charge       = 0
  Multiplicity = 1
  Basis Set: AUG-CC-PVTZ
    Blend: AUG-CC-PVTZ
  Basis Set: (AUG-CC-PVTZ AUX)
    Blend: AUG-CC-PVTZ-JKFIT

    Orbital Energies [Eh]
    ---------------------

    Doubly Occupied:

       1A    -26.270774     2A    -11.308104     3A    -11.228224
       4A     -1.577169     5A     -1.038679     6A     -0.860280
       7A     -0.699342     8A     -0.690018     9A     -0.650210
      10A     -0.577808    11A     -0.546536    12A     -0.515442
      13A     -0.494478

  @DF-RHF Final Energy:  -178.15128483724897

   => Energetics <=

    Nuclear Repulsion Energy =             79.2966176497048139
    One-Electron Energy =                -401.9816736430590822
    Two-Electron Energy =                 144.5337711561052743
    Total Energy =                       -178.1512848372489657
  Basis Set: (AUG-CC-PVTZ AUX)
    Blend: AUG-CC-PVTZ-RI
    Molecular point group: c1

    Geometry (in Angstrom), charge = 0, multiplicity = 1:

       Center              X                  Y                   Z               Mass
    ------------   -----------------  -----------------  -----------------  -----------------
         F            1.067506027015    -0.314665572693    -0.000042756128    18.998403162730
         C           -0.008894972985     0.581637427307     0.000021243872    12.000000000000
         C           -1.285399572985    -0.187718572693     0.000031143872    12.000000000000
         H            0.083158027015     1.212244427307     0.889410243872     1.007825032230
         H            0.083105027015     1.212308427307    -0.889328756128     1.007825032230
         H           -2.159041972985     0.482142427307     0.000081243872     1.007825032230
         H           -1.359886972985    -0.832613572693    -0.886700756128     1.007825032230
         H           -1.359833972985    -0.832678572693     0.886720243872     1.007825032230

  Basis Set: AUG-CC-PVTZ
    Blend: AUG-CC-PVTZ
  Basis Set: (AUG-CC-PVTZ AUX)
    Blend: AUG-CC-PVTZ-JKFIT
	 Reference Energy          =    -178.1512848372489657 [Eh]
	 Singles Energy            =      -0.0000000000000000 [Eh]
	 Same-Spin Energy          =      -0.1518815634388667 [Eh]
	 Opposite-Spin Energy      =      -0.5196126972827722 [Eh]
	 Correlation Energy        =      -0.6714942607216389 [Eh]
	 Total Energy              =    -178.8227790979705958 [Eh]

	 ================> DF-SCS-MP2 Energies <==================
	-----------------------------------------------------------
	 SCS Same-Spin Scale       =       0.3333333333333333 [-]
	 SCS Opposite-Spin Scale   =       1.2000000000000000 [-]
	 SCS Same-Spin Energy      =      -0.0506271878129556 [Eh]
	 SCS Opposite-Spin Energy  =      -0.6235352367393265 [Eh]
	 SCS Correlation Energy    =      -0.6741624245522821 [Eh]
	 SCS Total Energy          =    -178.8254472618012585 [Eh]
	-----------------------------------------------------------

  Dipole Moment: [D]
     X:    -1.6689      Y:     1.1045      Z:     0.0001     Total:     2.0012

*** Psi4 exiting successfully. Buy a developer a beer!
