                               Psi4 1.3.2 release

  ==> Input File <==

--------------------------------------------------------------------------
#psi4
#
memory 32 gb

molecule  {
0 1
  F        1.1503921    -0.3786978    -0.0000464
  C        0.1052850     0.5537950     0.0000160
  C       -1.1883520    -0.2255940     0.0000260
  H        0.1969430     1.1845370     0.8894130
  H        0.1968930     1.1846010    -0.8893400
  H       -2.0439400     0.4559590     0.0000790
  H       -1.2461210    -0.8596670    -0.8868920
  H       -1.2460630    -0.8597320     0.8869000
units angstrom
no_reorient  #important for SAPT in psi4, default
symmetry c1  #important for SAPT in psi4, default
}

set PROPERTIES_ORIGIN ["COM"]
properties('MP2/aug-cc-pvtz', properties = ['dipole'])
--------------------------------------------------------------------------

    Molecular point group: c1
  Charge       = 0
  Multiplicity = 1
  Basis Set: AUG-CC-PVTZ
    Blend: AUG-CC-PVTZ
  Basis Set: (AUG-CC-PVTZ AUX)
    Blend: AUG-CC-PVTZ-JKFIT

    Orbital Energies [Eh]
    ---------------------

    Doubly Occupied:

       1A    -26.270994     2A    -11.309098     3A    -11.226207
       4A     -1.577359     5A     -1.034429     6A     -0.861380
       7A     -0.698696     8A     -0.690836     9A     -0.648389
      10A     -0.578158    11A     -0.549177    12A     -0.509196
      13A     -0.498045

  @DF-RHF Final Energy:  -178.15143521589829

   => Energetics <=

    Nuclear Repulsion Energy =             79.2575631868036083
    One-Electron Energy =                -401.9140691078358714
    Two-Electron Energy =                 144.5050707051339600
    Total Energy =                       -178.1514352158982888
  Basis Set: (AUG-CC-PVTZ AUX)
    Blend: AUG-CC-PVTZ-RI
    Molecular point group: c1

    Geometry (in Angstrom), charge = 0, multiplicity = 1:

       Center              X                  Y                   Z               Mass
    ------------   -----------------  -----------------  -----------------  -----------------
         F            1.052882766415    -0.334109923948    -0.000041897814    18.998403162730
         C            0.007775666415     0.598382876052     0.000020502186    12.000000000000
         C           -1.285861333585    -0.181006123948     0.000030502186    12.000000000000
         H            0.099433666415     1.229124876052     0.889417502186     1.007825032230
         H            0.099383666415     1.229188876052    -0.889335497814     1.007825032230
         H           -2.141449333585     0.500546876052     0.000083502186     1.007825032230
         H           -1.343630333585    -0.815079123948    -0.886887497814     1.007825032230
         H           -1.343572333585    -0.815144123948     0.886904502186     1.007825032230

  Basis Set: AUG-CC-PVTZ
    Blend: AUG-CC-PVTZ
  Basis Set: (AUG-CC-PVTZ AUX)
    Blend: AUG-CC-PVTZ-JKFIT
	 Reference Energy          =    -178.1514352158982888 [Eh]
	 Singles Energy            =      -0.0000000000000000 [Eh]
	 Same-Spin Energy          =      -0.1517855405487902 [Eh]
	 Opposite-Spin Energy      =      -0.5195610363731846 [Eh]
	 Correlation Energy        =      -0.6713465769219749 [Eh]
	 Total Energy              =    -178.8227817928202512 [Eh]

	 ================> DF-SCS-MP2 Energies <==================
	-----------------------------------------------------------
	 SCS Same-Spin Scale       =       0.3333333333333333 [-]
	 SCS Opposite-Spin Scale   =       1.2000000000000000 [-]
	 SCS Same-Spin Energy      =      -0.0505951801829301 [Eh]
	 SCS Opposite-Spin Energy  =      -0.6234732436478215 [Eh]
	 SCS Correlation Energy    =      -0.6740684238307516 [Eh]
	 SCS Total Energy          =    -178.8255036397290496 [Eh]
	-----------------------------------------------------------

  Dipole Moment: [D]
     X:    -1.5951      Y:     1.1583      Z:     0.0001     Total:     1.9713

*** Psi4 exiting successfully. Buy a developer a beer!
