                               Psi4 1.3.2 release

  ==> Input File <==

--------------------------------------------------------------------------
#psi4
#
memory 32 gb

molecule  {
0 1
  F        1.0827989    -0.4493292    -0.0000469
  C        0.1052850     0.5537950     0.0000160
  C       -1.1883520    -0.2255940     0.0000260
  H        0.1969430     1.1845370     0.8894130
  H        0.1968930     1.1846010    -0.8893400
  H       -2.0439400     0.4559590     0.0000790
  H       -1.2461210    -0.8596670    -0.8868920
  H       -1.2460630    -0.8597320     0.8869000
units angstrom
no_reorient  #important for SAPT in psi4, default
symmetry c1  #important for SAPT in psi4, default
}

set PROPERTIES_ORIGIN ["COM"]
properties('MP2/aug-cc-pvtz', properties = ['dipole'])
--------------------------------------------------------------------------

    Molecular point group: c1
  Charge       = 0
  Multiplicity = 1
  Basis Set: AUG-CC-PVTZ
    Blend: AUG-CC-PVTZ
  Basis Set: (AUG-CC-PVTZ AUX)
    Blend: AUG-CC-PVTZ-JKFIT

    Orbital Energies [Eh]
    ---------------------

    Doubly Occupied:

       1A    -26.271196     2A    -11.309494     3A    -11.223718
       4A     -1.578283     5A     -1.033336     6A     -0.860689
       7A     -0.699019     8A     -0.694364     9A     -0.647749
      10A     -0.575815    11A     -0.546733    12A     -0.506438
      13A     -0.499966

  @DF-RHF Final Energy:  -178.14903488040630

   => Energetics <=

    Nuclear Repulsion Energy =             79.6591857698120407
    One-Electron Energy =                -402.7228406465996500
    Two-Electron Energy =                 144.9146199963813046
    Total Energy =                       -178.1490348804063046
  Basis Set: (AUG-CC-PVTZ AUX)
    Blend: AUG-CC-PVTZ-RI
    Molecular point group: c1

    Geometry (in Angstrom), charge = 0, multiplicity = 1:

       Center              X                  Y                   Z               Mass
    ------------   -----------------  -----------------  -----------------  -----------------
         F            1.012022058895    -0.376807251152    -0.000042200068    18.998403162730
         C            0.034508158895     0.626316948848     0.000020699932    12.000000000000
         C           -1.259128841105    -0.153072051152     0.000030699932    12.000000000000
         H            0.126166158895     1.257058948848     0.889417699932     1.007825032230
         H            0.126116158895     1.257122948848    -0.889335300068     1.007825032230
         H           -2.114716841105     0.528480948848     0.000083699932     1.007825032230
         H           -1.316897841105    -0.787145051152    -0.886887300068     1.007825032230
         H           -1.316839841105    -0.787210051152     0.886904699932     1.007825032230

  Basis Set: AUG-CC-PVTZ
    Blend: AUG-CC-PVTZ
  Basis Set: (AUG-CC-PVTZ AUX)
    Blend: AUG-CC-PVTZ-JKFIT
	 Reference Energy          =    -178.1490348804063046 [Eh]
	 Singles Energy            =      -0.0000000000000000 [Eh]
	 Same-Spin Energy          =      -0.1519090585587315 [Eh]
	 Opposite-Spin Energy      =      -0.5197627360676502 [Eh]
	 Correlation Energy        =      -0.6716717946263817 [Eh]
	 Total Energy              =    -178.8207066750326817 [Eh]

	 ================> DF-SCS-MP2 Energies <==================
	-----------------------------------------------------------
	 SCS Same-Spin Scale       =       0.3333333333333333 [-]
	 SCS Opposite-Spin Scale   =       1.2000000000000000 [-]
	 SCS Same-Spin Energy      =      -0.0506363528529105 [Eh]
	 SCS Opposite-Spin Energy  =      -0.6237152832811802 [Eh]
	 SCS Correlation Energy    =      -0.6743516361340907 [Eh]
	 SCS Total Energy          =    -178.8233865165403813 [Eh]
	-----------------------------------------------------------

  Dipole Moment: [D]
     X:    -1.4639      Y:     1.2557      Z:     0.0001     Total:     1.9287

*** Psi4 exiting successfully. Buy a developer a beer!
