                               Psi4 1.3.2 release

  ==> Input File <==

--------------------------------------------------------------------------
#psi4
#
memory 32 gb

molecule  {
-1 1
  O        1.0038370    -0.7785270     0.0000510
  O       -1.2856338    -0.4372146    -0.0000998
  O        0.1096060     1.3008640     0.0000230
  C       -0.1409850     0.0678760     0.0000040
  H        1.7508990    -0.1531850     0.0001380
units angstrom
no_reorient  #important for SAPT in psi4, default
symmetry c1  #important for SAPT in psi4, default
}

set PROPERTIES_ORIGIN ["COM"]
properties('MP2/aug-cc-pvtz', properties = ['dipole'])
--------------------------------------------------------------------------

    Molecular point group: c1
  Charge       = -1
  Multiplicity = 1
  Basis Set: AUG-CC-PVTZ
    Blend: AUG-CC-PVTZ
  Basis Set: (AUG-CC-PVTZ AUX)
    Blend: AUG-CC-PVTZ-JKFIT

    Orbital Energies [Eh]
    ---------------------

    Doubly Occupied:

       1A    -20.398793     2A    -20.296126     3A    -20.295130
       4A    -11.183585     5A     -1.233314     6A     -1.124167
       7A     -1.071305     8A     -0.584871     9A     -0.474211
      10A     -0.442807    11A     -0.415209    12A     -0.373563
      13A     -0.290015    14A     -0.248879    15A     -0.206102
      16A     -0.201446

  @DF-RHF Final Energy:  -263.19681836962070

   => Energetics <=

    Nuclear Repulsion Energy =            112.4502537650624276
    One-Electron Energy =                -593.6151007250401790
    Two-Electron Energy =                 217.9680285903570507
    Total Energy =                       -263.1968183696207007
  Basis Set: (AUG-CC-PVTZ AUX)
    Blend: AUG-CC-PVTZ-RI
    Molecular point group: c1

    Geometry (in Angstrom), charge = -1, multiplicity = 1:

       Center              X                  Y                   Z               Mass
    ------------   -----------------  -----------------  -----------------  -----------------
         O            1.047799688438    -0.811672904155     0.000054698630    15.994914619570
         O           -1.241671111562    -0.470360504155    -0.000096101370    15.994914619570
         O            0.153568688438     1.267718095845     0.000026698630    15.994914619570
         C           -0.097022311562     0.034730095845     0.000007698630    12.000000000000
         H            1.794861688438    -0.186330904155     0.000141698630     1.007825032230

  Basis Set: AUG-CC-PVTZ
    Blend: AUG-CC-PVTZ
  Basis Set: (AUG-CC-PVTZ AUX)
    Blend: AUG-CC-PVTZ-JKFIT
	 Reference Energy          =    -263.1968183696207007 [Eh]
	 Singles Energy            =      -0.0000000000000000 [Eh]
	 Same-Spin Energy          =      -0.2494380761018334 [Eh]
	 Opposite-Spin Energy      =      -0.7060073730021325 [Eh]
	 Correlation Energy        =      -0.9554454491039659 [Eh]
	 Total Energy              =    -264.1522638187246912 [Eh]

	 ================> DF-SCS-MP2 Energies <==================
	-----------------------------------------------------------
	 SCS Same-Spin Scale       =       0.3333333333333333 [-]
	 SCS Opposite-Spin Scale   =       1.2000000000000000 [-]
	 SCS Same-Spin Energy      =      -0.0831460253672778 [Eh]
	 SCS Opposite-Spin Energy  =      -0.8472088476025589 [Eh]
	 SCS Correlation Energy    =      -0.9303548729698367 [Eh]
	 SCS Total Energy          =    -264.1271732425905157 [Eh]
	-----------------------------------------------------------

  Dipole Moment: [D]
     X:     2.8559      Y:    -0.6033      Z:     0.0002     Total:     2.9190

*** Psi4 exiting successfully. Buy a developer a beer!
