                               Psi4 1.3.2 release

  ==> Input File <==

--------------------------------------------------------------------------
#psi4
#
memory 32 gb

molecule  {
-1 1
  O        1.0038370    -0.7785270     0.0000510
  O       -1.2265670    -0.5540960    -0.0000940
  O        0.1096060     1.3008640     0.0000230
  C       -0.1972384    -0.0140445    -0.0000042
  H        1.7508990    -0.1531850     0.0001380
units angstrom
no_reorient  #important for SAPT in psi4, default
symmetry c1  #important for SAPT in psi4, default
}

set PROPERTIES_ORIGIN ["COM"]
properties('MP2/aug-cc-pvtz', properties = ['dipole'])
--------------------------------------------------------------------------

    Molecular point group: c1
  Charge       = -1
  Multiplicity = 1
  Basis Set: AUG-CC-PVTZ
    Blend: AUG-CC-PVTZ
  Basis Set: (AUG-CC-PVTZ AUX)
    Blend: AUG-CC-PVTZ-JKFIT

    Orbital Energies [Eh]
    ---------------------

    Doubly Occupied:

       1A    -20.385570     2A    -20.321905     3A    -20.279339
       4A    -11.181827     5A     -1.246516     6A     -1.151076
       7A     -1.035835     8A     -0.587824     9A     -0.474410
      10A     -0.447115    11A     -0.420333    12A     -0.376683
      13A     -0.293443    14A     -0.245243    15A     -0.201340
      16A     -0.198650

  @DF-RHF Final Energy:  -263.18577292518916

   => Energetics <=

    Nuclear Repulsion Energy =            112.7000480414984764
    One-Electron Energy =                -594.0774230483715428
    Two-Electron Energy =                 218.1916020816839250
    Total Energy =                       -263.1857729251891556
  Basis Set: (AUG-CC-PVTZ AUX)
    Blend: AUG-CC-PVTZ-RI
    Molecular point group: c1

    Geometry (in Angstrom), charge = -1, multiplicity = 1:

       Center              X                  Y                   Z               Mass
    ------------   -----------------  -----------------  -----------------  -----------------
         O            1.043377385397    -0.764904026151     0.000054790928    15.994914619570
         O           -1.187026614603    -0.540473026151    -0.000090209072    15.994914619570
         O            0.149146385397     1.314486973849     0.000026790928    15.994914619570
         C           -0.157698014603    -0.000421526151    -0.000000409072    12.000000000000
         H            1.790439385397    -0.139562026151     0.000141790928     1.007825032230

  Basis Set: AUG-CC-PVTZ
    Blend: AUG-CC-PVTZ
  Basis Set: (AUG-CC-PVTZ AUX)
    Blend: AUG-CC-PVTZ-JKFIT
	 Reference Energy          =    -263.1857729251891556 [Eh]
	 Singles Energy            =      -0.0000000000000000 [Eh]
	 Same-Spin Energy          =      -0.2491046513567520 [Eh]
	 Opposite-Spin Energy      =      -0.7054982999651758 [Eh]
	 Correlation Energy        =      -0.9546029513219277 [Eh]
	 Total Energy              =    -264.1403758765110865 [Eh]

	 ================> DF-SCS-MP2 Energies <==================
	-----------------------------------------------------------
	 SCS Same-Spin Scale       =       0.3333333333333333 [-]
	 SCS Opposite-Spin Scale   =       1.2000000000000000 [-]
	 SCS Same-Spin Energy      =      -0.0830348837855840 [Eh]
	 SCS Opposite-Spin Energy  =      -0.8465979599582109 [Eh]
	 SCS Correlation Energy    =      -0.9296328437437948 [Eh]
	 SCS Total Energy          =    -264.1154057689329306 [Eh]
	-----------------------------------------------------------

  Dipole Moment: [D]
     X:     1.9705      Y:    -1.4087      Z:     0.0002     Total:     2.4222

*** Psi4 exiting successfully. Buy a developer a beer!
