                               Psi4 1.3.2 release

  ==> Input File <==

--------------------------------------------------------------------------
#psi4
#
memory 32 gb

molecule  {
-1 1
  O        1.0860387    -0.6542238     0.0000613
  O       -1.2265670    -0.5540960    -0.0000940
  O        0.1096060     1.3008640     0.0000230
  C       -0.1409850     0.0678760     0.0000040
  H        1.7508990    -0.1531850     0.0001380
units angstrom
no_reorient  #important for SAPT in psi4, default
symmetry c1  #important for SAPT in psi4, default
}

set PROPERTIES_ORIGIN ["COM"]
properties('MP2/aug-cc-pvtz', properties = ['dipole'])
--------------------------------------------------------------------------

    Molecular point group: c1
  Charge       = -1
  Multiplicity = 1
  Basis Set: AUG-CC-PVTZ
    Blend: AUG-CC-PVTZ
  Basis Set: (AUG-CC-PVTZ AUX)
    Blend: AUG-CC-PVTZ-JKFIT

    Orbital Energies [Eh]
    ---------------------

    Doubly Occupied:

       1A    -20.370205     2A    -20.306206     3A    -20.295364
       4A    -11.188377     5A     -1.250593     6A     -1.136064
       7A     -1.080153     8A     -0.627417     9A     -0.474413
      10A     -0.443119    11A     -0.415375    12A     -0.377707
      13A     -0.287976    14A     -0.246322    15A     -0.214165
      16A     -0.207513

  @DF-RHF Final Energy:  -263.17996715141749

   => Energetics <=

    Nuclear Repulsion Energy =            113.3654182918742492
    One-Electron Energy =                -595.2488351071685884
    Two-Electron Energy =                 218.7034496638768815
    Total Energy =                       -263.1799671514174861
  Basis Set: (AUG-CC-PVTZ AUX)
    Blend: AUG-CC-PVTZ-RI
    Molecular point group: c1

    Geometry (in Angstrom), charge = -1, multiplicity = 1:

       Center              X                  Y                   Z               Mass
    ------------   -----------------  -----------------  -----------------  -----------------
         O            1.092954619675    -0.689316024166     0.000060776507    15.994914619570
         O           -1.219651080325    -0.589188224166    -0.000094523493    15.994914619570
         O            0.116521919675     1.265771775834     0.000022476507    15.994914619570
         C           -0.134069080325     0.032783775834     0.000003476507    12.000000000000
         H            1.757814919675    -0.188277224166     0.000137476507     1.007825032230

  Basis Set: AUG-CC-PVTZ
    Blend: AUG-CC-PVTZ
  Basis Set: (AUG-CC-PVTZ AUX)
    Blend: AUG-CC-PVTZ-JKFIT
	 Reference Energy          =    -263.1799671514174861 [Eh]
	 Singles Energy            =      -0.0000000000000000 [Eh]
	 Same-Spin Energy          =      -0.2476132272216834 [Eh]
	 Opposite-Spin Energy      =      -0.7016307033716582 [Eh]
	 Correlation Energy        =      -0.9492439305933417 [Eh]
	 Total Energy              =    -264.1292110820108405 [Eh]

	 ================> DF-SCS-MP2 Energies <==================
	-----------------------------------------------------------
	 SCS Same-Spin Scale       =       0.3333333333333333 [-]
	 SCS Opposite-Spin Scale   =       1.2000000000000000 [-]
	 SCS Same-Spin Energy      =      -0.0825377424072278 [Eh]
	 SCS Opposite-Spin Energy  =      -0.8419568440459898 [Eh]
	 SCS Correlation Energy    =      -0.9244945864532176 [Eh]
	 SCS Total Energy          =    -264.1044617378706789 [Eh]
	-----------------------------------------------------------

  Dipole Moment: [D]
     X:     2.6289      Y:    -0.4407      Z:     0.0002     Total:     2.6656

*** Psi4 exiting successfully. Buy a developer a beer!
