                               Psi4 1.4a3.dev225

  ==> Input File <==

--------------------------------------------------------------------------
#psi4
#
memory 32 gb

molecule  {
-1 1
  O        1.0038370    -0.7785270     0.0000510
  O       -1.2265670    -0.5540960    -0.0000940
  O        0.1096060     1.3008640     0.0000230
  C       -0.1449683     0.0482767     0.0000037
  H        1.7508990    -0.1531850     0.0001380
units angstrom
no_reorient  #important for SAPT in psi4, default
symmetry c1  #important for SAPT in psi4, default
}

set PROPERTIES_ORIGIN ["COM"]
properties('MP2/aug-cc-pvtz', properties = ['dipole'])
--------------------------------------------------------------------------

    Molecular point group: c1
  Charge       = -1
  Multiplicity = 1
  Basis Set: AUG-CC-PVTZ
    Blend: AUG-CC-PVTZ
  Basis Set: (AUG-CC-PVTZ AUX)
    Blend: AUG-CC-PVTZ-JKFIT

    Orbital Energies [Eh]
    ---------------------

    Doubly Occupied:

       1A    -20.392106     2A    -20.300743     3A    -20.298135
       4A    -11.184668     5A     -1.233746     6A     -1.119743
       7A     -1.075704     8A     -0.584425     9A     -0.473054
      10A     -0.441375    11A     -0.415056    12A     -0.374646
      13A     -0.285617    14A     -0.246078    15A     -0.212929
      16A     -0.206380

  @DF-RHF Final Energy:  -263.19968116517299

   => Energetics <=

    Nuclear Repulsion Energy =            112.5702011926738493
    One-Electron Energy =                -593.8509529570503673
    Two-Electron Energy =                 218.0810705992035423
    Total Energy =                       -263.1996811651729899
  Basis Set: (AUG-CC-PVTZ AUX)
    Blend: AUG-CC-PVTZ-RI
    Molecular point group: c1

    Geometry (in Angstrom), charge = -1, multiplicity = 1:

       Center              X                  Y                   Z               Mass
    ------------   -----------------  -----------------  -----------------  -----------------
         O            1.033093489975    -0.777165428050     0.000053236640    15.994914619570
         O           -1.197310510025    -0.552734428050    -0.000091763360    15.994914619570
         O            0.138862489975     1.302225571950     0.000025236640    15.994914619570
         C           -0.115711810025     0.049638271950     0.000005936640    12.000000000000
         H            1.780155489975    -0.151823428050     0.000140236640     1.007825032230

  Basis Set: AUG-CC-PVTZ
    Blend: AUG-CC-PVTZ
  Basis Set: (AUG-CC-PVTZ AUX)
    Blend: AUG-CC-PVTZ-JKFIT
	 Reference Energy          =    -263.1996811651729899 [Eh]
	 Singles Energy            =      -0.0000000000000000 [Eh]
	 Same-Spin Energy          =      -0.2494910384282230 [Eh]
	 Opposite-Spin Energy      =      -0.7060410033680793 [Eh]
	 Correlation Energy        =      -0.9555320417963022 [Eh]
	 Total Energy              =    -264.1552132069692789 [Eh]

	 ================> DF-SCS-MP2 Energies <==================
	-----------------------------------------------------------
	 SCS Same-Spin Scale       =       0.3333333333333333 [-]
	 SCS Opposite-Spin Scale   =       1.2000000000000000 [-]
	 SCS Same-Spin Energy      =      -0.0831636794760743 [Eh]
	 SCS Opposite-Spin Energy  =      -0.8472492040416951 [Eh]
	 SCS Correlation Energy    =      -0.9304128835177694 [Eh]
	 SCS Total Energy          =    -264.1300940486907507 [Eh]
	-----------------------------------------------------------

  Dipole Moment: [D]
     X:     2.6673      Y:    -0.6041      Z:     0.0002     Total:     2.7348

*** Psi4 exiting successfully. Buy a developer a beer!
