                               Psi4 1.3.2 release

  ==> Input File <==

--------------------------------------------------------------------------
#psi4
#
memory 32 gb

molecule  {
-1 1
  O        1.0038370    -0.7785270     0.0000510
  O       -1.2265670    -0.5540960    -0.0000940
  O        0.1096060     1.3008640     0.0000230
  C       -0.2213949     0.1273256     0.0000007
  H        1.7508990    -0.1531850     0.0001380
units angstrom
no_reorient  #important for SAPT in psi4, default
symmetry c1  #important for SAPT in psi4, default
}

set PROPERTIES_ORIGIN ["COM"]
properties('MP2/aug-cc-pvtz', properties = ['dipole'])
--------------------------------------------------------------------------

    Molecular point group: c1
  Charge       = -1
  Multiplicity = 1
  Basis Set: AUG-CC-PVTZ
    Blend: AUG-CC-PVTZ
  Basis Set: (AUG-CC-PVTZ AUX)
    Blend: AUG-CC-PVTZ-JKFIT

    Orbital Energies [Eh]
    ---------------------

    Doubly Occupied:

       1A    -20.356765     2A    -20.315190     3A    -20.309550
       4A    -11.185308     5A     -1.227727     6A     -1.120402
       7A     -1.096723     8A     -0.548802     9A     -0.469655
      10A     -0.440159    11A     -0.411992    12A     -0.388825
      13A     -0.275758    14A     -0.237666    15A     -0.230878
      16A     -0.225604

  @DF-RHF Final Energy:  -263.19562151486872

   => Energetics <=

    Nuclear Repulsion Energy =            112.5817840537187351
    One-Electron Energy =                -593.8728044157086288
    Two-Electron Energy =                 218.0953988471212028
    Total Energy =                       -263.1956215148687193
  Basis Set: (AUG-CC-PVTZ AUX)
    Blend: AUG-CC-PVTZ-RI
    Molecular point group: c1

    Geometry (in Angstrom), charge = -1, multiplicity = 1:

       Center              X                  Y                   Z               Mass
    ------------   -----------------  -----------------  -----------------  -----------------
         O            1.048130062736    -0.792717925957     0.000053826876    15.994914619570
         O           -1.182273937264    -0.568286925957    -0.000091173124    15.994914619570
         O            0.153899062736     1.286673074043     0.000025826876    15.994914619570
         C           -0.177101837264     0.113134674043     0.000003526876    12.000000000000
         H            1.795192062736    -0.167375925957     0.000140826876     1.007825032230

  Basis Set: AUG-CC-PVTZ
    Blend: AUG-CC-PVTZ
  Basis Set: (AUG-CC-PVTZ AUX)
    Blend: AUG-CC-PVTZ-JKFIT
	 Reference Energy          =    -263.1956215148687193 [Eh]
	 Singles Energy            =      -0.0000000000000000 [Eh]
	 Same-Spin Energy          =      -0.2497461917936461 [Eh]
	 Opposite-Spin Energy      =      -0.7066322535423942 [Eh]
	 Correlation Energy        =      -0.9563784453360403 [Eh]
	 Total Energy              =    -264.1519999602047619 [Eh]

	 ================> DF-SCS-MP2 Energies <==================
	-----------------------------------------------------------
	 SCS Same-Spin Scale       =       0.3333333333333333 [-]
	 SCS Opposite-Spin Scale   =       1.2000000000000000 [-]
	 SCS Same-Spin Energy      =      -0.0832487305978820 [Eh]
	 SCS Opposite-Spin Energy  =      -0.8479587042508731 [Eh]
	 SCS Correlation Energy    =      -0.9312074348487551 [Eh]
	 SCS Total Energy          =    -264.1268289497174919 [Eh]
	-----------------------------------------------------------

  Dipole Moment: [D]
     X:     1.7824      Y:     0.2833      Z:     0.0002     Total:     1.8047

*** Psi4 exiting successfully. Buy a developer a beer!
