                               Psi4 1.3.2 release

  ==> Input File <==

--------------------------------------------------------------------------
#psi4
#
memory 32 gb

molecule  {
-1 1
  O        1.0038370    -0.7785270     0.0000510
  O       -1.2265670    -0.5540960    -0.0000940
  O        0.1096060     1.3008640     0.0000230
  C       -0.0542172     0.1175886     0.0000118
  H        1.7508990    -0.1531850     0.0001380
units angstrom
no_reorient  #important for SAPT in psi4, default
symmetry c1  #important for SAPT in psi4, default
}

set PROPERTIES_ORIGIN ["COM"]
properties('MP2/aug-cc-pvtz', properties = ['dipole'])
--------------------------------------------------------------------------

    Molecular point group: c1
  Charge       = -1
  Multiplicity = 1
  Basis Set: AUG-CC-PVTZ
    Blend: AUG-CC-PVTZ
  Basis Set: (AUG-CC-PVTZ AUX)
    Blend: AUG-CC-PVTZ-JKFIT

    Orbital Energies [Eh]
    ---------------------

    Doubly Occupied:

       1A    -20.406457     2A    -20.322438     3A    -20.271056
       4A    -11.184191     5A     -1.256194     6A     -1.151062
       7A     -1.029874     8A     -0.588558     9A     -0.495470
      10A     -0.449823    11A     -0.427476    12A     -0.364176
      13A     -0.297321    14A     -0.249213    15A     -0.193494
      16A     -0.188502

  @DF-RHF Final Energy:  -263.18203073548790

   => Energetics <=

    Nuclear Repulsion Energy =            112.6915388811585501
    One-Electron Energy =                -593.9965258477353700
    Two-Electron Energy =                 218.1229562310889776
    Total Energy =                       -263.1820307354878423
  Basis Set: (AUG-CC-PVTZ AUX)
    Blend: AUG-CC-PVTZ-RI
    Molecular point group: c1

    Geometry (in Angstrom), charge = -1, multiplicity = 1:

       Center              X                  Y                   Z               Mass
    ------------   -----------------  -----------------  -----------------  -----------------
         O            1.015238639461    -0.790802217172     0.000051643004    15.994914619570
         O           -1.215165360539    -0.566371217172    -0.000093356996    15.994914619570
         O            0.121007639461     1.288588782828     0.000023643004    15.994914619570
         C           -0.042815560539     0.105313382828     0.000012443004    12.000000000000
         H            1.762300639461    -0.165460217172     0.000138643004     1.007825032230

  Basis Set: AUG-CC-PVTZ
    Blend: AUG-CC-PVTZ
  Basis Set: (AUG-CC-PVTZ AUX)
    Blend: AUG-CC-PVTZ-JKFIT
	 Reference Energy          =    -263.1820307354878992 [Eh]
	 Singles Energy            =      -0.0000000000000000 [Eh]
	 Same-Spin Energy          =      -0.2499188729698029 [Eh]
	 Opposite-Spin Energy      =      -0.7071032215505193 [Eh]
	 Correlation Energy        =      -0.9570220945203223 [Eh]
	 Total Energy              =    -264.1390528300082110 [Eh]

	 ================> DF-SCS-MP2 Energies <==================
	-----------------------------------------------------------
	 SCS Same-Spin Scale       =       0.3333333333333333 [-]
	 SCS Opposite-Spin Scale   =       1.2000000000000000 [-]
	 SCS Same-Spin Energy      =      -0.0833062909899343 [Eh]
	 SCS Opposite-Spin Energy  =      -0.8485238658606231 [Eh]
	 SCS Correlation Energy    =      -0.9318301568505574 [Eh]
	 SCS Total Energy          =    -264.1138608923384368 [Eh]
	-----------------------------------------------------------

  Dipole Moment: [D]
     X:     3.7935      Y:     0.3188      Z:     0.0003     Total:     3.8069

*** Psi4 exiting successfully. Buy a developer a beer!
