                               Psi4 1.4a3.dev225

  ==> Input File <==

--------------------------------------------------------------------------
#psi4
#
memory 32 gb

molecule  {
-1 1
  O        1.0038370    -0.7785270     0.0000510
  O       -1.2265670    -0.5540960    -0.0000940
  O        0.1096060     1.3008640     0.0000230
  C       -0.1409850     0.0678760     0.0000040
  H        1.7662352    -0.1403475     0.0001398
units angstrom
no_reorient  #important for SAPT in psi4, default
symmetry c1  #important for SAPT in psi4, default
}

set PROPERTIES_ORIGIN ["COM"]
properties('MP2/aug-cc-pvtz', properties = ['dipole'])
--------------------------------------------------------------------------

    Molecular point group: c1
  Charge       = -1
  Multiplicity = 1
  Basis Set: AUG-CC-PVTZ
    Blend: AUG-CC-PVTZ
  Basis Set: (AUG-CC-PVTZ AUX)
    Blend: AUG-CC-PVTZ-JKFIT

    Orbital Energies [Eh]
    ---------------------

    Doubly Occupied:

       1A    -20.392058     2A    -20.303214     3A    -20.297129
       4A    -11.184561     5A     -1.230171     6A     -1.113420
       7A     -1.082019     8A     -0.576151     9A     -0.472407
      10A     -0.439772    11A     -0.413723    12A     -0.375209
      13A     -0.285317    14A     -0.245834    15A     -0.214159
      16A     -0.207453

  @DF-RHF Final Energy:  -263.19844808586447

   => Energetics <=

    Nuclear Repulsion Energy =            112.4576744893921045
    One-Electron Energy =                -593.6470511949603406
    Two-Electron Energy =                 217.9909286197037375
    Total Energy =                       -263.1984480858644702
  Basis Set: (AUG-CC-PVTZ AUX)
    Blend: AUG-CC-PVTZ-RI
    Molecular point group: c1

    Geometry (in Angstrom), charge = -1, multiplicity = 1:

       Center              X                  Y                   Z               Mass
    ------------   -----------------  -----------------  -----------------  -----------------
         O            1.032056383203    -0.781233621247     0.000053147874    15.994914619570
         O           -1.198347616797    -0.556802621247    -0.000091852126    15.994914619570
         O            0.137825383203     1.298157378753     0.000025147874    15.994914619570
         C           -0.112765616797     0.065169378753     0.000006147874    12.000000000000
         H            1.794454583203    -0.143054121247     0.000141947874     1.007825032230

  Basis Set: AUG-CC-PVTZ
    Blend: AUG-CC-PVTZ
  Basis Set: (AUG-CC-PVTZ AUX)
    Blend: AUG-CC-PVTZ-JKFIT
	 Reference Energy          =    -263.1984480858644702 [Eh]
	 Singles Energy            =      -0.0000000000000000 [Eh]
	 Same-Spin Energy          =      -0.2497860467377291 [Eh]
	 Opposite-Spin Energy      =      -0.7067883496311145 [Eh]
	 Correlation Energy        =      -0.9565743963688436 [Eh]
	 Total Energy              =    -264.1550224822333348 [Eh]

	 ================> DF-SCS-MP2 Energies <==================
	-----------------------------------------------------------
	 SCS Same-Spin Scale       =       0.3333333333333333 [-]
	 SCS Opposite-Spin Scale   =       1.2000000000000000 [-]
	 SCS Same-Spin Energy      =      -0.0832620155792430 [Eh]
	 SCS Opposite-Spin Energy  =      -0.8481460195573374 [Eh]
	 SCS Correlation Energy    =      -0.9314080351365804 [Eh]
	 SCS Total Energy          =    -264.1298561210010689 [Eh]
	-----------------------------------------------------------

  Dipole Moment: [D]
     X:     2.7424      Y:    -0.3573      Z:     0.0002     Total:     2.7655

*** Psi4 exiting successfully. Buy a developer a beer!
