                               Psi4 1.3.2 release

  ==> Input File <==

--------------------------------------------------------------------------
#psi4
#
memory 32 gb

molecule  {
-1 1
  O        1.0038370    -0.7785270     0.0000510
  O       -1.2041992    -0.5916034    -0.0000918
  O        0.1096060     1.3008640     0.0000230
  C       -0.1409850     0.0678760     0.0000040
  H        1.7508990    -0.1531850     0.0001380
units angstrom
no_reorient  #important for SAPT in psi4, default
symmetry c1  #important for SAPT in psi4, default
}

set PROPERTIES_ORIGIN ["COM"]
properties('MP2/aug-cc-pvtz', properties = ['dipole'])
--------------------------------------------------------------------------

    Molecular point group: c1
  Charge       = -1
  Multiplicity = 1
  Basis Set: AUG-CC-PVTZ
    Blend: AUG-CC-PVTZ
  Basis Set: (AUG-CC-PVTZ AUX)
    Blend: AUG-CC-PVTZ-JKFIT

    Orbital Energies [Eh]
    ---------------------

    Doubly Occupied:

       1A    -20.387348     2A    -20.306119     3A    -20.297244
       4A    -11.185143     5A     -1.232224     6A     -1.113355
       7A     -1.085387     8A     -0.578112     9A     -0.474642
      10A     -0.438925    11A     -0.413816    12A     -0.376977
      13A     -0.284274    14A     -0.244926    15A     -0.216648
      16A     -0.209287

  @DF-RHF Final Energy:  -263.19963017372936

   => Energetics <=

    Nuclear Repulsion Energy =            112.6371919928174776
    One-Electron Energy =                -593.9847900810598276
    Two-Electron Energy =                 218.1479679145129751
    Total Energy =                       -263.1996301737293606
  Basis Set: (AUG-CC-PVTZ AUX)
    Blend: AUG-CC-PVTZ-RI
    Molecular point group: c1

    Geometry (in Angstrom), charge = -1, multiplicity = 1:

       Center              X                  Y                   Z               Mass
    ------------   -----------------  -----------------  -----------------  -----------------
         O            1.026443980722    -0.771185419875     0.000052600681    15.994914619570
         O           -1.181592219278    -0.584261819875    -0.000090199319    15.994914619570
         O            0.132212980722     1.308205580125     0.000024600681    15.994914619570
         C           -0.118378019278     0.075217580125     0.000005600681    12.000000000000
         H            1.773505980722    -0.145843419875     0.000139600681     1.007825032230

  Basis Set: AUG-CC-PVTZ
    Blend: AUG-CC-PVTZ
  Basis Set: (AUG-CC-PVTZ AUX)
    Blend: AUG-CC-PVTZ-JKFIT
	 Reference Energy          =    -263.1996301737293606 [Eh]
	 Singles Energy            =      -0.0000000000000000 [Eh]
	 Same-Spin Energy          =      -0.2496381583908062 [Eh]
	 Opposite-Spin Energy      =      -0.7063343135483617 [Eh]
	 Correlation Energy        =      -0.9559724719391679 [Eh]
	 Total Energy              =    -264.1556026456685231 [Eh]

	 ================> DF-SCS-MP2 Energies <==================
	-----------------------------------------------------------
	 SCS Same-Spin Scale       =       0.3333333333333333 [-]
	 SCS Opposite-Spin Scale   =       1.2000000000000000 [-]
	 SCS Same-Spin Energy      =      -0.0832127194636021 [Eh]
	 SCS Opposite-Spin Energy  =      -0.8476011762580341 [Eh]
	 SCS Correlation Energy    =      -0.9308138957216362 [Eh]
	 SCS Total Energy          =    -264.1304440694510163 [Eh]
	-----------------------------------------------------------

  Dipole Moment: [D]
     X:     2.6870      Y:    -0.2896      Z:     0.0002     Total:     2.7026

*** Psi4 exiting successfully. Buy a developer a beer!
