                               Psi4 1.3.2 release

  ==> Input File <==

--------------------------------------------------------------------------
#psi4
#
memory 32 gb

molecule  {
-1 1
  O        1.0038370    -0.7785270     0.0000510
  O       -1.2265670    -0.5540960    -0.0000940
  O        0.1096060     1.3008640     0.0000230
  C       -0.3018048     0.1867751    -0.0000026
  H        1.7508990    -0.1531850     0.0001380
units angstrom
no_reorient  #important for SAPT in psi4, default
symmetry c1  #important for SAPT in psi4, default
}

set PROPERTIES_ORIGIN ["COM"]
properties('MP2/aug-cc-pvtz', properties = ['dipole'])
--------------------------------------------------------------------------

    Molecular point group: c1
  Charge       = -1
  Multiplicity = 1
  Basis Set: AUG-CC-PVTZ
    Blend: AUG-CC-PVTZ
  Basis Set: (AUG-CC-PVTZ AUX)
    Blend: AUG-CC-PVTZ-JKFIT

    Orbital Energies [Eh]
    ---------------------

    Doubly Occupied:

       1A    -20.330888     2A    -20.325844     3A    -20.319762
       4A    -11.190014     5A     -1.243376     6A     -1.158353
       7A     -1.061747     8A     -0.536648     9A     -0.469771
      10A     -0.453418    11A     -0.425943    12A     -0.382249
      13A     -0.250592    14A     -0.249611    15A     -0.245917
      16A     -0.216324

  @DF-RHF Final Energy:  -263.17956116755875

   => Energetics <=

    Nuclear Repulsion Energy =            112.5630174458680273
    One-Electron Energy =                -593.7642409346543673
    Two-Electron Energy =                 218.0216623212276090
    Total Energy =                       -263.1795611675587452
  Basis Set: (AUG-CC-PVTZ AUX)
    Blend: AUG-CC-PVTZ-RI
    Molecular point group: c1

    Geometry (in Angstrom), charge = -1, multiplicity = 1:

       Center              X                  Y                   Z               Mass
    ------------   -----------------  -----------------  -----------------  -----------------
         O            1.063950330968    -0.804414334437     0.000054476136    15.994914619570
         O           -1.166453669032    -0.579983334437    -0.000090523864    15.994914619570
         O            0.169719330968     1.274976665563     0.000026476136    15.994914619570
         C           -0.241691469032     0.160887765563     0.000000876136    12.000000000000
         H            1.811012330968    -0.179072334437     0.000141476136     1.007825032230

  Basis Set: AUG-CC-PVTZ
    Blend: AUG-CC-PVTZ
  Basis Set: (AUG-CC-PVTZ AUX)
    Blend: AUG-CC-PVTZ-JKFIT
	 Reference Energy          =    -263.1795611675587452 [Eh]
	 Singles Energy            =      -0.0000000000000000 [Eh]
	 Same-Spin Energy          =      -0.2504562664491201 [Eh]
	 Opposite-Spin Energy      =      -0.7078828004889042 [Eh]
	 Correlation Energy        =      -0.9583390669380243 [Eh]
	 Total Energy              =    -264.1379002344967830 [Eh]

	 ================> DF-SCS-MP2 Energies <==================
	-----------------------------------------------------------
	 SCS Same-Spin Scale       =       0.3333333333333333 [-]
	 SCS Opposite-Spin Scale   =       1.2000000000000000 [-]
	 SCS Same-Spin Energy      =      -0.0834854221497067 [Eh]
	 SCS Opposite-Spin Energy  =      -0.8494593605866850 [Eh]
	 SCS Correlation Energy    =      -0.9329447827363917 [Eh]
	 SCS Total Energy          =    -264.1125059502951444 [Eh]
	-----------------------------------------------------------

  Dipole Moment: [D]
     X:     0.7217      Y:     0.9980      Z:     0.0001     Total:     1.2316

*** Psi4 exiting successfully. Buy a developer a beer!
