                               Psi4 1.4a3.dev225

  ==> Input File <==

--------------------------------------------------------------------------
#psi4
#
memory 32 gb

molecule  {
-1 1
  O        1.0038370    -0.7785270     0.0000510
  O       -1.2265670    -0.5540960    -0.0000940
  O        0.1096060     1.3008640     0.0000230
  C       -0.1409850     0.0678760     0.0000040
  H        1.7125585    -0.1852787     0.0001335
units angstrom
no_reorient  #important for SAPT in psi4, default
symmetry c1  #important for SAPT in psi4, default
}

set PROPERTIES_ORIGIN ["COM"]
properties('MP2/aug-cc-pvtz', properties = ['dipole'])
--------------------------------------------------------------------------

    Molecular point group: c1
  Charge       = -1
  Multiplicity = 1
  Basis Set: AUG-CC-PVTZ
    Blend: AUG-CC-PVTZ
  Basis Set: (AUG-CC-PVTZ AUX)
    Blend: AUG-CC-PVTZ-JKFIT

    Orbital Energies [Eh]
    ---------------------

    Doubly Occupied:

       1A    -20.385714     2A    -20.304066     3A    -20.297103
       4A    -11.185239     5A     -1.239011     6A     -1.123130
       7A     -1.082430     8A     -0.589878     9A     -0.479190
      10A     -0.440783    11A     -0.415152    12A     -0.378780
      13A     -0.287157    14A     -0.246534    15A     -0.215348
      16A     -0.207684

  @DF-RHF Final Energy:  -263.20093092994182

   => Energetics <=

    Nuclear Repulsion Energy =            112.8591404703566212
    One-Electron Energy =                -594.3657496353130227
    Two-Electron Energy =                 218.3056782350145966
    Total Energy =                       -263.2009309299418192
  Basis Set: (AUG-CC-PVTZ AUX)
    Blend: AUG-CC-PVTZ-RI
    Molecular point group: c1

    Geometry (in Angstrom), charge = -1, multiplicity = 1:

       Center              X                  Y                   Z               Mass
    ------------   -----------------  -----------------  -----------------  -----------------
         O            1.032943322758    -0.780491190015     0.000053251974    15.994914619570
         O           -1.197460677242    -0.556060190015    -0.000091748026    15.994914619570
         O            0.138712322758     1.298899809985     0.000025251974    15.994914619570
         C           -0.111878677242     0.065911809985     0.000006251974    12.000000000000
         H            1.741664822758    -0.187242890015     0.000135751974     1.007825032230

  Basis Set: AUG-CC-PVTZ
    Blend: AUG-CC-PVTZ
  Basis Set: (AUG-CC-PVTZ AUX)
    Blend: AUG-CC-PVTZ-JKFIT
	 Reference Energy          =    -263.2009309299418192 [Eh]
	 Singles Energy            =      -0.0000000000000000 [Eh]
	 Same-Spin Energy          =      -0.2489318774318855 [Eh]
	 Opposite-Spin Energy      =      -0.7046516639708722 [Eh]
	 Correlation Energy        =      -0.9535835414027577 [Eh]
	 Total Energy              =    -264.1545144713445552 [Eh]

	 ================> DF-SCS-MP2 Energies <==================
	-----------------------------------------------------------
	 SCS Same-Spin Scale       =       0.3333333333333333 [-]
	 SCS Opposite-Spin Scale   =       1.2000000000000000 [-]
	 SCS Same-Spin Energy      =      -0.0829772924772952 [Eh]
	 SCS Opposite-Spin Energy  =      -0.8455819967650466 [Eh]
	 SCS Correlation Energy    =      -0.9285592892423418 [Eh]
	 SCS Total Energy          =    -264.1294902191841629 [Eh]
	-----------------------------------------------------------

  Dipole Moment: [D]
     X:     2.7110      Y:    -0.3887      Z:     0.0002     Total:     2.7387

*** Psi4 exiting successfully. Buy a developer a beer!
