                               Psi4 1.3.2 release

  ==> Input File <==

--------------------------------------------------------------------------
#psi4
#
memory 32 gb

molecule  {
-1 1
  O        1.0038370    -0.7785270     0.0000510
  O       -1.2265670    -0.5540960    -0.0000940
  O        0.1096060     1.3008640     0.0000230
  C       -0.1107486     0.1073141     0.0000082
  H        1.7508990    -0.1531850     0.0001380
units angstrom
no_reorient  #important for SAPT in psi4, default
symmetry c1  #important for SAPT in psi4, default
}

set PROPERTIES_ORIGIN ["COM"]
properties('MP2/aug-cc-pvtz', properties = ['dipole'])
--------------------------------------------------------------------------

    Molecular point group: c1
  Charge       = -1
  Multiplicity = 1
  Basis Set: AUG-CC-PVTZ
    Blend: AUG-CC-PVTZ
  Basis Set: (AUG-CC-PVTZ AUX)
    Blend: AUG-CC-PVTZ-JKFIT

    Orbital Energies [Eh]
    ---------------------

    Doubly Occupied:

       1A    -20.392680     2A    -20.315866     3A    -20.284710
       4A    -11.184394     5A     -1.239299     6A     -1.130821
       7A     -1.064335     8A     -0.576554     9A     -0.482690
      10A     -0.442080    11A     -0.417220    12A     -0.374063
      13A     -0.290434    14A     -0.248482    15A     -0.208438
      16A     -0.202236

  @DF-RHF Final Energy:  -263.19473709024919

   => Energetics <=

    Nuclear Repulsion Energy =            112.6098443459950147
    One-Electron Energy =                -593.9005591617977871
    Two-Electron Energy =                 218.0959777255535812
    Total Energy =                       -263.1947370902491912
  Basis Set: (AUG-CC-PVTZ AUX)
    Blend: AUG-CC-PVTZ-RI
    Molecular point group: c1

    Geometry (in Angstrom), charge = -1, multiplicity = 1:

       Center              X                  Y                   Z               Mass
    ------------   -----------------  -----------------  -----------------  -----------------
         O            1.026360925542    -0.788780757800     0.000052351287    15.994914619570
         O           -1.204043074458    -0.564349757800    -0.000092648713    15.994914619570
         O            0.132129925542     1.290610242200     0.000024351287    15.994914619570
         C           -0.088224674458     0.097060342200     0.000009551287    12.000000000000
         H            1.773422925542    -0.163438757800     0.000139351287     1.007825032230

  Basis Set: AUG-CC-PVTZ
    Blend: AUG-CC-PVTZ
  Basis Set: (AUG-CC-PVTZ AUX)
    Blend: AUG-CC-PVTZ-JKFIT
	 Reference Energy          =    -263.1947370902491912 [Eh]
	 Singles Energy            =      -0.0000000000000000 [Eh]
	 Same-Spin Energy          =      -0.2496813585870301 [Eh]
	 Opposite-Spin Energy      =      -0.7065326067123154 [Eh]
	 Correlation Energy        =      -0.9562139652993455 [Eh]
	 Total Energy              =    -264.1509510555485463 [Eh]

	 ================> DF-SCS-MP2 Energies <==================
	-----------------------------------------------------------
	 SCS Same-Spin Scale       =       0.3333333333333333 [-]
	 SCS Opposite-Spin Scale   =       1.2000000000000000 [-]
	 SCS Same-Spin Energy      =      -0.0832271195290100 [Eh]
	 SCS Opposite-Spin Energy  =      -0.8478391280547785 [Eh]
	 SCS Correlation Energy    =      -0.9310662475837885 [Eh]
	 SCS Total Energy          =    -264.1258033378329628 [Eh]
	-----------------------------------------------------------

  Dipole Moment: [D]
     X:     3.1312      Y:     0.1376      Z:     0.0003     Total:     3.1343

*** Psi4 exiting successfully. Buy a developer a beer!
