                               Psi4 1.3.2 release

  ==> Input File <==

--------------------------------------------------------------------------
#psi4
#
memory 32 gb

molecule  {
-1 1
  O        1.0038370    -0.7785270     0.0000510
  O       -1.2265670    -0.5540960    -0.0000940
  O        0.1096060     1.3008640     0.0000230
  C        0.0325506     0.1673013     0.0000197
  H        1.7508990    -0.1531850     0.0001380
units angstrom
no_reorient  #important for SAPT in psi4, default
symmetry c1  #important for SAPT in psi4, default
}

set PROPERTIES_ORIGIN ["COM"]
properties('MP2/aug-cc-pvtz', properties = ['dipole'])
--------------------------------------------------------------------------

    Molecular point group: c1
  Charge       = -1
  Multiplicity = 1
  Basis Set: AUG-CC-PVTZ
    Blend: AUG-CC-PVTZ
  Basis Set: (AUG-CC-PVTZ AUX)
    Blend: AUG-CC-PVTZ-JKFIT

    Orbital Energies [Eh]
    ---------------------

    Doubly Occupied:

       1A    -20.421108     2A    -20.341586     3A    -20.247998
       4A    -11.182349     5A     -1.288716     6A     -1.195149
       7A     -0.972385     8A     -0.595851     9A     -0.517831
      10A     -0.474607    11A     -0.448496    12A     -0.367139
      13A     -0.317593    14A     -0.229785    15A     -0.166792
      16A     -0.163305

  @DF-RHF Final Energy:  -263.13864809850389

   => Energetics <=

    Nuclear Repulsion Energy =            112.9820786252438296
    One-Electron Energy =                -594.3800740374446150
    Two-Electron Energy =                 218.2593473136968498
    Total Energy =                       -263.1386480985039498
  Basis Set: (AUG-CC-PVTZ AUX)
    Blend: AUG-CC-PVTZ-RI
    Molecular point group: c1

    Geometry (in Angstrom), charge = -1, multiplicity = 1:

       Center              X                  Y                   Z               Mass
    ------------   -----------------  -----------------  -----------------  -----------------
         O            0.998167484419    -0.800582956217     0.000050088716    15.994914619570
         O           -1.232236515581    -0.576151956217    -0.000094911284    15.994914619570
         O            0.103936484419     1.278808043783     0.000022088716    15.994914619570
         C            0.026881084419     0.145245343783     0.000018788716    12.000000000000
         H            1.745229484419    -0.175240956217     0.000137088716     1.007825032230

  Basis Set: AUG-CC-PVTZ
    Blend: AUG-CC-PVTZ
  Basis Set: (AUG-CC-PVTZ AUX)
    Blend: AUG-CC-PVTZ-JKFIT
	 Reference Energy          =    -263.1386480985038929 [Eh]
	 Singles Energy            =      -0.0000000000000000 [Eh]
	 Same-Spin Energy          =      -0.2505555610279111 [Eh]
	 Opposite-Spin Energy      =      -0.7089535000344113 [Eh]
	 Correlation Energy        =      -0.9595090610623224 [Eh]
	 Total Energy              =    -264.0981571595661990 [Eh]

	 ================> DF-SCS-MP2 Energies <==================
	-----------------------------------------------------------
	 SCS Same-Spin Scale       =       0.3333333333333333 [-]
	 SCS Opposite-Spin Scale   =       1.2000000000000000 [-]
	 SCS Same-Spin Energy      =      -0.0835185203426370 [Eh]
	 SCS Opposite-Spin Energy  =      -0.8507442000412935 [Eh]
	 SCS Correlation Energy    =      -0.9342627203839305 [Eh]
	 SCS Total Energy          =    -264.0729108188878058 [Eh]
	-----------------------------------------------------------

  Dipole Moment: [D]
     X:     4.8093      Y:     1.0003      Z:     0.0004     Total:     4.9123

*** Psi4 exiting successfully. Buy a developer a beer!
