                               Psi4 1.3.2 release

  ==> Input File <==

--------------------------------------------------------------------------
#psi4
#
memory 32 gb

molecule  {
-1 1
  O        1.0038370    -0.7785270     0.0000510
  O       -1.2265670    -0.5540960    -0.0000940
  O        0.1096060     1.3008640     0.0000230
  C       -0.1409850     0.0678760     0.0000040
  H        1.6742179    -0.2173723     0.0001291
units angstrom
no_reorient  #important for SAPT in psi4, default
symmetry c1  #important for SAPT in psi4, default
}

set PROPERTIES_ORIGIN ["COM"]
properties('MP2/aug-cc-pvtz', properties = ['dipole'])
--------------------------------------------------------------------------

    Molecular point group: c1
  Charge       = -1
  Multiplicity = 1
  Basis Set: AUG-CC-PVTZ
    Blend: AUG-CC-PVTZ
  Basis Set: (AUG-CC-PVTZ AUX)
    Blend: AUG-CC-PVTZ-JKFIT

    Orbital Energies [Eh]
    ---------------------

    Doubly Occupied:

       1A    -20.380619     2A    -20.304731     3A    -20.297181
       4A    -11.185805     5A     -1.247615     6A     -1.130468
       7A     -1.082773     8A     -0.601016     9A     -0.483473
      10A     -0.441554    11A     -0.416329    12A     -0.381007
      13A     -0.288663    14A     -0.247122    15A     -0.216187
      16A     -0.207902

  @DF-RHF Final Energy:  -263.19548338968622

   => Energetics <=

    Nuclear Repulsion Energy =            113.1774400718966547
    One-Electron Energy =                -594.9209607486370714
    Two-Electron Energy =                 218.5480372870542567
    Total Energy =                       -263.1954833896861601
  Basis Set: (AUG-CC-PVTZ AUX)
    Blend: AUG-CC-PVTZ-RI
    Molecular point group: c1

    Geometry (in Angstrom), charge = -1, multiplicity = 1:

       Center              X                  Y                   Z               Mass
    ------------   -----------------  -----------------  -----------------  -----------------
         O            1.033576852664    -0.779960883880     0.000053324678    15.994914619570
         O           -1.196827147336    -0.555529883880    -0.000091675322    15.994914619570
         O            0.139345852664     1.299430116120     0.000025324678    15.994914619570
         C           -0.111245147336     0.066442116120     0.000006324678    12.000000000000
         H            1.703957752664    -0.218806183880     0.000131424678     1.007825032230

  Basis Set: AUG-CC-PVTZ
    Blend: AUG-CC-PVTZ
  Basis Set: (AUG-CC-PVTZ AUX)
    Blend: AUG-CC-PVTZ-JKFIT
	 Reference Energy          =    -263.1954833896862169 [Eh]
	 Singles Energy            =      -0.0000000000000000 [Eh]
	 Same-Spin Energy          =      -0.2483288115379331 [Eh]
	 Opposite-Spin Energy      =      -0.7032365410643935 [Eh]
	 Correlation Energy        =      -0.9515653526023266 [Eh]
	 Total Energy              =    -264.1470487422885185 [Eh]

	 ================> DF-SCS-MP2 Energies <==================
	-----------------------------------------------------------
	 SCS Same-Spin Scale       =       0.3333333333333333 [-]
	 SCS Opposite-Spin Scale   =       1.2000000000000000 [-]
	 SCS Same-Spin Energy      =      -0.0827762705126444 [Eh]
	 SCS Opposite-Spin Energy  =      -0.8438838492772721 [Eh]
	 SCS Correlation Energy    =      -0.9266601197899165 [Eh]
	 SCS Total Energy          =    -264.1221435094761318 [Eh]
	-----------------------------------------------------------

  Dipole Moment: [D]
     X:     2.6828      Y:    -0.4098      Z:     0.0002     Total:     2.7140

*** Psi4 exiting successfully. Buy a developer a beer!
