                               Psi4 1.3.2 release

  ==> Input File <==

--------------------------------------------------------------------------
#psi4
#
memory 32 gb

molecule  {
-1 1
  O        0.9090923    -0.8935568     0.0000460
  O       -1.2265670    -0.5540960    -0.0000940
  O        0.1096060     1.3008640     0.0000230
  C       -0.1409850     0.0678760     0.0000040
  H        1.7508990    -0.1531850     0.0001380
units angstrom
no_reorient  #important for SAPT in psi4, default
symmetry c1  #important for SAPT in psi4, default
}

set PROPERTIES_ORIGIN ["COM"]
properties('MP2/aug-cc-pvtz', properties = ['dipole'])
--------------------------------------------------------------------------

    Molecular point group: c1
  Charge       = -1
  Multiplicity = 1
  Basis Set: AUG-CC-PVTZ
    Blend: AUG-CC-PVTZ
  Basis Set: (AUG-CC-PVTZ AUX)
    Blend: AUG-CC-PVTZ-JKFIT

    Orbital Energies [Eh]
    ---------------------

    Doubly Occupied:

       1A    -20.405646     2A    -20.311820     3A    -20.289354
       4A    -11.183975     5A     -1.224445     6A     -1.104565
       7A     -1.079692     8A     -0.550155     9A     -0.466421
      10A     -0.438256    11A     -0.414304    12A     -0.368548
      13A     -0.285466    14A     -0.247609    15A     -0.209821
      16A     -0.206987

  @DF-RHF Final Energy:  -263.17060155572460

   => Energetics <=

    Nuclear Repulsion Energy =            112.0906041104366864
    One-Electron Energy =                -592.9482825951788527
    Two-Electron Energy =                 217.6870769290175645
    Total Energy =                       -263.1706015557246019
  Basis Set: (AUG-CC-PVTZ AUX)
    Blend: AUG-CC-PVTZ-RI
    Molecular point group: c1

    Geometry (in Angstrom), charge = -1, multiplicity = 1:

       Center              X                  Y                   Z               Mass
    ------------   -----------------  -----------------  -----------------  -----------------
         O            0.962411291586    -0.865885461813     0.000049488835    15.994914619570
         O           -1.173248008414    -0.526424661813    -0.000090511165    15.994914619570
         O            0.162924991586     1.328535338187     0.000026488835    15.994914619570
         C           -0.087666008414     0.095547338187     0.000007488835    12.000000000000
         H            1.804217991586    -0.125513661813     0.000141488835     1.007825032230

  Basis Set: AUG-CC-PVTZ
    Blend: AUG-CC-PVTZ
  Basis Set: (AUG-CC-PVTZ AUX)
    Blend: AUG-CC-PVTZ-JKFIT
	 Reference Energy          =    -263.1706015557246019 [Eh]
	 Singles Energy            =      -0.0000000000000000 [Eh]
	 Same-Spin Energy          =      -0.2521288580969109 [Eh]
	 Opposite-Spin Energy      =      -0.7127231946863117 [Eh]
	 Correlation Energy        =      -0.9648520527832226 [Eh]
	 Total Energy              =    -264.1354536085078166 [Eh]

	 ================> DF-SCS-MP2 Energies <==================
	-----------------------------------------------------------
	 SCS Same-Spin Scale       =       0.3333333333333333 [-]
	 SCS Opposite-Spin Scale   =       1.2000000000000000 [-]
	 SCS Same-Spin Energy      =      -0.0840429526989703 [Eh]
	 SCS Opposite-Spin Energy  =      -0.8552678336235741 [Eh]
	 SCS Correlation Energy    =      -0.9393107863225444 [Eh]
	 SCS Total Energy          =    -264.1099123420471528 [Eh]
	-----------------------------------------------------------

  Dipole Moment: [D]
     X:     2.7287      Y:    -0.2978      Z:     0.0002     Total:     2.7449

*** Psi4 exiting successfully. Buy a developer a beer!
