                               Psi4 1.4a3.dev225

  ==> Input File <==

--------------------------------------------------------------------------
#psi4
#
memory 32 gb

molecule  {
-1 1
  O        1.0038370    -0.7785270     0.0000510
  O       -1.2265670    -0.5540960    -0.0000940
  O        0.1096060     1.3008640     0.0000230
  C       -0.1310266     0.1168743     0.0000048
  H        1.7508990    -0.1531850     0.0001380
units angstrom
no_reorient  #important for SAPT in psi4, default
symmetry c1  #important for SAPT in psi4, default
}

set PROPERTIES_ORIGIN ["COM"]
properties('MP2/aug-cc-pvtz', properties = ['dipole'])
--------------------------------------------------------------------------

    Molecular point group: c1
  Charge       = -1
  Multiplicity = 1
  Basis Set: AUG-CC-PVTZ
    Blend: AUG-CC-PVTZ
  Basis Set: (AUG-CC-PVTZ AUX)
    Blend: AUG-CC-PVTZ-JKFIT

    Orbital Energies [Eh]
    ---------------------

    Doubly Occupied:

       1A    -20.385405     2A    -20.317142     3A    -20.288103
       4A    -11.184225     5A     -1.235717     6A     -1.127418
       7A     -1.073327     8A     -0.568960     9A     -0.479788
      10A     -0.441086    11A     -0.414812    12A     -0.378572
      13A     -0.289120    14A     -0.247115    15A     -0.212925
      16A     -0.206564

  @DF-RHF Final Energy:  -263.19577052434147

   => Energetics <=

    Nuclear Repulsion Energy =            112.6066160681157982
    One-Electron Energy =                -593.9042168452012902
    Two-Electron Energy =                 218.1018302527440369
    Total Energy =                       -263.1957705243414694
  Basis Set: (AUG-CC-PVTZ AUX)
    Blend: AUG-CC-PVTZ-RI
    Molecular point group: c1

    Geometry (in Angstrom), charge = -1, multiplicity = 1:

       Center              X                  Y                   Z               Mass
    ------------   -----------------  -----------------  -----------------  -----------------
         O            1.030350526315    -0.790661682019     0.000053020220    15.994914619570
         O           -1.200053473685    -0.566230682019    -0.000091979780    15.994914619570
         O            0.136119526315     1.288729317981     0.000025020220    15.994914619570
         C           -0.104513073685     0.104739617981     0.000006820220    12.000000000000
         H            1.777412526315    -0.165319682019     0.000140020220     1.007825032230

  Basis Set: AUG-CC-PVTZ
    Blend: AUG-CC-PVTZ
  Basis Set: (AUG-CC-PVTZ AUX)
    Blend: AUG-CC-PVTZ-JKFIT
	 Reference Energy          =    -263.1957705243414694 [Eh]
	 Singles Energy            =      -0.0000000000000000 [Eh]
	 Same-Spin Energy          =      -0.2496470324883640 [Eh]
	 Opposite-Spin Energy      =      -0.7064873195215624 [Eh]
	 Correlation Energy        =      -0.9561343520099264 [Eh]
	 Total Energy              =    -264.1519048763514093 [Eh]

	 ================> DF-SCS-MP2 Energies <==================
	-----------------------------------------------------------
	 SCS Same-Spin Scale       =       0.3333333333333333 [-]
	 SCS Opposite-Spin Scale   =       1.2000000000000000 [-]
	 SCS Same-Spin Energy      =      -0.0832156774961213 [Eh]
	 SCS Opposite-Spin Energy  =      -0.8477847834258748 [Eh]
	 SCS Correlation Energy    =      -0.9310004609219962 [Eh]
	 SCS Total Energy          =    -264.1267709852634766 [Eh]
	-----------------------------------------------------------

  Dipole Moment: [D]
     X:     2.8996      Y:     0.2330      Z:     0.0003     Total:     2.9090

*** Psi4 exiting successfully. Buy a developer a beer!
