                               Psi4 1.4a3.dev225

  ==> Input File <==

--------------------------------------------------------------------------
#psi4
#
memory 32 gb

molecule  {
-1 1
  O        1.0038370    -0.7785270     0.0000510
  O       -1.2265670    -0.5540960    -0.0000940
  O        0.1096060     1.3008640     0.0000230
  C       -0.1509434     0.0188777     0.0000032
  H        1.7508990    -0.1531850     0.0001380
units angstrom
no_reorient  #important for SAPT in psi4, default
symmetry c1  #important for SAPT in psi4, default
}

set PROPERTIES_ORIGIN ["COM"]
properties('MP2/aug-cc-pvtz', properties = ['dipole'])
--------------------------------------------------------------------------

    Molecular point group: c1
  Charge       = -1
  Multiplicity = 1
  Basis Set: AUG-CC-PVTZ
    Blend: AUG-CC-PVTZ
  Basis Set: (AUG-CC-PVTZ AUX)
    Blend: AUG-CC-PVTZ-JKFIT

    Orbital Energies [Eh]
    ---------------------

    Doubly Occupied:

       1A    -20.394573     2A    -20.306202     3A    -20.290364
       4A    -11.184307     5A     -1.237575     6A     -1.130341
       7A     -1.060129     8A     -0.591427     9A     -0.471847
      10A     -0.444837    11A     -0.417482    12A     -0.371866
      13A     -0.286765    14A     -0.246240    15A     -0.208611
      16A     -0.203111

  @DF-RHF Final Energy:  -263.19693646589786

   => Energetics <=

    Nuclear Repulsion Energy =            112.5911031896930012
    One-Electron Energy =                -593.8847272356562144
    Two-Electron Energy =                 218.0966875800653781
    Total Energy =                       -263.1969364658978066
  Basis Set: (AUG-CC-PVTZ AUX)
    Blend: AUG-CC-PVTZ-RI
    Molecular point group: c1

    Geometry (in Angstrom), charge = -1, multiplicity = 1:

       Center              X                  Y                   Z               Mass
    ------------   -----------------  -----------------  -----------------  -----------------
         O            1.034269062693    -0.771381313585     0.000053335013    15.994914619570
         O           -1.196134937307    -0.546950313585    -0.000091664987    15.994914619570
         O            0.140038062693     1.308009686415     0.000025335013    15.994914619570
         C           -0.120511337307     0.026023386415     0.000005535013    12.000000000000
         H            1.781331062693    -0.146039313585     0.000140335013     1.007825032230

  Basis Set: AUG-CC-PVTZ
    Blend: AUG-CC-PVTZ
  Basis Set: (AUG-CC-PVTZ AUX)
    Blend: AUG-CC-PVTZ-JKFIT
	 Reference Energy          =    -263.1969364658978634 [Eh]
	 Singles Energy            =      -0.0000000000000000 [Eh]
	 Same-Spin Energy          =      -0.2494117165238000 [Eh]
	 Opposite-Spin Energy      =      -0.7058913257613604 [Eh]
	 Correlation Energy        =      -0.9553030422851604 [Eh]
	 Total Energy              =    -264.1522395081830155 [Eh]

	 ================> DF-SCS-MP2 Energies <==================
	-----------------------------------------------------------
	 SCS Same-Spin Scale       =       0.3333333333333333 [-]
	 SCS Opposite-Spin Scale   =       1.2000000000000000 [-]
	 SCS Same-Spin Energy      =      -0.0831372388412667 [Eh]
	 SCS Opposite-Spin Energy  =      -0.8470695909136324 [Eh]
	 SCS Correlation Energy    =      -0.9302068297548991 [Eh]
	 SCS Total Energy          =    -264.1271432956527860 [Eh]
	-----------------------------------------------------------

  Dipole Moment: [D]
     X:     2.5653      Y:    -0.9589      Z:     0.0002     Total:     2.7387

*** Psi4 exiting successfully. Buy a developer a beer!
