                               Psi4 1.3.2 release

  ==> Input File <==

--------------------------------------------------------------------------
#psi4
#
memory 32 gb

molecule  {
-1 1
  O        1.0038370    -0.7785270     0.0000510
  O       -1.2372566    -0.5350553    -0.0000950
  O        0.1096060     1.3008640     0.0000230
  C       -0.1409850     0.0678760     0.0000040
  H        1.7508990    -0.1531850     0.0001380
units angstrom
no_reorient  #important for SAPT in psi4, default
symmetry c1  #important for SAPT in psi4, default
}

set PROPERTIES_ORIGIN ["COM"]
properties('MP2/aug-cc-pvtz', properties = ['dipole'])
--------------------------------------------------------------------------

    Molecular point group: c1
  Charge       = -1
  Multiplicity = 1
  Basis Set: AUG-CC-PVTZ
    Blend: AUG-CC-PVTZ
  Basis Set: (AUG-CC-PVTZ AUX)
    Blend: AUG-CC-PVTZ-JKFIT

    Orbital Energies [Eh]
    ---------------------

    Doubly Occupied:

       1A    -20.391797     2A    -20.302094     3A    -20.297000
       4A    -11.184542     5A     -1.232487     6A     -1.117467
       7A     -1.080423     8A     -0.580682     9A     -0.474350
      10A     -0.440579    11A     -0.414264    12A     -0.375909
      13A     -0.286552    14A     -0.246541    15A     -0.213297
      16A     -0.206574

  @DF-RHF Final Energy:  -263.20004913878034

   => Energetics <=

    Nuclear Repulsion Energy =            112.5386327860697833
    One-Electron Energy =                -593.7882463109267519
    Two-Electron Energy =                 218.0495643860766108
    Total Energy =                       -263.2000491387803436
  Basis Set: (AUG-CC-PVTZ AUX)
    Blend: AUG-CC-PVTZ-RI
    Molecular point group: c1

    Geometry (in Angstrom), charge = -1, multiplicity = 1:

       Center              X                  Y                   Z               Mass
    ------------   -----------------  -----------------  -----------------  -----------------
         O            1.035113074353    -0.786014800697     0.000053439860    15.994914619570
         O           -1.205980525647    -0.542543100697    -0.000092560140    15.994914619570
         O            0.140882074353     1.293376199303     0.000025439860    15.994914619570
         C           -0.109708925647     0.060388199303     0.000006439860    12.000000000000
         H            1.782175074353    -0.160672800697     0.000140439860     1.007825032230

  Basis Set: AUG-CC-PVTZ
    Blend: AUG-CC-PVTZ
  Basis Set: (AUG-CC-PVTZ AUX)
    Blend: AUG-CC-PVTZ-JKFIT
	 Reference Energy          =    -263.2000491387803436 [Eh]
	 Singles Energy            =      -0.0000000000000000 [Eh]
	 Same-Spin Energy          =      -0.2495061178084471 [Eh]
	 Opposite-Spin Energy      =      -0.7060960216240535 [Eh]
	 Correlation Energy        =      -0.9556021394325006 [Eh]
	 Total Energy              =    -264.1556512782128721 [Eh]

	 ================> DF-SCS-MP2 Energies <==================
	-----------------------------------------------------------
	 SCS Same-Spin Scale       =       0.3333333333333333 [-]
	 SCS Opposite-Spin Scale   =       1.2000000000000000 [-]
	 SCS Same-Spin Energy      =      -0.0831687059361490 [Eh]
	 SCS Opposite-Spin Energy  =      -0.8473152259488642 [Eh]
	 SCS Correlation Energy    =      -0.9304839318850132 [Eh]
	 SCS Total Energy          =    -264.1305330706653649 [Eh]
	-----------------------------------------------------------

  Dipole Moment: [D]
     X:     2.7568      Y:    -0.4053      Z:     0.0002     Total:     2.7865

*** Psi4 exiting successfully. Buy a developer a beer!
