                               Psi4 1.3.2 release

  ==> Input File <==

--------------------------------------------------------------------------
#psi4
#
memory 32 gb

molecule  {
-1 1
  O        1.0038370    -0.7785270     0.0000510
  O       -1.2155468    -0.5729473    -0.0000929
  O        0.1096060     1.3008640     0.0000230
  C       -0.1409850     0.0678760     0.0000040
  H        1.7508990    -0.1531850     0.0001380
units angstrom
no_reorient  #important for SAPT in psi4, default
symmetry c1  #important for SAPT in psi4, default
}

set PROPERTIES_ORIGIN ["COM"]
properties('MP2/aug-cc-pvtz', properties = ['dipole'])
--------------------------------------------------------------------------

    Molecular point group: c1
  Charge       = -1
  Multiplicity = 1
  Basis Set: AUG-CC-PVTZ
    Blend: AUG-CC-PVTZ
  Basis Set: (AUG-CC-PVTZ AUX)
    Blend: AUG-CC-PVTZ-JKFIT

    Orbital Energies [Eh]
    ---------------------

    Doubly Occupied:

       1A    -20.388852     2A    -20.304790     3A    -20.297186
       4A    -11.184941     5A     -1.232290     6A     -1.114725
       7A     -1.083785     8A     -0.578973     9A     -0.474527
      10A     -0.439502    11A     -0.413954    12A     -0.376647
      13A     -0.285049    14A     -0.245480    15A     -0.215619
      16A     -0.208415

  @DF-RHF Final Energy:  -263.19996946692351

   => Energetics <=

    Nuclear Repulsion Energy =            112.6004988954796318
    One-Electron Energy =                -593.9114711053160818
    Two-Electron Energy =                 218.1110027429129730
    Total Energy =                       -263.1999694669234486
  Basis Set: (AUG-CC-PVTZ AUX)
    Blend: AUG-CC-PVTZ-RI
    Molecular point group: c1

    Geometry (in Angstrom), charge = -1, multiplicity = 1:

       Center              X                  Y                   Z               Mass
    ------------   -----------------  -----------------  -----------------  -----------------
         O            1.029419816900    -0.776077863857     0.000052889149    15.994914619570
         O           -1.189963983100    -0.570498163857    -0.000091010851    15.994914619570
         O            0.135188816900     1.303313136143     0.000024889149    15.994914619570
         C           -0.115402183100     0.070325136143     0.000005889149    12.000000000000
         H            1.776481816900    -0.150735863857     0.000139889149     1.007825032230

  Basis Set: AUG-CC-PVTZ
    Blend: AUG-CC-PVTZ
  Basis Set: (AUG-CC-PVTZ AUX)
    Blend: AUG-CC-PVTZ-JKFIT
	 Reference Energy          =    -263.1999694669235055 [Eh]
	 Singles Energy            =      -0.0000000000000000 [Eh]
	 Same-Spin Energy          =      -0.2495864164886959 [Eh]
	 Opposite-Spin Energy      =      -0.7062395270569894 [Eh]
	 Correlation Energy        =      -0.9558259435456853 [Eh]
	 Total Energy              =    -264.1557954104691817 [Eh]

	 ================> DF-SCS-MP2 Energies <==================
	-----------------------------------------------------------
	 SCS Same-Spin Scale       =       0.3333333333333333 [-]
	 SCS Opposite-Spin Scale   =       1.2000000000000000 [-]
	 SCS Same-Spin Energy      =      -0.0831954721628986 [Eh]
	 SCS Opposite-Spin Energy  =      -0.8474874324683873 [Eh]
	 SCS Correlation Energy    =      -0.9306829046312859 [Eh]
	 SCS Total Energy          =    -264.1306523715547883 [Eh]
	-----------------------------------------------------------

  Dipole Moment: [D]
     X:     2.7112      Y:    -0.3279      Z:     0.0002     Total:     2.7309

*** Psi4 exiting successfully. Buy a developer a beer!
