                               Psi4 1.3.2 release

  ==> Input File <==

--------------------------------------------------------------------------
#psi4
#
memory 32 gb

molecule  {
-1 1
  O        1.0038370    -0.7785270     0.0000510
  O       -1.2265670    -0.5540960    -0.0000940
  O        0.1096060     1.3008640     0.0000230
  C       -0.0791542     0.1456730     0.0000124
  H        1.7508990    -0.1531850     0.0001380
units angstrom
no_reorient  #important for SAPT in psi4, default
symmetry c1  #important for SAPT in psi4, default
}

set PROPERTIES_ORIGIN ["COM"]
properties('MP2/aug-cc-pvtz', properties = ['dipole'])
--------------------------------------------------------------------------

    Molecular point group: c1
  Charge       = -1
  Multiplicity = 1
  Basis Set: AUG-CC-PVTZ
    Blend: AUG-CC-PVTZ
  Basis Set: (AUG-CC-PVTZ AUX)
    Blend: AUG-CC-PVTZ-JKFIT

    Orbital Energies [Eh]
    ---------------------

    Doubly Occupied:

       1A    -20.394985     2A    -20.328241     3A    -20.272640
       4A    -11.182883     5A     -1.254549     6A     -1.151842
       7A     -1.035362     8A     -0.573965     9A     -0.492490
      10A     -0.451045    11A     -0.424309    12A     -0.371245
      13A     -0.299005    14A     -0.248987    15A     -0.197036
      16A     -0.192336

  @DF-RHF Final Energy:  -263.18102570927692

   => Energetics <=

    Nuclear Repulsion Energy =            112.7230656067408319
    One-Electron Energy =                -594.0663445410667691
    Two-Electron Energy =                 218.1622532250490565
    Total Energy =                       -263.1810257092769234
  Basis Set: (AUG-CC-PVTZ AUX)
    Blend: AUG-CC-PVTZ-RI
    Molecular point group: c1

    Geometry (in Angstrom), charge = -1, multiplicity = 1:

       Center              X                  Y                   Z               Mass
    ------------   -----------------  -----------------  -----------------  -----------------
         O            1.020144876491    -0.796327690294     0.000051524956    15.994914619570
         O           -1.210259123509    -0.571896690294    -0.000093475044    15.994914619570
         O            0.125913876491     1.283063309706     0.000023524956    15.994914619570
         C           -0.062846323509     0.127872309706     0.000012924956    12.000000000000
         H            1.767206876491    -0.170985690294     0.000138524956     1.007825032230

  Basis Set: AUG-CC-PVTZ
    Blend: AUG-CC-PVTZ
  Basis Set: (AUG-CC-PVTZ AUX)
    Blend: AUG-CC-PVTZ-JKFIT
	 Reference Energy          =    -263.1810257092769234 [Eh]
	 Singles Energy            =      -0.0000000000000000 [Eh]
	 Same-Spin Energy          =      -0.2497689577185424 [Eh]
	 Opposite-Spin Energy      =      -0.7069346315149466 [Eh]
	 Correlation Energy        =      -0.9567035892334890 [Eh]
	 Total Energy              =    -264.1377292985104077 [Eh]

	 ================> DF-SCS-MP2 Energies <==================
	-----------------------------------------------------------
	 SCS Same-Spin Scale       =       0.3333333333333333 [-]
	 SCS Opposite-Spin Scale   =       1.2000000000000000 [-]
	 SCS Same-Spin Energy      =      -0.0832563192395141 [Eh]
	 SCS Opposite-Spin Energy  =      -0.8483215578179359 [Eh]
	 SCS Correlation Energy    =      -0.9315778770574501 [Eh]
	 SCS Total Energy          =    -264.1126035863343873 [Eh]
	-----------------------------------------------------------

  Dipole Moment: [D]
     X:     3.5386      Y:     0.6319      Z:     0.0003     Total:     3.5946

*** Psi4 exiting successfully. Buy a developer a beer!
