                               Psi4 1.3.2 release

  ==> Input File <==

--------------------------------------------------------------------------
#psi4
#
memory 32 gb

molecule  {
-1 1
  O        0.9420062    -0.8563240     0.0000477
  O       -1.2265670    -0.5540960    -0.0000940
  O        0.1096060     1.3008640     0.0000230
  C       -0.1409850     0.0678760     0.0000040
  H        1.7508990    -0.1531850     0.0001380
units angstrom
no_reorient  #important for SAPT in psi4, default
symmetry c1  #important for SAPT in psi4, default
}

set PROPERTIES_ORIGIN ["COM"]
properties('MP2/aug-cc-pvtz', properties = ['dipole'])
--------------------------------------------------------------------------

    Molecular point group: c1
  Charge       = -1
  Multiplicity = 1
  Basis Set: AUG-CC-PVTZ
    Blend: AUG-CC-PVTZ
  Basis Set: (AUG-CC-PVTZ AUX)
    Blend: AUG-CC-PVTZ-JKFIT

    Orbital Energies [Eh]
    ---------------------

    Doubly Occupied:

       1A    -20.401006     2A    -20.308994     3A    -20.291762
       4A    -11.183930     5A     -1.226195     6A     -1.106658
       7A     -1.081697     8A     -0.557585     9A     -0.469965
      10A     -0.438709    11A     -0.414040    12A     -0.371909
      13A     -0.285339    14A     -0.246949    15A     -0.211878
      16A     -0.207195

  @DF-RHF Final Energy:  -263.18391962900427

   => Energetics <=

    Nuclear Repulsion Energy =            112.2168286680283416
    One-Electron Energy =                -593.1938718253660454
    Two-Electron Energy =                 217.7931235283334104
    Total Energy =                       -263.1839196290042651
  Basis Set: (AUG-CC-PVTZ AUX)
    Blend: AUG-CC-PVTZ-RI
    Molecular point group: c1

    Geometry (in Angstrom), charge = -1, multiplicity = 1:

       Center              X                  Y                   Z               Mass
    ------------   -----------------  -----------------  -----------------  -----------------
         O            0.986693729919    -0.838416727631     0.000050743021    15.994914619570
         O           -1.181879470081    -0.536188727631    -0.000090956979    15.994914619570
         O            0.154293529919     1.318771272369     0.000026043021    15.994914619570
         C           -0.096297470081     0.085783272369     0.000007043021    12.000000000000
         H            1.795586529919    -0.135277727631     0.000141043021     1.007825032230

  Basis Set: AUG-CC-PVTZ
    Blend: AUG-CC-PVTZ
  Basis Set: (AUG-CC-PVTZ AUX)
    Blend: AUG-CC-PVTZ-JKFIT
	 Reference Energy          =    -263.1839196290042651 [Eh]
	 Singles Energy            =      -0.0000000000000000 [Eh]
	 Same-Spin Energy          =      -0.2512112182337827 [Eh]
	 Opposite-Spin Energy      =      -0.7103211734257653 [Eh]
	 Correlation Energy        =      -0.9615323916595480 [Eh]
	 Total Energy              =    -264.1454520206638108 [Eh]

	 ================> DF-SCS-MP2 Energies <==================
	-----------------------------------------------------------
	 SCS Same-Spin Scale       =       0.3333333333333333 [-]
	 SCS Opposite-Spin Scale   =       1.2000000000000000 [-]
	 SCS Same-Spin Energy      =      -0.0837370727445942 [Eh]
	 SCS Opposite-Spin Energy  =      -0.8523854081109183 [Eh]
	 SCS Correlation Energy    =      -0.9361224808555126 [Eh]
	 SCS Total Energy          =    -264.1200421098597531 [Eh]
	-----------------------------------------------------------

  Dipole Moment: [D]
     X:     2.7446      Y:    -0.3206      Z:     0.0002     Total:     2.7632

*** Psi4 exiting successfully. Buy a developer a beer!
