                               Psi4 1.3.2 release

  ==> Input File <==

--------------------------------------------------------------------------
#psi4
#
memory 32 gb

molecule  {
-1 1
  O        1.0038370    -0.7785270     0.0000510
  O       -1.2265670    -0.5540960    -0.0000940
  O        0.1096060     1.3008640     0.0000230
  C       -0.1409850     0.0678760     0.0000040
  H        1.7508990    -0.1531850     0.0001380
units angstrom
no_reorient  #important for SAPT in psi4, default
symmetry c1  #important for SAPT in psi4, default
}

set PROPERTIES_ORIGIN ["COM"]
properties('MP2/aug-cc-pvtz', properties = ['dipole'])
--------------------------------------------------------------------------

    Molecular point group: c1
  Charge       = -1
  Multiplicity = 1
  Basis Set: AUG-CC-PVTZ
    Blend: AUG-CC-PVTZ
  Basis Set: (AUG-CC-PVTZ AUX)
    Blend: AUG-CC-PVTZ-JKFIT

    Orbital Energies [Eh]
    ---------------------

    Doubly Occupied:

       1A    -20.390336     2A    -20.303448     3A    -20.297105
       4A    -11.184740     5A     -1.232378     6A     -1.116098
       7A     -1.082128     8A     -0.579829     9A     -0.474430
      10A     -0.440053    11A     -0.414104    12A     -0.376291
      13A     -0.285809    14A     -0.246019    15A     -0.214500
      16A     -0.207510

  @DF-RHF Final Energy:  -263.20010850303339

   => Energetics <=

    Nuclear Repulsion Energy =            112.5676552935692314
    One-Electron Energy =                -593.8459735817318688
    Two-Electron Energy =                 218.0782097851292178
    Total Energy =                       -263.2001085030333911
  Basis Set: (AUG-CC-PVTZ AUX)
    Blend: AUG-CC-PVTZ-RI
    Molecular point group: c1

    Geometry (in Angstrom), charge = -1, multiplicity = 1:

       Center              X                  Y                   Z               Mass
    ------------   -----------------  -----------------  -----------------  -----------------
         O            1.032309794504    -0.781021497802     0.000053177617    15.994914619570
         O           -1.198094205496    -0.556590497802    -0.000091822383    15.994914619570
         O            0.138078794504     1.298369502198     0.000025177617    15.994914619570
         C           -0.112512205496     0.065381502198     0.000006177617    12.000000000000
         H            1.779371794504    -0.155679497802     0.000140177617     1.007825032230

  Basis Set: AUG-CC-PVTZ
    Blend: AUG-CC-PVTZ
  Basis Set: (AUG-CC-PVTZ AUX)
    Blend: AUG-CC-PVTZ-JKFIT
	 Reference Energy          =    -263.2001085030333911 [Eh]
	 Singles Energy            =      -0.0000000000000000 [Eh]
	 Same-Spin Energy          =      -0.2495424260855643 [Eh]
	 Opposite-Spin Energy      =      -0.7061600901878451 [Eh]
	 Correlation Energy        =      -0.9557025162734094 [Eh]
	 Total Energy              =    -264.1558110193067819 [Eh]

	 ================> DF-SCS-MP2 Energies <==================
	-----------------------------------------------------------
	 SCS Same-Spin Scale       =       0.3333333333333333 [-]
	 SCS Opposite-Spin Scale   =       1.2000000000000000 [-]
	 SCS Same-Spin Energy      =      -0.0831808086951881 [Eh]
	 SCS Opposite-Spin Energy  =      -0.8473921082254141 [Eh]
	 SCS Correlation Energy    =      -0.9305729169206022 [Eh]
	 SCS Total Energy          =    -264.1306814199539872 [Eh]
	-----------------------------------------------------------

  Dipole Moment: [D]
     X:     2.7344      Y:    -0.3665      Z:     0.0002     Total:     2.7589

*** Psi4 exiting successfully. Buy a developer a beer!
