                               Psi4 1.3.2 release

  ==> Input File <==

--------------------------------------------------------------------------
#psi4
#
memory 32 gb

molecule  {
-1 1
  O        1.0038370    -0.7785270     0.0000510
  O       -1.2476122    -0.5158308    -0.0000961
  O        0.1096060     1.3008640     0.0000230
  C       -0.1409850     0.0678760     0.0000040
  H        1.7508990    -0.1531850     0.0001380
units angstrom
no_reorient  #important for SAPT in psi4, default
symmetry c1  #important for SAPT in psi4, default
}

set PROPERTIES_ORIGIN ["COM"]
properties('MP2/aug-cc-pvtz', properties = ['dipole'])
--------------------------------------------------------------------------

    Molecular point group: c1
  Charge       = -1
  Multiplicity = 1
  Basis Set: AUG-CC-PVTZ
    Blend: AUG-CC-PVTZ
  Basis Set: (AUG-CC-PVTZ AUX)
    Blend: AUG-CC-PVTZ-JKFIT

    Orbital Energies [Eh]
    ---------------------

    Doubly Occupied:

       1A    -20.393238     2A    -20.300727     3A    -20.296872
       4A    -11.184346     5A     -1.232615     6A     -1.118830
       7A     -1.078675     8A     -0.581530     9A     -0.474288
      10A     -0.441079    11A     -0.414434    12A     -0.375499
      13A     -0.287279    14A     -0.247046    15A     -0.212012
      16A     -0.205607

  @DF-RHF Final Energy:  -263.19979292519406

   => Energetics <=

    Nuclear Repulsion Energy =            112.5134165706053722
    One-Electron Energy =                -593.7382640647833796
    Two-Electron Energy =                 218.0250545689839328
    Total Energy =                       -263.1997929251940604
  Basis Set: (AUG-CC-PVTZ AUX)
    Blend: AUG-CC-PVTZ-RI
    Molecular point group: c1

    Geometry (in Angstrom), charge = -1, multiplicity = 1:

       Center              X                  Y                   Z               Mass
    ------------   -----------------  -----------------  -----------------  -----------------
         O            1.037828764819    -0.791056303976     0.000053728328    15.994914619570
         O           -1.213620435181    -0.528360103976    -0.000093371672    15.994914619570
         O            0.143597764819     1.288334696024     0.000025728328    15.994914619570
         C           -0.106993235181     0.055346696024     0.000006728328    12.000000000000
         H            1.784890764819    -0.165714303976     0.000140728328     1.007825032230

  Basis Set: AUG-CC-PVTZ
    Blend: AUG-CC-PVTZ
  Basis Set: (AUG-CC-PVTZ AUX)
    Blend: AUG-CC-PVTZ-JKFIT
	 Reference Energy          =    -263.1997929251940604 [Eh]
	 Singles Energy            =      -0.0000000000000000 [Eh]
	 Same-Spin Energy          =      -0.2494774273321786 [Eh]
	 Opposite-Spin Energy      =      -0.7060473349874390 [Eh]
	 Correlation Energy        =      -0.9555247623196176 [Eh]
	 Total Energy              =    -264.1553176875136728 [Eh]

	 ================> DF-SCS-MP2 Energies <==================
	-----------------------------------------------------------
	 SCS Same-Spin Scale       =       0.3333333333333333 [-]
	 SCS Opposite-Spin Scale   =       1.2000000000000000 [-]
	 SCS Same-Spin Energy      =      -0.0831591424440595 [Eh]
	 SCS Opposite-Spin Energy  =      -0.8472568019849268 [Eh]
	 SCS Correlation Energy    =      -0.9304159444289863 [Eh]
	 SCS Total Energy          =    -264.1302088696230612 [Eh]
	-----------------------------------------------------------

  Dipole Moment: [D]
     X:     2.7784      Y:    -0.4445      Z:     0.0002     Total:     2.8137

*** Psi4 exiting successfully. Buy a developer a beer!
