                               Psi4 1.3.2 release

  ==> Input File <==

--------------------------------------------------------------------------
#psi4
#
memory 32 gb

molecule  {
-1 1
  O        1.0038370    -0.7785270     0.0000510
  O       -1.2265670    -0.5540960    -0.0000940
  O        0.1096060     1.3008640     0.0000230
  C       -0.1210683     0.1658726     0.0000055
  H        1.7508990    -0.1531850     0.0001380
units angstrom
no_reorient  #important for SAPT in psi4, default
symmetry c1  #important for SAPT in psi4, default
}

set PROPERTIES_ORIGIN ["COM"]
properties('MP2/aug-cc-pvtz', properties = ['dipole'])
--------------------------------------------------------------------------

    Molecular point group: c1
  Charge       = -1
  Multiplicity = 1
  Basis Set: AUG-CC-PVTZ
    Blend: AUG-CC-PVTZ
  Basis Set: (AUG-CC-PVTZ AUX)
    Blend: AUG-CC-PVTZ-JKFIT

    Orbital Energies [Eh]
    ---------------------

    Doubly Occupied:

       1A    -20.379656     2A    -20.331319     3A    -20.279414
       4A    -11.182618     5A     -1.253941     6A     -1.139570
       7A     -1.052212     8A     -0.560116     9A     -0.487337
      10A     -0.447807    11A     -0.421521    12A     -0.378716
      13A     -0.293944    14A     -0.247832    15A     -0.205493
      16A     -0.201405

  @DF-RHF Final Energy:  -263.18250605985304

   => Energetics <=

    Nuclear Repulsion Energy =            112.7201059675937529
    One-Electron Energy =                -594.0794235839824751
    Two-Electron Energy =                 218.1768115565356254
    Total Energy =                       -263.1825060598530399
  Basis Set: (AUG-CC-PVTZ AUX)
    Blend: AUG-CC-PVTZ-RI
    Molecular point group: c1

    Geometry (in Angstrom), charge = -1, multiplicity = 1:

       Center              X                  Y                   Z               Mass
    ------------   -----------------  -----------------  -----------------  -----------------
         O            1.028391277801    -0.800301866237     0.000052882499    15.994914619570
         O           -1.202012722199    -0.575870866237    -0.000092117501    15.994914619570
         O            0.134160277801     1.279089133763     0.000024882499    15.994914619570
         C           -0.096514022199     0.144097733763     0.000007382499    12.000000000000
         H            1.775453277801    -0.174959866237     0.000139882499     1.007825032230

  Basis Set: AUG-CC-PVTZ
    Blend: AUG-CC-PVTZ
  Basis Set: (AUG-CC-PVTZ AUX)
    Blend: AUG-CC-PVTZ-JKFIT
	 Reference Energy          =    -263.1825060598530399 [Eh]
	 Singles Energy            =      -0.0000000000000000 [Eh]
	 Same-Spin Energy          =      -0.2496943464805690 [Eh]
	 Opposite-Spin Energy      =      -0.7068045258888276 [Eh]
	 Correlation Energy        =      -0.9564988723693966 [Eh]
	 Total Energy              =    -264.1390049322224627 [Eh]

	 ================> DF-SCS-MP2 Energies <==================
	-----------------------------------------------------------
	 SCS Same-Spin Scale       =       0.3333333333333333 [-]
	 SCS Opposite-Spin Scale   =       1.2000000000000000 [-]
	 SCS Same-Spin Energy      =      -0.0832314488268563 [Eh]
	 SCS Opposite-Spin Energy  =      -0.8481654310665930 [Eh]
	 SCS Correlation Energy    =      -0.9313968798934493 [Eh]
	 SCS Total Energy          =    -264.1139029397464810 [Eh]
	-----------------------------------------------------------

  Dipole Moment: [D]
     X:     3.0608      Y:     0.8420      Z:     0.0003     Total:     3.1746

*** Psi4 exiting successfully. Buy a developer a beer!
