                               Psi4 1.3.2 release

  ==> Input File <==

--------------------------------------------------------------------------
#psi4
#
memory 32 gb

molecule  {
-1 1
  O        1.0038370    -0.7785270     0.0000510
  O       -1.2265670    -0.5540960    -0.0000940
  O        0.1096060     1.3008640     0.0000230
  C       -0.1698266     0.0274067    -0.0000001
  H        1.7508990    -0.1531850     0.0001380
units angstrom
no_reorient  #important for SAPT in psi4, default
symmetry c1  #important for SAPT in psi4, default
}

set PROPERTIES_ORIGIN ["COM"]
properties('MP2/aug-cc-pvtz', properties = ['dipole'])
--------------------------------------------------------------------------

    Molecular point group: c1
  Charge       = -1
  Multiplicity = 1
  Basis Set: AUG-CC-PVTZ
    Blend: AUG-CC-PVTZ
  Basis Set: (AUG-CC-PVTZ AUX)
    Blend: AUG-CC-PVTZ-JKFIT

    Orbital Energies [Eh]
    ---------------------

    Doubly Occupied:

       1A    -20.387951     2A    -20.309579     3A    -20.291206
       4A    -11.183842     5A     -1.234062     6A     -1.132376
       7A     -1.063846     8A     -0.583619     9A     -0.469723
      10A     -0.444614    11A     -0.415036    12A     -0.375961
      13A     -0.287261    14A     -0.246122    15A     -0.211183
      16A     -0.205992

  @DF-RHF Final Energy:  -263.19721439225168

   => Energetics <=

    Nuclear Repulsion Energy =            112.5979055913375646
    One-Electron Energy =                -593.9054956014986146
    Two-Electron Energy =                 218.1103756179093978
    Total Energy =                       -263.1972143922516807
  Basis Set: (AUG-CC-PVTZ AUX)
    Blend: AUG-CC-PVTZ-RI
    Molecular point group: c1

    Geometry (in Angstrom), charge = -1, multiplicity = 1:

       Center              X                  Y                   Z               Mass
    ------------   -----------------  -----------------  -----------------  -----------------
         O            1.037984243151    -0.773059354072     0.000053984272    15.994914619570
         O           -1.192419756849    -0.548628354072    -0.000091015728    15.994914619570
         O            0.143753243151     1.306331645928     0.000025984272    15.994914619570
         C           -0.135679356849     0.032874345928     0.000002884272    12.000000000000
         H            1.785046243151    -0.147717354072     0.000140984272     1.007825032230

  Basis Set: AUG-CC-PVTZ
    Blend: AUG-CC-PVTZ
  Basis Set: (AUG-CC-PVTZ AUX)
    Blend: AUG-CC-PVTZ-JKFIT
	 Reference Energy          =    -263.1972143922516807 [Eh]
	 Singles Energy            =      -0.0000000000000000 [Eh]
	 Same-Spin Energy          =      -0.2493422761078116 [Eh]
	 Opposite-Spin Energy      =      -0.7058024206739985 [Eh]
	 Correlation Energy        =      -0.9551446967818100 [Eh]
	 Total Energy              =    -264.1523590890334958 [Eh]

	 ================> DF-SCS-MP2 Energies <==================
	-----------------------------------------------------------
	 SCS Same-Spin Scale       =       0.3333333333333333 [-]
	 SCS Opposite-Spin Scale   =       1.2000000000000000 [-]
	 SCS Same-Spin Energy      =      -0.0831140920359372 [Eh]
	 SCS Opposite-Spin Energy  =      -0.8469629048087981 [Eh]
	 SCS Correlation Energy    =      -0.9300769968447353 [Eh]
	 SCS Total Energy          =    -264.1272913890963991 [Eh]
	-----------------------------------------------------------

  Dipole Moment: [D]
     X:     2.3477      Y:    -0.8816      Z:     0.0002     Total:     2.5078

*** Psi4 exiting successfully. Buy a developer a beer!
