                               Psi4 1.3.2 release

  ==> Input File <==

--------------------------------------------------------------------------
#psi4
#
memory 32 gb

molecule  {
-1 1
  O        1.0038370    -0.7785270     0.0000510
  O       -1.2265670    -0.5540960    -0.0000940
  O        0.1096060     1.3008640     0.0000230
  C       -0.0462403     0.1829058     0.0000167
  H        1.7508990    -0.1531850     0.0001380
units angstrom
no_reorient  #important for SAPT in psi4, default
symmetry c1  #important for SAPT in psi4, default
}

set PROPERTIES_ORIGIN ["COM"]
properties('MP2/aug-cc-pvtz', properties = ['dipole'])
--------------------------------------------------------------------------

    Molecular point group: c1
  Charge       = -1
  Multiplicity = 1
  Basis Set: AUG-CC-PVTZ
    Blend: AUG-CC-PVTZ
  Basis Set: (AUG-CC-PVTZ AUX)
    Blend: AUG-CC-PVTZ-JKFIT

    Orbital Energies [Eh]
    ---------------------

    Doubly Occupied:

       1A    -20.397303     2A    -20.340396     3A    -20.261102
       4A    -11.180489     5A     -1.278004     6A     -1.167962
       7A     -1.006300     8A     -0.572353     9A     -0.503068
      10A     -0.463787    11A     -0.435430    12A     -0.372243
      13A     -0.308705    14A     -0.243139    15A     -0.183928
      16A     -0.180421

  @DF-RHF Final Energy:  -263.15857958280668

   => Energetics <=

    Nuclear Repulsion Energy =            112.9038983763816049
    One-Electron Energy =                -594.3356914091938279
    Two-Electron Energy =                 218.2732134500055281
    Total Energy =                       -263.1585795828066807
  Basis Set: (AUG-CC-PVTZ AUX)
    Blend: AUG-CC-PVTZ-RI
    Molecular point group: c1

    Geometry (in Angstrom), charge = -1, multiplicity = 1:

       Center              X                  Y                   Z               Mass
    ------------   -----------------  -----------------  -----------------  -----------------
         O            1.013669222043    -0.803653067928     0.000050678952    15.994914619570
         O           -1.216734777957    -0.579222067928    -0.000094321048    15.994914619570
         O            0.119438222043     1.275737932072     0.000022678952    15.994914619570
         C           -0.036408077957     0.157779732072     0.000016378952    12.000000000000
         H            1.760731222043    -0.178311067928     0.000137678952     1.007825032230

  Basis Set: AUG-CC-PVTZ
    Blend: AUG-CC-PVTZ
  Basis Set: (AUG-CC-PVTZ AUX)
    Blend: AUG-CC-PVTZ-JKFIT
	 Reference Energy          =    -263.1585795828066807 [Eh]
	 Singles Energy            =      -0.0000000000000000 [Eh]
	 Same-Spin Energy          =      -0.2498481768806285 [Eh]
	 Opposite-Spin Energy      =      -0.7074324183224219 [Eh]
	 Correlation Energy        =      -0.9572805952030503 [Eh]
	 Total Energy              =    -264.1158601780097115 [Eh]

	 ================> DF-SCS-MP2 Energies <==================
	-----------------------------------------------------------
	 SCS Same-Spin Scale       =       0.3333333333333333 [-]
	 SCS Opposite-Spin Scale   =       1.2000000000000000 [-]
	 SCS Same-Spin Energy      =      -0.0832827256268762 [Eh]
	 SCS Opposite-Spin Energy  =      -0.8489189019869062 [Eh]
	 SCS Correlation Energy    =      -0.9322016276137823 [Eh]
	 SCS Total Energy          =    -264.0907812104204595 [Eh]
	-----------------------------------------------------------

  Dipole Moment: [D]
     X:     3.9557      Y:     1.1162      Z:     0.0003     Total:     4.1102

*** Psi4 exiting successfully. Buy a developer a beer!
