                               Psi4 1.3.2 release

  ==> Input File <==

--------------------------------------------------------------------------
#psi4
#
memory 32 gb

molecule  {
-1 1
  O        1.0038370    -0.7785270     0.0000510
  O       -1.1556063    -0.6641630    -0.0000871
  O        0.1096060     1.3008640     0.0000230
  C       -0.1409850     0.0678760     0.0000040
  H        1.7508990    -0.1531850     0.0001380
units angstrom
no_reorient  #important for SAPT in psi4, default
symmetry c1  #important for SAPT in psi4, default
}

set PROPERTIES_ORIGIN ["COM"]
properties('MP2/aug-cc-pvtz', properties = ['dipole'])
--------------------------------------------------------------------------

    Molecular point group: c1
  Charge       = -1
  Multiplicity = 1
  Basis Set: AUG-CC-PVTZ
    Blend: AUG-CC-PVTZ
  Basis Set: (AUG-CC-PVTZ AUX)
    Blend: AUG-CC-PVTZ-JKFIT

    Orbital Energies [Eh]
    ---------------------

    Doubly Occupied:

       1A    -20.381116     2A    -20.311316     3A    -20.297242
       4A    -11.185980     5A     -1.232206     6A     -1.108227
       7A     -1.090926     8A     -0.574632     9A     -0.475281
      10A     -0.436378    11A     -0.413382    12A     -0.378083
      13A     -0.281039    14A     -0.242642    15A     -0.219730
      16A     -0.212440

  @DF-RHF Final Energy:  -263.19622027412623

   => Energetics <=

    Nuclear Repulsion Energy =            112.8230168618609923
    One-Electron Energy =                -594.3572282960939219
    Two-Electron Energy =                 218.3379911601066965
    Total Energy =                       -263.1962202741262331
  Basis Set: (AUG-CC-PVTZ AUX)
    Blend: AUG-CC-PVTZ-RI
    Molecular point group: c1

    Geometry (in Angstrom), charge = -1, multiplicity = 1:

       Center              X                  Y                   Z               Mass
    ------------   -----------------  -----------------  -----------------  -----------------
         O            1.013700800680    -0.752157124659     0.000051368135    15.994914619570
         O           -1.145742499320    -0.637793124659    -0.000086731865    15.994914619570
         O            0.119469800680     1.327233875341     0.000023368135    15.994914619570
         C           -0.131121199320     0.094245875341     0.000004368135    12.000000000000
         H            1.760762800680    -0.126815124659     0.000138368135     1.007825032230

  Basis Set: AUG-CC-PVTZ
    Blend: AUG-CC-PVTZ
  Basis Set: (AUG-CC-PVTZ AUX)
    Blend: AUG-CC-PVTZ-JKFIT
	 Reference Energy          =    -263.1962202741262331 [Eh]
	 Singles Energy            =      -0.0000000000000000 [Eh]
	 Same-Spin Energy          =      -0.2499245667650369 [Eh]
	 Opposite-Spin Energy      =      -0.7068674296139971 [Eh]
	 Correlation Energy        =      -0.9567919963790339 [Eh]
	 Total Energy              =    -264.1530122705052577 [Eh]

	 ================> DF-SCS-MP2 Energies <==================
	-----------------------------------------------------------
	 SCS Same-Spin Scale       =       0.3333333333333333 [-]
	 SCS Opposite-Spin Scale   =       1.2000000000000000 [-]
	 SCS Same-Spin Energy      =      -0.0833081889216789 [Eh]
	 SCS Opposite-Spin Energy  =      -0.8482409155367965 [Eh]
	 SCS Correlation Energy    =      -0.9315491044584754 [Eh]
	 SCS Total Energy          =    -264.1277693785847305 [Eh]
	-----------------------------------------------------------

  Dipole Moment: [D]
     X:     2.5821      Y:    -0.1404      Z:     0.0002     Total:     2.5859

*** Psi4 exiting successfully. Buy a developer a beer!
