                               Psi4 1.3.2 release

  ==> Input File <==

--------------------------------------------------------------------------
#psi4
#
memory 32 gb

molecule  {
-1 1
  O        1.0038370    -0.7785270     0.0000510
  O       -1.2265670    -0.5540960    -0.0000940
  O        0.1096060     1.3008640     0.0000230
  C       -0.1409850     0.0678760     0.0000040
  H        1.5975368    -0.2815596     0.0001201
units angstrom
no_reorient  #important for SAPT in psi4, default
symmetry c1  #important for SAPT in psi4, default
}

set PROPERTIES_ORIGIN ["COM"]
properties('MP2/aug-cc-pvtz', properties = ['dipole'])
--------------------------------------------------------------------------

    Molecular point group: c1
  Charge       = -1
  Multiplicity = 1
  Basis Set: AUG-CC-PVTZ
    Blend: AUG-CC-PVTZ
  Basis Set: (AUG-CC-PVTZ AUX)
    Blend: AUG-CC-PVTZ-JKFIT

    Orbital Energies [Eh]
    ---------------------

    Doubly Occupied:

       1A    -20.369042     2A    -20.306184     3A    -20.297553
       4A    -11.187117     5A     -1.272867     6A     -1.144893
       7A     -1.083563     8A     -0.625645     9A     -0.490607
      10A     -0.443215    11A     -0.419046    12A     -0.384886
      13A     -0.292101    14A     -0.248499    15A     -0.217843
      16A     -0.208456

  @DF-RHF Final Energy:  -263.15487553507535

   => Energetics <=

    Nuclear Repulsion Energy =            113.9150442830136427
    One-Electron Energy =                -596.1568047860305342
    Two-Electron Energy =                 219.0868849679415575
    Total Energy =                       -263.1548755350753481
  Basis Set: (AUG-CC-PVTZ AUX)
    Blend: AUG-CC-PVTZ-RI
    Molecular point group: c1

    Geometry (in Angstrom), charge = -1, multiplicity = 1:

       Center              X                  Y                   Z               Mass
    ------------   -----------------  -----------------  -----------------  -----------------
         O            1.034843910823    -0.778900269958     0.000053473392    15.994914619570
         O           -1.195560089177    -0.554469269958    -0.000091526608    15.994914619570
         O            0.140612910823     1.300490730042     0.000025473392    15.994914619570
         C           -0.109978089177     0.067502730042     0.000006473392    12.000000000000
         H            1.628543710823    -0.281932869958     0.000122573392     1.007825032230

  Basis Set: AUG-CC-PVTZ
    Blend: AUG-CC-PVTZ
  Basis Set: (AUG-CC-PVTZ AUX)
    Blend: AUG-CC-PVTZ-JKFIT
	 Reference Energy          =    -263.1548755350753481 [Eh]
	 Singles Energy            =      -0.0000000000000000 [Eh]
	 Same-Spin Energy          =      -0.2471985567006847 [Eh]
	 Opposite-Spin Energy      =      -0.7007300907753845 [Eh]
	 Correlation Energy        =      -0.9479286474760692 [Eh]
	 Total Energy              =    -264.1028041825514379 [Eh]

	 ================> DF-SCS-MP2 Energies <==================
	-----------------------------------------------------------
	 SCS Same-Spin Scale       =       0.3333333333333333 [-]
	 SCS Opposite-Spin Scale   =       1.2000000000000000 [-]
	 SCS Same-Spin Energy      =      -0.0823995189002282 [Eh]
	 SCS Opposite-Spin Energy  =      -0.8408761089304614 [Eh]
	 SCS Correlation Energy    =      -0.9232756278306896 [Eh]
	 SCS Total Energy          =    -264.0781511629060105 [Eh]
	-----------------------------------------------------------

  Dipole Moment: [D]
     X:     2.6146      Y:    -0.4471      Z:     0.0002     Total:     2.6525

*** Psi4 exiting successfully. Buy a developer a beer!
