                               Psi4 1.3.2 release

  ==> Input File <==

--------------------------------------------------------------------------
#psi4
#
memory 32 gb

molecule  {
-1 1
  O        1.0038370    -0.7785270     0.0000510
  O       -1.2265670    -0.5540960    -0.0000940
  O        0.1096060     1.3008640     0.0000230
  C       -0.1609017    -0.0301206     0.0000025
  H        1.7508990    -0.1531850     0.0001380
units angstrom
no_reorient  #important for SAPT in psi4, default
symmetry c1  #important for SAPT in psi4, default
}

set PROPERTIES_ORIGIN ["COM"]
properties('MP2/aug-cc-pvtz', properties = ['dipole'])
--------------------------------------------------------------------------

    Molecular point group: c1
  Charge       = -1
  Multiplicity = 1
  Basis Set: AUG-CC-PVTZ
    Blend: AUG-CC-PVTZ
  Basis Set: (AUG-CC-PVTZ AUX)
    Blend: AUG-CC-PVTZ-JKFIT

    Orbital Energies [Eh]
    ---------------------

    Doubly Occupied:

       1A    -20.398256     2A    -20.315251     3A    -20.277968
       4A    -11.183192     5A     -1.247141     6A     -1.150909
       7A     -1.030532     8A     -0.603151     9A     -0.472532
      10A     -0.452527    11A     -0.423594    12A     -0.368461
      13A     -0.291956    14A     -0.244236    15A     -0.198254
      16A     -0.194428

  @DF-RHF Final Energy:  -263.18714678063679

   => Energetics <=

    Nuclear Repulsion Energy =            112.6654316506003539
    One-Electron Energy =                -594.0003806296218727
    Two-Electron Energy =                 218.1478021983847384
    Total Energy =                       -263.1871467806367946
  Basis Set: (AUG-CC-PVTZ AUX)
    Blend: AUG-CC-PVTZ-RI
    Molecular point group: c1

    Geometry (in Angstrom), charge = -1, multiplicity = 1:

       Center              X                  Y                   Z               Mass
    ------------   -----------------  -----------------  -----------------  -----------------
         O            1.036228311208    -0.761741129367     0.000053472735    15.994914619570
         O           -1.194175688792    -0.537310129367    -0.000091527265    15.994914619570
         O            0.141997311208     1.317649870633     0.000025472735    15.994914619570
         C           -0.128510388792    -0.013334729367     0.000004972735    12.000000000000
         H            1.783290311208    -0.136399129367     0.000140472735     1.007825032230

  Basis Set: AUG-CC-PVTZ
    Blend: AUG-CC-PVTZ
  Basis Set: (AUG-CC-PVTZ AUX)
    Blend: AUG-CC-PVTZ-JKFIT
	 Reference Energy          =    -263.1871467806367946 [Eh]
	 Singles Energy            =      -0.0000000000000000 [Eh]
	 Same-Spin Energy          =      -0.2493006848080351 [Eh]
	 Opposite-Spin Energy      =      -0.7057701598197930 [Eh]
	 Correlation Energy        =      -0.9550708446278281 [Eh]
	 Total Energy              =    -264.1422176252646068 [Eh]

	 ================> DF-SCS-MP2 Energies <==================
	-----------------------------------------------------------
	 SCS Same-Spin Scale       =       0.3333333333333333 [-]
	 SCS Opposite-Spin Scale   =       1.2000000000000000 [-]
	 SCS Same-Spin Energy      =      -0.0831002282693450 [Eh]
	 SCS Opposite-Spin Energy  =      -0.8469241917837516 [Eh]
	 SCS Correlation Energy    =      -0.9300244200530966 [Eh]
	 SCS Total Energy          =    -264.1171712006898815 [Eh]
	-----------------------------------------------------------

  Dipole Moment: [D]
     X:     2.3917      Y:    -1.5477      Z:     0.0002     Total:     2.8487

*** Psi4 exiting successfully. Buy a developer a beer!
