                               Psi4 1.4a3.dev225

  ==> Input File <==

--------------------------------------------------------------------------
#psi4
#
memory 32 gb

molecule  {
-1 1
  O        1.0038370    -0.7785270     0.0000510
  O       -1.2265670    -0.5540960    -0.0000940
  O        0.1096060     1.3008640     0.0000230
  C       -0.1843689     0.0430197     0.0000001
  H        1.7508990    -0.1531850     0.0001380
units angstrom
no_reorient  #important for SAPT in psi4, default
symmetry c1  #important for SAPT in psi4, default
}

set PROPERTIES_ORIGIN ["COM"]
properties('MP2/aug-cc-pvtz', properties = ['dipole'])
--------------------------------------------------------------------------

    Molecular point group: c1
  Charge       = -1
  Multiplicity = 1
  Basis Set: AUG-CC-PVTZ
    Blend: AUG-CC-PVTZ
  Basis Set: (AUG-CC-PVTZ AUX)
    Blend: AUG-CC-PVTZ-JKFIT

    Orbital Energies [Eh]
    ---------------------

    Doubly Occupied:

       1A    -20.381453     2A    -20.311045     3A    -20.294229
       4A    -11.183743     5A     -1.231231     6A     -1.129789
       7A     -1.071679     8A     -0.575503     9A     -0.468900
      10A     -0.442983    11A     -0.412990    12A     -0.379711
      13A     -0.286259    14A     -0.245731    15A     -0.214785
      16A     -0.209809

  @DF-RHF Final Energy:  -263.19783963280076

   => Energetics <=

    Nuclear Repulsion Energy =            112.5965591710506573
    One-Electron Energy =                -593.9091172920013832
    Two-Electron Energy =                 218.1147184881499754
    Total Energy =                       -263.1978396328007648
  Basis Set: (AUG-CC-PVTZ AUX)
    Blend: AUG-CC-PVTZ-RI
    Molecular point group: c1

    Geometry (in Angstrom), charge = -1, multiplicity = 1:

       Center              X                  Y                   Z               Mass
    ------------   -----------------  -----------------  -----------------  -----------------
         O            1.040845372026    -0.776131138117     0.000053944923    15.994914619570
         O           -1.189558627974    -0.551700138117    -0.000091055077    15.994914619570
         O            0.146614372026     1.303259861883     0.000025944923    15.994914619570
         C           -0.147360527974     0.045415561883     0.000003044923    12.000000000000
         H            1.787907372026    -0.150789138117     0.000140944923     1.007825032230

  Basis Set: AUG-CC-PVTZ
    Blend: AUG-CC-PVTZ
  Basis Set: (AUG-CC-PVTZ AUX)
    Blend: AUG-CC-PVTZ-JKFIT
	 Reference Energy          =    -263.1978396328007648 [Eh]
	 Singles Energy            =      -0.0000000000000000 [Eh]
	 Same-Spin Energy          =      -0.2493410008678519 [Eh]
	 Opposite-Spin Energy      =      -0.7058246791208866 [Eh]
	 Correlation Energy        =      -0.9551656799887386 [Eh]
	 Total Energy              =    -264.1530053127895030 [Eh]

	 ================> DF-SCS-MP2 Energies <==================
	-----------------------------------------------------------
	 SCS Same-Spin Scale       =       0.3333333333333333 [-]
	 SCS Opposite-Spin Scale   =       1.2000000000000000 [-]
	 SCS Same-Spin Energy      =      -0.0831136669559506 [Eh]
	 SCS Opposite-Spin Energy  =      -0.8469896149450640 [Eh]
	 SCS Correlation Energy    =      -0.9301032819010147 [Eh]
	 SCS Total Energy          =    -264.1279429147018050 [Eh]
	-----------------------------------------------------------

  Dipole Moment: [D]
     X:     2.1857      Y:    -0.7125      Z:     0.0002     Total:     2.2989

*** Psi4 exiting successfully. Buy a developer a beer!
