                               Psi4 1.3.2 release

  ==> Input File <==

--------------------------------------------------------------------------
#psi4
#
memory 32 gb

molecule  {
-1 1
  O        1.0038370    -0.7785270     0.0000510
  O       -1.2265670    -0.5540960    -0.0000940
  O        0.1096060     1.3008640     0.0000230
  C       -0.1555824     0.0477672     0.0000019
  H        1.7508990    -0.1531850     0.0001380
units angstrom
no_reorient  #important for SAPT in psi4, default
symmetry c1  #important for SAPT in psi4, default
}

set PROPERTIES_ORIGIN ["COM"]
properties('MP2/aug-cc-pvtz', properties = ['dipole'])
--------------------------------------------------------------------------

    Molecular point group: c1
  Charge       = -1
  Multiplicity = 1
  Basis Set: AUG-CC-PVTZ
    Blend: AUG-CC-PVTZ
  Basis Set: (AUG-CC-PVTZ AUX)
    Blend: AUG-CC-PVTZ-JKFIT

    Orbital Energies [Eh]
    ---------------------

    Doubly Occupied:

       1A    -20.389146     2A    -20.303348     3A    -20.297291
       4A    -11.184444     5A     -1.232044     6A     -1.121999
       7A     -1.075960     8A     -0.581668     9A     -0.471370
      10A     -0.441883    11A     -0.414049    12A     -0.376303
      13A     -0.285769    14A     -0.245782    15A     -0.214005
      16A     -0.207622

  @DF-RHF Final Energy:  -263.19970393497158

   => Energetics <=

    Nuclear Repulsion Energy =            112.5737137538444017
    One-Electron Energy =                -593.8614688159452726
    Two-Electron Energy =                 218.0880511271292619
    Total Energy =                       -263.1997039349715806
  Basis Set: (AUG-CC-PVTZ AUX)
    Blend: AUG-CC-PVTZ-RI
    Molecular point group: c1

    Geometry (in Angstrom), charge = -1, multiplicity = 1:

       Center              X                  Y                   Z               Mass
    ------------   -----------------  -----------------  -----------------  -----------------
         O            1.035181764044    -0.777065186330     0.000053590782    15.994914619570
         O           -1.195222235956    -0.552634186330    -0.000091409218    15.994914619570
         O            0.140950764044     1.302325813670     0.000025590782    15.994914619570
         C           -0.124237635956     0.049229013670     0.000004490782    12.000000000000
         H            1.782243764044    -0.151723186330     0.000140590782     1.007825032230

  Basis Set: AUG-CC-PVTZ
    Blend: AUG-CC-PVTZ
  Basis Set: (AUG-CC-PVTZ AUX)
    Blend: AUG-CC-PVTZ-JKFIT
	 Reference Energy          =    -263.1997039349715806 [Eh]
	 Singles Energy            =      -0.0000000000000000 [Eh]
	 Same-Spin Energy          =      -0.2494492668468837 [Eh]
	 Opposite-Spin Energy      =      -0.7059781478418028 [Eh]
	 Correlation Energy        =      -0.9554274146886865 [Eh]
	 Total Energy              =    -264.1551313496602802 [Eh]

	 ================> DF-SCS-MP2 Energies <==================
	-----------------------------------------------------------
	 SCS Same-Spin Scale       =       0.3333333333333333 [-]
	 SCS Opposite-Spin Scale   =       1.2000000000000000 [-]
	 SCS Same-Spin Energy      =      -0.0831497556156279 [Eh]
	 SCS Opposite-Spin Energy  =      -0.8471737774101633 [Eh]
	 SCS Correlation Energy    =      -0.9303235330257912 [Eh]
	 SCS Total Energy          =    -264.1300274679973654 [Eh]
	-----------------------------------------------------------

  Dipole Moment: [D]
     X:     2.5398      Y:    -0.6225      Z:     0.0002     Total:     2.6150

*** Psi4 exiting successfully. Buy a developer a beer!
