                               Psi4 1.3.2 release

  ==> Input File <==

--------------------------------------------------------------------------
#psi4
#
memory 32 gb

molecule  {
-1 1
  O        1.0038370    -0.7785270     0.0000510
  O       -1.2265670    -0.5540960    -0.0000940
  O        0.1096060     1.3008640     0.0000230
  C        0.0198348    -0.0510231     0.0000106
  H        1.7508990    -0.1531850     0.0001380
units angstrom
no_reorient  #important for SAPT in psi4, default
symmetry c1  #important for SAPT in psi4, default
}

set PROPERTIES_ORIGIN ["COM"]
properties('MP2/aug-cc-pvtz', properties = ['dipole'])
--------------------------------------------------------------------------

    Molecular point group: c1
  Charge       = -1
  Multiplicity = 1
  Basis Set: AUG-CC-PVTZ
    Blend: AUG-CC-PVTZ
  Basis Set: (AUG-CC-PVTZ AUX)
    Blend: AUG-CC-PVTZ-JKFIT

    Orbital Energies [Eh]
    ---------------------

    Doubly Occupied:

       1A    -20.450081     2A    -20.287147     3A    -20.278339
       4A    -11.190539     5A     -1.334016     6A     -1.084665
       7A     -1.011793     8A     -0.674007     9A     -0.530253
      10A     -0.474429    11A     -0.428545    12A     -0.320424
      13A     -0.261352    14A     -0.241892    15A     -0.178161
      16A     -0.177050

  @DF-RHF Final Energy:  -263.14566160685018

   => Energetics <=

    Nuclear Repulsion Energy =            112.8029359394669626
    One-Electron Energy =                -594.0518058962577470
    Two-Electron Energy =                 218.1032083499405871
    Total Energy =                       -263.1456616068501830
  Basis Set: (AUG-CC-PVTZ AUX)
    Blend: AUG-CC-PVTZ-RI
    Molecular point group: c1

    Geometry (in Angstrom), charge = -1, multiplicity = 1:

       Center              X                  Y                   Z               Mass
    ------------   -----------------  -----------------  -----------------  -----------------
         O            1.000669258041    -0.757628661167     0.000051879098    15.994914619570
         O           -1.229734741959    -0.533197661167    -0.000093120902    15.994914619570
         O            0.106438258041     1.321762338833     0.000023879098    15.994914619570
         C            0.016667058041    -0.030124761167     0.000011479098    12.000000000000
         H            1.747731258041    -0.132286661167     0.000138879098     1.007825032230

  Basis Set: AUG-CC-PVTZ
    Blend: AUG-CC-PVTZ
  Basis Set: (AUG-CC-PVTZ AUX)
    Blend: AUG-CC-PVTZ-JKFIT
	 Reference Energy          =    -263.1456616068501830 [Eh]
	 Singles Energy            =      -0.0000000000000000 [Eh]
	 Same-Spin Energy          =      -0.2511893735752544 [Eh]
	 Opposite-Spin Energy      =      -0.7089124917647476 [Eh]
	 Correlation Energy        =      -0.9601018653400020 [Eh]
	 Total Energy              =    -264.1057634721901763 [Eh]

	 ================> DF-SCS-MP2 Energies <==================
	-----------------------------------------------------------
	 SCS Same-Spin Scale       =       0.3333333333333333 [-]
	 SCS Opposite-Spin Scale   =       1.2000000000000000 [-]
	 SCS Same-Spin Energy      =      -0.0837297911917515 [Eh]
	 SCS Opposite-Spin Energy  =      -0.8506949901176971 [Eh]
	 SCS Correlation Energy    =      -0.9344247813094486 [Eh]
	 SCS Total Energy          =    -264.0800863881596570 [Eh]
	-----------------------------------------------------------

  Dipole Moment: [D]
     X:     4.3830      Y:    -1.5323      Z:     0.0003     Total:     4.6431

*** Psi4 exiting successfully. Buy a developer a beer!
