                               Psi4 1.3.2 release

  ==> Input File <==

--------------------------------------------------------------------------
#psi4
#
memory 32 gb

molecule  {
-1 1
  O        1.0184344    -0.7584182     0.0000528
  O       -1.2265670    -0.5540960    -0.0000940
  O        0.1096060     1.3008640     0.0000230
  C       -0.1409850     0.0678760     0.0000040
  H        1.7508990    -0.1531850     0.0001380
units angstrom
no_reorient  #important for SAPT in psi4, default
symmetry c1  #important for SAPT in psi4, default
}

set PROPERTIES_ORIGIN ["COM"]
properties('MP2/aug-cc-pvtz', properties = ['dipole'])
--------------------------------------------------------------------------

    Molecular point group: c1
  Charge       = -1
  Multiplicity = 1
  Basis Set: AUG-CC-PVTZ
    Blend: AUG-CC-PVTZ
  Basis Set: (AUG-CC-PVTZ AUX)
    Blend: AUG-CC-PVTZ-JKFIT

    Orbital Energies [Eh]
    ---------------------

    Doubly Occupied:

       1A    -20.387336     2A    -20.302083     3A    -20.298537
       4A    -11.185137     5A     -1.234583     6A     -1.119167
       7A     -1.081840     8A     -0.586803     9A     -0.474914
      10A     -0.440501    11A     -0.414229    12A     -0.376924
      13A     -0.286062    14A     -0.245903    15A     -0.214824
      16A     -0.207555

  @DF-RHF Final Energy:  -263.20121768720912

   => Energetics <=

    Nuclear Repulsion Energy =            112.6770404778326053
    One-Electron Energy =                -594.0437206817454125
    Two-Electron Energy =                 218.1654625167036841
    Total Energy =                       -263.2012176872091231
  Basis Set: (AUG-CC-PVTZ AUX)
    Blend: AUG-CC-PVTZ-RI
    Molecular point group: c1

    Geometry (in Angstrom), charge = -1, multiplicity = 1:

       Center              X                  Y                   Z               Mass
    ------------   -----------------  -----------------  -----------------  -----------------
         O            1.043079118873    -0.766186103152     0.000054505578    15.994914619570
         O           -1.201922281127    -0.561863903152    -0.000092294422    15.994914619570
         O            0.134250718873     1.293096096848     0.000024705578    15.994914619570
         C           -0.116340281127     0.060108096848     0.000005705578    12.000000000000
         H            1.775543718873    -0.160952903152     0.000139705578     1.007825032230

  Basis Set: AUG-CC-PVTZ
    Blend: AUG-CC-PVTZ
  Basis Set: (AUG-CC-PVTZ AUX)
    Blend: AUG-CC-PVTZ-JKFIT
	 Reference Energy          =    -263.2012176872091231 [Eh]
	 Singles Energy            =      -0.0000000000000000 [Eh]
	 Same-Spin Energy          =      -0.2491659955957657 [Eh]
	 Opposite-Spin Energy      =      -0.7052571414724571 [Eh]
	 Correlation Energy        =      -0.9544231370682228 [Eh]
	 Total Energy              =    -264.1556408242773273 [Eh]

	 ================> DF-SCS-MP2 Energies <==================
	-----------------------------------------------------------
	 SCS Same-Spin Scale       =       0.3333333333333333 [-]
	 SCS Opposite-Spin Scale   =       1.2000000000000000 [-]
	 SCS Same-Spin Energy      =      -0.0830553318652552 [Eh]
	 SCS Opposite-Spin Energy  =      -0.8463085697669485 [Eh]
	 SCS Correlation Energy    =      -0.9293639016322037 [Eh]
	 SCS Total Energy          =    -264.1305815888413235 [Eh]
	-----------------------------------------------------------

  Dipole Moment: [D]
     X:     2.7239      Y:    -0.3782      Z:     0.0002     Total:     2.7500

*** Psi4 exiting successfully. Buy a developer a beer!
