                               Psi4 1.4a3.dev225

  ==> Input File <==

--------------------------------------------------------------------------
#psi4
#
memory 32 gb

molecule  {
-1 1
  O        1.0038370    -0.7785270     0.0000510
  O       -1.2265670    -0.5540960    -0.0000940
  O        0.1096060     1.3008640     0.0000230
  C       -0.1811899     0.0976008     0.0000023
  H        1.7508990    -0.1531850     0.0001380
units angstrom
no_reorient  #important for SAPT in psi4, default
symmetry c1  #important for SAPT in psi4, default
}

set PROPERTIES_ORIGIN ["COM"]
properties('MP2/aug-cc-pvtz', properties = ['dipole'])
--------------------------------------------------------------------------

    Molecular point group: c1
  Charge       = -1
  Multiplicity = 1
  Basis Set: AUG-CC-PVTZ
    Blend: AUG-CC-PVTZ
  Basis Set: (AUG-CC-PVTZ AUX)
    Blend: AUG-CC-PVTZ-JKFIT

    Orbital Energies [Eh]
    ---------------------

    Doubly Occupied:

       1A    -20.374003     2A    -20.308876     3A    -20.302903
       4A    -11.184544     5A     -1.226199     6A     -1.110256
       7A     -1.100486     8A     -0.562285     9A     -0.470707
      10A     -0.439150    11A     -0.410512    12A     -0.384847
      13A     -0.283120    14A     -0.242399    15A     -0.223432
      16A     -0.216249

  @DF-RHF Final Energy:  -263.19972946144640

   => Energetics <=

    Nuclear Repulsion Energy =            112.5734024027577931
    One-Electron Energy =                -593.8663241767850423
    Two-Electron Energy =                 218.0931923125808680
    Total Energy =                       -263.1997294614463954
  Basis Set: (AUG-CC-PVTZ AUX)
    Blend: AUG-CC-PVTZ-RI
    Molecular point group: c1

    Geometry (in Angstrom), charge = -1, multiplicity = 1:

       Center              X                  Y                   Z               Mass
    ------------   -----------------  -----------------  -----------------  -----------------
         O            1.040219918783    -0.786869711879     0.000053512084    15.994914619570
         O           -1.190184081217    -0.562438711879    -0.000091487916    15.994914619570
         O            0.145988918783     1.292521288121     0.000025512084    15.994914619570
         C           -0.144806981217     0.089258088121     0.000004812084    12.000000000000
         H            1.787281918783    -0.161527711879     0.000140512084     1.007825032230

  Basis Set: AUG-CC-PVTZ
    Blend: AUG-CC-PVTZ
  Basis Set: (AUG-CC-PVTZ AUX)
    Blend: AUG-CC-PVTZ-JKFIT
	 Reference Energy          =    -263.1997294614463954 [Eh]
	 Singles Energy            =      -0.0000000000000000 [Eh]
	 Same-Spin Energy          =      -0.2495596678225463 [Eh]
	 Opposite-Spin Energy      =      -0.7062591169438166 [Eh]
	 Correlation Energy        =      -0.9558187847663628 [Eh]
	 Total Energy              =    -264.1555482462127316 [Eh]

	 ================> DF-SCS-MP2 Energies <==================
	-----------------------------------------------------------
	 SCS Same-Spin Scale       =       0.3333333333333333 [-]
	 SCS Opposite-Spin Scale   =       1.2000000000000000 [-]
	 SCS Same-Spin Energy      =      -0.0831865559408488 [Eh]
	 SCS Opposite-Spin Energy  =      -0.8475109403325799 [Eh]
	 SCS Correlation Energy    =      -0.9306974962734287 [Eh]
	 SCS Total Energy          =    -264.1304269577198056 [Eh]
	-----------------------------------------------------------

  Dipole Moment: [D]
     X:     2.2719      Y:    -0.0494      Z:     0.0002     Total:     2.2724

*** Psi4 exiting successfully. Buy a developer a beer!
