                               Psi4 1.4a3.dev225

  ==> Input File <==

--------------------------------------------------------------------------
#psi4
#
memory 32 gb

molecule  {
-1 1
  O        1.0038370    -0.7785270     0.0000510
  O       -1.2265670    -0.5540960    -0.0000940
  O        0.1096060     1.3008640     0.0000230
  C       -0.1409850     0.0678760     0.0000040
  H        1.7355628    -0.1660225     0.0001362
units angstrom
no_reorient  #important for SAPT in psi4, default
symmetry c1  #important for SAPT in psi4, default
}

set PROPERTIES_ORIGIN ["COM"]
properties('MP2/aug-cc-pvtz', properties = ['dipole'])
--------------------------------------------------------------------------

    Molecular point group: c1
  Charge       = -1
  Multiplicity = 1
  Basis Set: AUG-CC-PVTZ
    Blend: AUG-CC-PVTZ
  Basis Set: (AUG-CC-PVTZ AUX)
    Blend: AUG-CC-PVTZ-JKFIT

    Orbital Energies [Eh]
    ---------------------

    Doubly Occupied:

       1A    -20.388542     2A    -20.303689     3A    -20.297094
       4A    -11.184931     5A     -1.234826     6A     -1.118859
       7A     -1.082243     8A     -0.583707     9A     -0.476388
      10A     -0.440341    11A     -0.414507    12A     -0.377322
      13A     -0.286328    14A     -0.246216    15A     -0.214840
      16A     -0.207574

  @DF-RHF Final Energy:  -263.20106118029327

   => Energetics <=

    Nuclear Repulsion Energy =            112.6812981522611068
    One-Electron Energy =                -594.0499052066389822
    Two-Electron Energy =                 218.1675458740845954
    Total Energy =                       -263.2010611802933226
  Basis Set: (AUG-CC-PVTZ AUX)
    Blend: AUG-CC-PVTZ-RI
    Molecular point group: c1

    Geometry (in Angstrom), charge = -1, multiplicity = 1:

       Center              X                  Y                   Z               Mass
    ------------   -----------------  -----------------  -----------------  -----------------
         O            1.032563205806    -0.780809374357     0.000053207359    15.994914619570
         O           -1.197840794194    -0.556378374357    -0.000091792641    15.994914619570
         O            0.138332205806     1.298581625643     0.000025207359    15.994914619570
         C           -0.112258794194     0.065593625643     0.000006207359    12.000000000000
         H            1.764289005806    -0.168304874357     0.000138407359     1.007825032230

  Basis Set: AUG-CC-PVTZ
    Blend: AUG-CC-PVTZ
  Basis Set: (AUG-CC-PVTZ AUX)
    Blend: AUG-CC-PVTZ-JKFIT
	 Reference Energy          =    -263.2010611802932658 [Eh]
	 Singles Energy            =      -0.0000000000000000 [Eh]
	 Same-Spin Energy          =      -0.2492981200402819 [Eh]
	 Opposite-Spin Energy      =      -0.7055459296170399 [Eh]
	 Correlation Energy        =      -0.9548440496573218 [Eh]
	 Total Energy              =    -264.1559052299505765 [Eh]

	 ================> DF-SCS-MP2 Energies <==================
	-----------------------------------------------------------
	 SCS Same-Spin Scale       =       0.3333333333333333 [-]
	 SCS Opposite-Spin Scale   =       1.2000000000000000 [-]
	 SCS Same-Spin Energy      =      -0.0830993733467606 [Eh]
	 SCS Opposite-Spin Energy  =      -0.8466551155404478 [Eh]
	 SCS Correlation Energy    =      -0.9297544888872085 [Eh]
	 SCS Total Energy          =    -264.1308156691804925 [Eh]
	-----------------------------------------------------------

  Dipole Moment: [D]
     X:     2.7256      Y:    -0.3755      Z:     0.0002     Total:     2.7514

*** Psi4 exiting successfully. Buy a developer a beer!
