                               Psi4 1.3.2 release

  ==> Input File <==

--------------------------------------------------------------------------
#psi4
#
memory 32 gb

molecule  {
-1 1
  O        0.9888909    -0.7983780     0.0000502
  O       -1.2265670    -0.5540960    -0.0000940
  O        0.1096060     1.3008640     0.0000230
  C       -0.1409850     0.0678760     0.0000040
  H        1.7508990    -0.1531850     0.0001380
units angstrom
no_reorient  #important for SAPT in psi4, default
symmetry c1  #important for SAPT in psi4, default
}

set PROPERTIES_ORIGIN ["COM"]
properties('MP2/aug-cc-pvtz', properties = ['dipole'])
--------------------------------------------------------------------------

    Molecular point group: c1
  Charge       = -1
  Multiplicity = 1
  Basis Set: AUG-CC-PVTZ
    Blend: AUG-CC-PVTZ
  Basis Set: (AUG-CC-PVTZ AUX)
    Blend: AUG-CC-PVTZ-JKFIT

    Orbital Energies [Eh]
    ---------------------

    Doubly Occupied:

       1A    -20.393197     2A    -20.304821     3A    -20.295709
       4A    -11.184423     5A     -1.230456     6A     -1.113243
       7A     -1.082319     8A     -0.573380     9A     -0.473696
      10A     -0.439650    11A     -0.414020    12A     -0.375480
      13A     -0.285607    14A     -0.246188    15A     -0.214039
      16A     -0.207450

  @DF-RHF Final Energy:  -263.19767381188439

   => Energetics <=

    Nuclear Repulsion Energy =            112.4671574080175560
    One-Electron Energy =                -593.6623077955315466
    Two-Electron Energy =                 217.9974765756296335
    Total Energy =                       -263.1976738118843286
  Basis Set: (AUG-CC-PVTZ AUX)
    Blend: AUG-CC-PVTZ-RI
    Molecular point group: c1

    Geometry (in Angstrom), charge = -1, multiplicity = 1:

       Center              X                  Y                   Z               Mass
    ------------   -----------------  -----------------  -----------------  -----------------
         O            1.021283214501    -0.795666698868     0.000052587412    15.994914619570
         O           -1.194174685499    -0.551384698868    -0.000091612588    15.994914619570
         O            0.141998314501     1.303575301132     0.000025387412    15.994914619570
         C           -0.108592685499     0.070587301132     0.000006387412    12.000000000000
         H            1.783291314501    -0.150473698868     0.000140387412     1.007825032230

  Basis Set: AUG-CC-PVTZ
    Blend: AUG-CC-PVTZ
  Basis Set: (AUG-CC-PVTZ AUX)
    Blend: AUG-CC-PVTZ-JKFIT
	 Reference Energy          =    -263.1976738118843855 [Eh]
	 Singles Energy            =      -0.0000000000000000 [Eh]
	 Same-Spin Energy          =      -0.2499365232053147 [Eh]
	 Opposite-Spin Energy      =      -0.7071187376991820 [Eh]
	 Correlation Energy        =      -0.9570552609044967 [Eh]
	 Total Energy              =    -264.1547290727888821 [Eh]

	 ================> DF-SCS-MP2 Energies <==================
	-----------------------------------------------------------
	 SCS Same-Spin Scale       =       0.3333333333333333 [-]
	 SCS Opposite-Spin Scale   =       1.2000000000000000 [-]
	 SCS Same-Spin Energy      =      -0.0833121744017716 [Eh]
	 SCS Opposite-Spin Energy  =      -0.8485424852390183 [Eh]
	 SCS Correlation Energy    =      -0.9318546596407900 [Eh]
	 SCS Total Energy          =    -264.1295284715251910 [Eh]
	-----------------------------------------------------------

  Dipole Moment: [D]
     X:     2.7418      Y:    -0.3549      Z:     0.0002     Total:     2.7647

*** Psi4 exiting successfully. Buy a developer a beer!
