                               Psi4 1.3.2 release

  ==> Input File <==

--------------------------------------------------------------------------
#psi4
#
memory 32 gb

molecule  {
-1 1
  O        1.0038370    -0.7785270     0.0000510
  O       -1.2265670    -0.5540960    -0.0000940
  O        0.1096060     1.3008640     0.0000230
  C       -0.0605751     0.0084264     0.0000073
  H        1.7508990    -0.1531850     0.0001380
units angstrom
no_reorient  #important for SAPT in psi4, default
symmetry c1  #important for SAPT in psi4, default
}

set PROPERTIES_ORIGIN ["COM"]
properties('MP2/aug-cc-pvtz', properties = ['dipole'])
--------------------------------------------------------------------------

    Molecular point group: c1
  Charge       = -1
  Multiplicity = 1
  Basis Set: AUG-CC-PVTZ
    Blend: AUG-CC-PVTZ
  Basis Set: (AUG-CC-PVTZ AUX)
    Blend: AUG-CC-PVTZ-JKFIT

    Orbital Energies [Eh]
    ---------------------

    Doubly Occupied:

       1A    -20.420867     2A    -20.294552     3A    -20.287251
       4A    -11.187193     5A     -1.270536     6A     -1.108179
       7A     -1.045860     8A     -0.623459     9A     -0.495229
      10A     -0.437411    11A     -0.436358    12A     -0.351390
      13A     -0.278522    14A     -0.247154    15A     -0.195993
      16A     -0.191797

  @DF-RHF Final Energy:  -263.18614616682100

   => Energetics <=

    Nuclear Repulsion Energy =            112.6097522417085628
    One-Electron Energy =                -593.8482950388680592
    Two-Electron Energy =                 218.0523966303385066
    Total Energy =                       -263.1861461668210040
  Basis Set: (AUG-CC-PVTZ AUX)
    Blend: AUG-CC-PVTZ-RI
    Molecular point group: c1

    Geometry (in Angstrom), charge = -1, multiplicity = 1:

       Center              X                  Y                   Z               Mass
    ------------   -----------------  -----------------  -----------------  -----------------
         O            1.016489526272    -0.769325069647     0.000052528357    15.994914619570
         O           -1.213914473728    -0.544894069647    -0.000092471643    15.994914619570
         O            0.122258526272     1.310065930353     0.000024528357    15.994914619570
         C           -0.047922573728     0.017628330353     0.000008828357    12.000000000000
         H            1.763551526272    -0.143983069647     0.000139528357     1.007825032230

  Basis Set: AUG-CC-PVTZ
    Blend: AUG-CC-PVTZ
  Basis Set: (AUG-CC-PVTZ AUX)
    Blend: AUG-CC-PVTZ-JKFIT
	 Reference Energy          =    -263.1861461668210040 [Eh]
	 Singles Energy            =      -0.0000000000000000 [Eh]
	 Same-Spin Energy          =      -0.2500614007225375 [Eh]
	 Opposite-Spin Energy      =      -0.7069325665049578 [Eh]
	 Correlation Energy        =      -0.9569939672274954 [Eh]
	 Total Energy              =    -264.1431401340485081 [Eh]

	 ================> DF-SCS-MP2 Energies <==================
	-----------------------------------------------------------
	 SCS Same-Spin Scale       =       0.3333333333333333 [-]
	 SCS Opposite-Spin Scale   =       1.2000000000000000 [-]
	 SCS Same-Spin Energy      =      -0.0833538002408458 [Eh]
	 SCS Opposite-Spin Energy  =      -0.8483190798059493 [Eh]
	 SCS Correlation Energy    =      -0.9316728800467952 [Eh]
	 SCS Total Energy          =    -264.1178190468677940 [Eh]
	-----------------------------------------------------------

  Dipole Moment: [D]
     X:     3.5905      Y:    -0.9631      Z:     0.0003     Total:     3.7175

*** Psi4 exiting successfully. Buy a developer a beer!
