                               Psi4 1.4a3.dev225

  ==> Input File <==

--------------------------------------------------------------------------
#psi4
#
memory 32 gb

molecule  {
-1 1
  O        1.0038370    -0.7785270     0.0000510
  O       -1.2265670    -0.5540960    -0.0000940
  O        0.1096060     1.3008640     0.0000230
  C       -0.0976011     0.0927323     0.0000079
  H        1.7508990    -0.1531850     0.0001380
units angstrom
no_reorient  #important for SAPT in psi4, default
symmetry c1  #important for SAPT in psi4, default
}

set PROPERTIES_ORIGIN ["COM"]
properties('MP2/aug-cc-pvtz', properties = ['dipole'])
--------------------------------------------------------------------------

    Molecular point group: c1
  Charge       = -1
  Multiplicity = 1
  Basis Set: AUG-CC-PVTZ
    Blend: AUG-CC-PVTZ
  Basis Set: (AUG-CC-PVTZ AUX)
    Blend: AUG-CC-PVTZ-JKFIT

    Orbital Energies [Eh]
    ---------------------

    Doubly Occupied:

       1A    -20.398641     2A    -20.312900     3A    -20.283734
       4A    -11.184814     5A     -1.242428     6A     -1.129321
       7A     -1.060404     8A     -0.584294     9A     -0.484448
      10A     -0.441882    11A     -0.419449    12A     -0.370183
      13A     -0.289760    14A     -0.248941    15A     -0.205879
      16A     -0.199725

  @DF-RHF Final Energy:  -263.19450954382626

   => Energetics <=

    Nuclear Repulsion Energy =            112.6031844088613525
    One-Electron Energy =                -593.8817830142172625
    Two-Electron Energy =                 218.0840890615296814
    Total Energy =                       -263.1945095438262570
  Basis Set: (AUG-CC-PVTZ AUX)
    Blend: AUG-CC-PVTZ-RI
    Molecular point group: c1

    Geometry (in Angstrom), charge = -1, multiplicity = 1:

       Center              X                  Y                   Z               Mass
    ------------   -----------------  -----------------  -----------------  -----------------
         O            1.023774216983    -0.785911857487     0.000052410310    15.994914619570
         O           -1.206629783017    -0.561480857487    -0.000092589690    15.994914619570
         O            0.129543216983     1.293479142513     0.000024410310    15.994914619570
         C           -0.077663883017     0.085347442513     0.000009310310    12.000000000000
         H            1.770836216983    -0.160569857487     0.000139410310     1.007825032230

  Basis Set: AUG-CC-PVTZ
    Blend: AUG-CC-PVTZ
  Basis Set: (AUG-CC-PVTZ AUX)
    Blend: AUG-CC-PVTZ-JKFIT
	 Reference Energy          =    -263.1945095438262570 [Eh]
	 Singles Energy            =      -0.0000000000000000 [Eh]
	 Same-Spin Energy          =      -0.2497242025038537 [Eh]
	 Opposite-Spin Energy      =      -0.7065643071347261 [Eh]
	 Correlation Energy        =      -0.9562885096385798 [Eh]
	 Total Energy              =    -264.1507980534648254 [Eh]

	 ================> DF-SCS-MP2 Energies <==================
	-----------------------------------------------------------
	 SCS Same-Spin Scale       =       0.3333333333333333 [-]
	 SCS Opposite-Spin Scale   =       1.2000000000000000 [-]
	 SCS Same-Spin Energy      =      -0.0832414008346179 [Eh]
	 SCS Opposite-Spin Energy  =      -0.8478771685616713 [Eh]
	 SCS Correlation Energy    =      -0.9311185693962892 [Eh]
	 SCS Total Energy          =    -264.1256281132225467 [Eh]
	-----------------------------------------------------------

  Dipole Moment: [D]
     X:     3.2697      Y:    -0.0231      Z:     0.0003     Total:     3.2698

*** Psi4 exiting successfully. Buy a developer a beer!
