                               Psi4 1.4a3.dev225

  ==> Input File <==

--------------------------------------------------------------------------
#psi4
#
memory 32 gb

molecule  {
-1 1
  O        1.0038370    -0.7785270     0.0000510
  O       -1.2265670    -0.5540960    -0.0000940
  O        0.1096060     1.3008640     0.0000230
  C       -0.1583386     0.0579335     0.0000024
  H        1.7508990    -0.1531850     0.0001380
units angstrom
no_reorient  #important for SAPT in psi4, default
symmetry c1  #important for SAPT in psi4, default
}

set PROPERTIES_ORIGIN ["COM"]
properties('MP2/aug-cc-pvtz', properties = ['dipole'])
--------------------------------------------------------------------------

    Molecular point group: c1
  Charge       = -1
  Multiplicity = 1
  Basis Set: AUG-CC-PVTZ
    Blend: AUG-CC-PVTZ
  Basis Set: (AUG-CC-PVTZ AUX)
    Blend: AUG-CC-PVTZ-JKFIT

    Orbital Energies [Eh]
    ---------------------

    Doubly Occupied:

       1A    -20.386856     2A    -20.302621     3A    -20.299722
       4A    -11.184461     5A     -1.230378     6A     -1.119442
       7A     -1.081176     8A     -0.578057     9A     -0.471269
      10A     -0.441089    11A     -0.413038    12A     -0.377953
      13A     -0.285501    14A     -0.245409    15A     -0.215796
      16A     -0.209144

  @DF-RHF Final Energy:  -263.20021686617065

   => Energetics <=

    Nuclear Repulsion Energy =            112.5708159929794476
    One-Electron Energy =                -593.8582415833941468
    Two-Electron Energy =                 218.0872087242440784
    Total Energy =                       -263.2002168661706492
  Basis Set: (AUG-CC-PVTZ AUX)
    Blend: AUG-CC-PVTZ-RI
    Molecular point group: c1

    Geometry (in Angstrom), charge = -1, multiplicity = 1:

       Center              X                  Y                   Z               Mass
    ------------   -----------------  -----------------  -----------------  -----------------
         O            1.035724033383    -0.779065357863     0.000053492409    15.994914619570
         O           -1.194679966617    -0.554634357863    -0.000091507591    15.994914619570
         O            0.141493033383     1.300325642137     0.000025492409    15.994914619570
         C           -0.126451566617     0.057395142137     0.000004892409    12.000000000000
         H            1.782786033383    -0.153723357863     0.000140492409     1.007825032230

  Basis Set: AUG-CC-PVTZ
    Blend: AUG-CC-PVTZ
  Basis Set: (AUG-CC-PVTZ AUX)
    Blend: AUG-CC-PVTZ-JKFIT
	 Reference Energy          =    -263.2002168661706492 [Eh]
	 Singles Energy            =      -0.0000000000000000 [Eh]
	 Same-Spin Energy          =      -0.2494655159439625 [Eh]
	 Opposite-Spin Energy      =      -0.7060205323702846 [Eh]
	 Correlation Energy        =      -0.9554860483142471 [Eh]
	 Total Energy              =    -264.1557029144848912 [Eh]

	 ================> DF-SCS-MP2 Energies <==================
	-----------------------------------------------------------
	 SCS Same-Spin Scale       =       0.3333333333333333 [-]
	 SCS Opposite-Spin Scale   =       1.2000000000000000 [-]
	 SCS Same-Spin Energy      =      -0.0831551719813208 [Eh]
	 SCS Opposite-Spin Energy  =      -0.8472246388443415 [Eh]
	 SCS Correlation Energy    =      -0.9303798108256623 [Eh]
	 SCS Total Energy          =    -264.1305966769963334 [Eh]
	-----------------------------------------------------------

  Dipole Moment: [D]
     X:     2.5167      Y:    -0.5045      Z:     0.0002     Total:     2.5667

*** Psi4 exiting successfully. Buy a developer a beer!
