                               Psi4 1.4a3.dev225

  ==> Input File <==

--------------------------------------------------------------------------
#psi4
#
memory 32 gb

molecule  {
-1 1
  O        1.0038370    -0.7785270     0.0000510
  O       -1.2265670    -0.5540960    -0.0000940
  O        0.1096060     1.3008640     0.0000230
  C       -0.1370017     0.0874753     0.0000043
  H        1.7508990    -0.1531850     0.0001380
units angstrom
no_reorient  #important for SAPT in psi4, default
symmetry c1  #important for SAPT in psi4, default
}

set PROPERTIES_ORIGIN ["COM"]
properties('MP2/aug-cc-pvtz', properties = ['dipole'])
--------------------------------------------------------------------------

    Molecular point group: c1
  Charge       = -1
  Multiplicity = 1
  Basis Set: AUG-CC-PVTZ
    Blend: AUG-CC-PVTZ
  Basis Set: (AUG-CC-PVTZ AUX)
    Blend: AUG-CC-PVTZ-JKFIT

    Orbital Energies [Eh]
    ---------------------

    Doubly Occupied:

       1A    -20.388454     2A    -20.308859     3A    -20.293482
       4A    -11.184659     5A     -1.232332     6A     -1.118046
       7A     -1.082164     8A     -0.575343     9A     -0.476251
      10A     -0.439703    11A     -0.413798    12A     -0.377547
      13A     -0.286722    14A     -0.246258    15A     -0.214799
      16A     -0.207753

  @DF-RHF Final Energy:  -263.19934006190795

   => Energetics <=

    Nuclear Repulsion Energy =            112.5750881863377089
    One-Electron Energy =                -593.8565151664340647
    Two-Electron Energy =                 218.0820869181884234
    Total Energy =                       -263.1993400619079466
  Basis Set: (AUG-CC-PVTZ AUX)
    Blend: AUG-CC-PVTZ-RI
    Molecular point group: c1

    Geometry (in Angstrom), charge = -1, multiplicity = 1:

       Center              X                  Y                   Z               Mass
    ------------   -----------------  -----------------  -----------------  -----------------
         O            1.031526099033    -0.784877567554     0.000053118593    15.994914619570
         O           -1.198877900967    -0.560446567554    -0.000091881407    15.994914619570
         O            0.137295099033     1.294513432446     0.000025118593    15.994914619570
         C           -0.109312600967     0.081124732446     0.000006418593    12.000000000000
         H            1.778588099033    -0.159535567554     0.000140118593     1.007825032230

  Basis Set: AUG-CC-PVTZ
    Blend: AUG-CC-PVTZ
  Basis Set: (AUG-CC-PVTZ AUX)
    Blend: AUG-CC-PVTZ-JKFIT
	 Reference Energy          =    -263.1993400619079466 [Eh]
	 Singles Energy            =      -0.0000000000000000 [Eh]
	 Same-Spin Energy          =      -0.2495894679688770 [Eh]
	 Opposite-Spin Energy      =      -0.7062882864071129 [Eh]
	 Correlation Energy        =      -0.9558777543759900 [Eh]
	 Total Energy              =    -264.1552178162839368 [Eh]

	 ================> DF-SCS-MP2 Energies <==================
	-----------------------------------------------------------
	 SCS Same-Spin Scale       =       0.3333333333333333 [-]
	 SCS Opposite-Spin Scale   =       1.2000000000000000 [-]
	 SCS Same-Spin Energy      =      -0.0831964893229590 [Eh]
	 SCS Opposite-Spin Energy  =      -0.8475459436885355 [Eh]
	 SCS Correlation Energy    =      -0.9307424330114945 [Eh]
	 SCS Total Energy          =    -264.1300824949194634 [Eh]
	-----------------------------------------------------------

  Dipole Moment: [D]
     X:     2.8010      Y:    -0.1277      Z:     0.0002     Total:     2.8039

*** Psi4 exiting successfully. Buy a developer a beer!
