                               Psi4 1.4a3.dev225

  ==> Input File <==

--------------------------------------------------------------------------
#psi4
#
memory 32 gb

molecule  {
-1 1
  O        1.0038370    -0.7785270     0.0000510
  O       -1.2265670    -0.5540960    -0.0000940
  O        0.1096060     1.3008640     0.0000230
  C       -0.1409850     0.0678760     0.0000040
  H        1.7892395    -0.1210913     0.0001425
units angstrom
no_reorient  #important for SAPT in psi4, default
symmetry c1  #important for SAPT in psi4, default
}

set PROPERTIES_ORIGIN ["COM"]
properties('MP2/aug-cc-pvtz', properties = ['dipole'])
--------------------------------------------------------------------------

    Molecular point group: c1
  Charge       = -1
  Multiplicity = 1
  Basis Set: AUG-CC-PVTZ
    Blend: AUG-CC-PVTZ
  Basis Set: (AUG-CC-PVTZ AUX)
    Blend: AUG-CC-PVTZ-JKFIT

    Orbital Energies [Eh]
    ---------------------

    Doubly Occupied:

       1A    -20.394514     2A    -20.302879     3A    -20.297192
       4A    -11.184315     5A     -1.227261     6A     -1.109578
       7A     -1.081871     8A     -0.571017     9A     -0.469271
      10A     -0.439359    11A     -0.413192    12A     -0.373482
      13A     -0.284632    14A     -0.245580    15A     -0.213643
      16A     -0.207382

  @DF-RHF Final Energy:  -263.19482904309160

   => Energetics <=

    Nuclear Repulsion Energy =            112.2991084192862843
    One-Electron Energy =                -593.3575382698024896
    Two-Electron Energy =                 217.8636008074246035
    Total Energy =                       -263.1948290430915449
  Basis Set: (AUG-CC-PVTZ AUX)
    Blend: AUG-CC-PVTZ-RI
    Molecular point group: c1

    Geometry (in Angstrom), charge = -1, multiplicity = 1:

       Center              X                  Y                   Z               Mass
    ------------   -----------------  -----------------  -----------------  -----------------
         O            1.031676266251    -0.781551805589     0.000053103260    15.994914619570
         O           -1.198727733749    -0.557120805589    -0.000091896740    15.994914619570
         O            0.137445266251     1.297839194411     0.000025103260    15.994914619570
         C           -0.113145733749     0.064851194411     0.000006103260    12.000000000000
         H            1.817078766251    -0.124116105589     0.000144603260     1.007825032230

  Basis Set: AUG-CC-PVTZ
    Blend: AUG-CC-PVTZ
  Basis Set: (AUG-CC-PVTZ AUX)
    Blend: AUG-CC-PVTZ-JKFIT
	 Reference Energy          =    -263.1948290430916018 [Eh]
	 Singles Energy            =      -0.0000000000000000 [Eh]
	 Same-Spin Energy          =      -0.2501489836457344 [Eh]
	 Opposite-Spin Energy      =      -0.7077568206041840 [Eh]
	 Correlation Energy        =      -0.9579058042499184 [Eh]
	 Total Energy              =    -264.1527348473415486 [Eh]

	 ================> DF-SCS-MP2 Energies <==================
	-----------------------------------------------------------
	 SCS Same-Spin Scale       =       0.3333333333333333 [-]
	 SCS Opposite-Spin Scale   =       1.2000000000000000 [-]
	 SCS Same-Spin Energy      =      -0.0833829945485781 [Eh]
	 SCS Opposite-Spin Energy  =      -0.8493081847250208 [Eh]
	 SCS Correlation Energy    =      -0.9326911792735989 [Eh]
	 SCS Total Energy          =    -264.1275202223652059 [Eh]
	-----------------------------------------------------------

  Dipole Moment: [D]
     X:     2.7527      Y:    -0.3434      Z:     0.0002     Total:     2.7740

*** Psi4 exiting successfully. Buy a developer a beer!
