                               Psi4 1.3.2 release

  ==> Input File <==

--------------------------------------------------------------------------
#psi4
#
memory 32 gb

molecule  {
-1 1
  O        1.0326786    -0.7380577     0.0000526
  O       -1.2265670    -0.5540960    -0.0000940
  O        0.1096060     1.3008640     0.0000230
  C       -0.1409850     0.0678760     0.0000040
  H        1.7508990    -0.1531850     0.0001380
units angstrom
no_reorient  #important for SAPT in psi4, default
symmetry c1  #important for SAPT in psi4, default
}

set PROPERTIES_ORIGIN ["COM"]
properties('MP2/aug-cc-pvtz', properties = ['dipole'])
--------------------------------------------------------------------------

    Molecular point group: c1
  Charge       = -1
  Multiplicity = 1
  Basis Set: AUG-CC-PVTZ
    Blend: AUG-CC-PVTZ
  Basis Set: (AUG-CC-PVTZ AUX)
    Blend: AUG-CC-PVTZ-JKFIT

    Orbital Energies [Eh]
    ---------------------

    Doubly Occupied:

       1A    -20.384195     2A    -20.300727     3A    -20.300004
       4A    -11.185616     5A     -1.237092     6A     -1.122397
       7A     -1.081498     8A     -0.594244     9A     -0.475168
      10A     -0.440988    11A     -0.414392    12A     -0.377387
      13A     -0.286364    14A     -0.245846    15A     -0.215004
      16A     -0.207584

  @DF-RHF Final Energy:  -263.20082400059141

   => Energetics <=

    Nuclear Repulsion Energy =            112.7955435080153990
    One-Electron Energy =                -594.2557235695187501
    Two-Electron Energy =                 218.2593560609119834
    Total Energy =                       -263.2008240005914104
  Basis Set: (AUG-CC-PVTZ AUX)
    Blend: AUG-CC-PVTZ-RI
    Molecular point group: c1

    Geometry (in Angstrom), charge = -1, multiplicity = 1:

       Center              X                  Y                   Z               Mass
    ------------   -----------------  -----------------  -----------------  -----------------
         O            1.053587867703    -0.751165015232     0.000054358027    15.994914619570
         O           -1.205657732297    -0.567203315232    -0.000092241973    15.994914619570
         O            0.130515267703     1.287756684768     0.000024758027    15.994914619570
         C           -0.120075732297     0.054768684768     0.000005758027    12.000000000000
         H            1.771808267703    -0.166292315232     0.000139758027     1.007825032230

  Basis Set: AUG-CC-PVTZ
    Blend: AUG-CC-PVTZ
  Basis Set: (AUG-CC-PVTZ AUX)
    Blend: AUG-CC-PVTZ-JKFIT
	 Reference Energy          =    -263.2008240005914104 [Eh]
	 Singles Energy            =      -0.0000000000000000 [Eh]
	 Same-Spin Energy          =      -0.2488089511734405 [Eh]
	 Opposite-Spin Energy      =      -0.7044110429446711 [Eh]
	 Correlation Energy        =      -0.9532199941181115 [Eh]
	 Total Energy              =    -264.1540439947095251 [Eh]

	 ================> DF-SCS-MP2 Energies <==================
	-----------------------------------------------------------
	 SCS Same-Spin Scale       =       0.3333333333333333 [-]
	 SCS Opposite-Spin Scale   =       1.2000000000000000 [-]
	 SCS Same-Spin Energy      =      -0.0829363170578135 [Eh]
	 SCS Opposite-Spin Energy  =      -0.8452932515336052 [Eh]
	 SCS Correlation Energy    =      -0.9282295685914187 [Eh]
	 SCS Total Energy          =    -264.1290535691828154 [Eh]
	-----------------------------------------------------------

  Dipole Moment: [D]
     X:     2.7104      Y:    -0.3901      Z:     0.0002     Total:     2.7383

*** Psi4 exiting successfully. Buy a developer a beer!
