                               Psi4 1.3.2 release

  ==> Input File <==

--------------------------------------------------------------------------
#psi4
#
memory 32 gb

molecule  {
-1 1
  O        1.0038370    -0.7785270     0.0000510
  O       -1.2265670    -0.5540960    -0.0000940
  O        0.1096060     1.3008640     0.0000230
  C       -0.1260389     0.0877270     0.0000061
  H        1.7508990    -0.1531850     0.0001380
units angstrom
no_reorient  #important for SAPT in psi4, default
symmetry c1  #important for SAPT in psi4, default
}

set PROPERTIES_ORIGIN ["COM"]
properties('MP2/aug-cc-pvtz', properties = ['dipole'])
--------------------------------------------------------------------------

    Molecular point group: c1
  Charge       = -1
  Multiplicity = 1
  Basis Set: AUG-CC-PVTZ
    Blend: AUG-CC-PVTZ
  Basis Set: (AUG-CC-PVTZ AUX)
    Blend: AUG-CC-PVTZ-JKFIT

    Orbital Energies [Eh]
    ---------------------

    Doubly Occupied:

       1A    -20.391514     2A    -20.309649     3A    -20.290882
       4A    -11.184723     5A     -1.234821     6A     -1.120639
       7A     -1.076630     8A     -0.578119     9A     -0.478299
      10A     -0.440044    11A     -0.415166    12A     -0.375521
      13A     -0.287437    14A     -0.247098    15A     -0.212473
      16A     -0.205636

  @DF-RHF Final Energy:  -263.19845238519457

   => Energetics <=

    Nuclear Repulsion Energy =            112.5797369744286982
    One-Electron Energy =                -593.8590767068340028
    Two-Electron Energy =                 218.0808873472107337
    Total Energy =                       -263.1984523851946278
  Basis Set: (AUG-CC-PVTZ AUX)
    Blend: AUG-CC-PVTZ-RI
    Molecular point group: c1

    Geometry (in Angstrom), charge = -1, multiplicity = 1:

       Center              X                  Y                   Z               Mass
    ------------   -----------------  -----------------  -----------------  -----------------
         O            1.029369219886    -0.784927088341     0.000052764452    15.994914619570
         O           -1.201034780114    -0.560496088341    -0.000092235548    15.994914619570
         O            0.135138219886     1.294463911659     0.000024764452    15.994914619570
         C           -0.100506680114     0.081326911659     0.000007864452    12.000000000000
         H            1.776431219886    -0.159585088341     0.000139764452     1.007825032230

  Basis Set: AUG-CC-PVTZ
    Blend: AUG-CC-PVTZ
  Basis Set: (AUG-CC-PVTZ AUX)
    Blend: AUG-CC-PVTZ-JKFIT
	 Reference Energy          =    -263.1984523851945710 [Eh]
	 Singles Energy            =      -0.0000000000000000 [Eh]
	 Same-Spin Energy          =      -0.2496197425446890 [Eh]
	 Opposite-Spin Energy      =      -0.7063448814525808 [Eh]
	 Correlation Energy        =      -0.9559646239972699 [Eh]
	 Total Energy              =    -264.1544170091918318 [Eh]

	 ================> DF-SCS-MP2 Energies <==================
	-----------------------------------------------------------
	 SCS Same-Spin Scale       =       0.3333333333333333 [-]
	 SCS Opposite-Spin Scale   =       1.2000000000000000 [-]
	 SCS Same-Spin Energy      =      -0.0832065808482297 [Eh]
	 SCS Opposite-Spin Energy  =      -0.8476138577430969 [Eh]
	 SCS Correlation Energy    =      -0.9308204385913266 [Eh]
	 SCS Total Energy          =    -264.1292728237859251 [Eh]
	-----------------------------------------------------------

  Dipole Moment: [D]
     X:     2.9315      Y:    -0.1131      Z:     0.0003     Total:     2.9337

*** Psi4 exiting successfully. Buy a developer a beer!
