                               Psi4 1.3.2 release

  ==> Input File <==

--------------------------------------------------------------------------
#psi4
#
memory 32 gb

molecule  {
-1 1
  O        1.0038370    -0.7785270     0.0000510
  O       -1.2265670    -0.5540960    -0.0000940
  O        0.1096060     1.3008640     0.0000230
  C       -0.1011516     0.2638691     0.0000070
  H        1.7508990    -0.1531850     0.0001380
units angstrom
no_reorient  #important for SAPT in psi4, default
symmetry c1  #important for SAPT in psi4, default
}

set PROPERTIES_ORIGIN ["COM"]
properties('MP2/aug-cc-pvtz', properties = ['dipole'])
--------------------------------------------------------------------------

    Molecular point group: c1
  Charge       = -1
  Multiplicity = 1
  Basis Set: AUG-CC-PVTZ
    Blend: AUG-CC-PVTZ
  Basis Set: (AUG-CC-PVTZ AUX)
    Blend: AUG-CC-PVTZ-JKFIT

    Orbital Energies [Eh]
    ---------------------

    Doubly Occupied:

       1A    -20.365264     2A    -20.360510     3A    -20.264043
       4A    -11.176167     5A     -1.330774     6A     -1.134572
       7A     -1.008623     8A     -0.559983     9A     -0.502053
      10A     -0.469400    11A     -0.458637    12A     -0.378390
      13A     -0.296008    14A     -0.237073    15A     -0.185876
      16A     -0.184968

  @DF-RHF Final Energy:  -263.11959446641811

   => Energetics <=

    Nuclear Repulsion Energy =            113.2241373026237596
    One-Electron Energy =                -594.8627819434752837
    Two-Electron Energy =                 218.5190501744334313
    Total Energy =                       -263.1195944664181070
  Basis Set: (AUG-CC-PVTZ AUX)
    Blend: AUG-CC-PVTZ-RI
    Molecular point group: c1

    Geometry (in Angstrom), charge = -1, multiplicity = 1:

       Center              X                  Y                   Z               Mass
    ------------   -----------------  -----------------  -----------------  -----------------
         O            1.024472761097    -0.819582214997     0.000052587381    15.994914619570
         O           -1.205931238903    -0.595151214997    -0.000092412619    15.994914619570
         O            0.130241761097     1.259808785003     0.000024587381    15.994914619570
         C           -0.080515838903     0.222813885003     0.000008587381    12.000000000000
         H            1.771534761097    -0.194240214997     0.000139587381     1.007825032230

  Basis Set: AUG-CC-PVTZ
    Blend: AUG-CC-PVTZ
  Basis Set: (AUG-CC-PVTZ AUX)
    Blend: AUG-CC-PVTZ-JKFIT
	 Reference Energy          =    -263.1195944664181070 [Eh]
	 Singles Energy            =      -0.0000000000000000 [Eh]
	 Same-Spin Energy          =      -0.2495510718085689 [Eh]
	 Opposite-Spin Energy      =      -0.7072240074988423 [Eh]
	 Correlation Energy        =      -0.9567750793074112 [Eh]
	 Total Energy              =    -264.0763695457255267 [Eh]

	 ================> DF-SCS-MP2 Energies <==================
	-----------------------------------------------------------
	 SCS Same-Spin Scale       =       0.3333333333333333 [-]
	 SCS Opposite-Spin Scale   =       1.2000000000000000 [-]
	 SCS Same-Spin Energy      =      -0.0831836906028563 [Eh]
	 SCS Opposite-Spin Energy  =      -0.8486688089986107 [Eh]
	 SCS Correlation Energy    =      -0.9318524996014670 [Eh]
	 SCS Total Energy          =    -264.0514469660195687 [Eh]
	-----------------------------------------------------------

  Dipole Moment: [D]
     X:     3.3634      Y:     2.0886      Z:     0.0003     Total:     3.9591

*** Psi4 exiting successfully. Buy a developer a beer!
