                               Psi4 1.3.2 release

  ==> Input File <==

--------------------------------------------------------------------------
#psi4
#
memory 32 gb

molecule  {
-1 1
  O        1.0038370    -0.7785270     0.0000510
  O       -1.2265670    -0.5540960    -0.0000940
  O        0.1096060     1.3008640     0.0000230
  C       -0.1808184    -0.1281171     0.0000010
  H        1.7508990    -0.1531850     0.0001380
units angstrom
no_reorient  #important for SAPT in psi4, default
symmetry c1  #important for SAPT in psi4, default
}

set PROPERTIES_ORIGIN ["COM"]
properties('MP2/aug-cc-pvtz', properties = ['dipole'])
--------------------------------------------------------------------------

    Molecular point group: c1
  Charge       = -1
  Multiplicity = 1
  Basis Set: AUG-CC-PVTZ
    Blend: AUG-CC-PVTZ
  Basis Set: (AUG-CC-PVTZ AUX)
    Blend: AUG-CC-PVTZ-JKFIT

    Orbital Energies [Eh]
    ---------------------

    Doubly Occupied:

       1A    -20.404625     2A    -20.333177     3A    -20.255140
       4A    -11.180591     5A     -1.274551     6A     -1.188981
       7A     -0.974374     8A     -0.626018     9A     -0.488769
      10A     -0.462158    11A     -0.441373    12A     -0.374598
      13A     -0.308914    14A     -0.223617    15A     -0.173777
      16A     -0.171693

  @DF-RHF Final Energy:  -263.14967672694206

   => Energetics <=

    Nuclear Repulsion Energy =            112.9221013892694145
    One-Electron Energy =                -594.3788434670678953
    Two-Electron Energy =                 218.3070653508564192
    Total Energy =                       -263.1496767269420616
  Basis Set: (AUG-CC-PVTZ AUX)
    Blend: AUG-CC-PVTZ-RI
    Molecular point group: c1

    Geometry (in Angstrom), charge = -1, multiplicity = 1:

       Center              X                  Y                   Z               Mass
    ------------   -----------------  -----------------  -----------------  -----------------
         O            1.040146827912    -0.742460780607     0.000053767853    15.994914619570
         O           -1.190257172088    -0.518029780607    -0.000091232147    15.994914619570
         O            0.145915827912     1.336930219393     0.000025767853    15.994914619570
         C           -0.144508572088    -0.092050880607     0.000003767853    12.000000000000
         H            1.787208827912    -0.117118780607     0.000140767853     1.007825032230

  Basis Set: AUG-CC-PVTZ
    Blend: AUG-CC-PVTZ
  Basis Set: (AUG-CC-PVTZ AUX)
    Blend: AUG-CC-PVTZ-JKFIT
	 Reference Energy          =    -263.1496767269420616 [Eh]
	 Singles Energy            =      -0.0000000000000000 [Eh]
	 Same-Spin Energy          =      -0.2493772643269773 [Eh]
	 Opposite-Spin Energy      =      -0.7063785237430102 [Eh]
	 Correlation Energy        =      -0.9557557880699876 [Eh]
	 Total Energy              =    -264.1054325150120690 [Eh]

	 ================> DF-SCS-MP2 Energies <==================
	-----------------------------------------------------------
	 SCS Same-Spin Scale       =       0.3333333333333333 [-]
	 SCS Opposite-Spin Scale   =       1.2000000000000000 [-]
	 SCS Same-Spin Energy      =      -0.0831257547756591 [Eh]
	 SCS Opposite-Spin Energy  =      -0.8476542284916123 [Eh]
	 SCS Correlation Energy    =      -0.9307799832672714 [Eh]
	 SCS Total Energy          =    -264.0804567102093188 [Eh]
	-----------------------------------------------------------

  Dipole Moment: [D]
     X:     2.0286      Y:    -2.7240      Z:     0.0002     Total:     3.3963

*** Psi4 exiting successfully. Buy a developer a beer!
