                               Psi4 1.3.2 release

  ==> Input File <==

--------------------------------------------------------------------------
#psi4
#
memory 32 gb

molecule  {
-1 1
  O        1.0038370    -0.7785270     0.0000510
  O       -1.2265670    -0.5540960    -0.0000940
  O        0.1096060     1.3008640     0.0000230
  C       -0.2231867    -0.0564272    -0.0000082
  H        1.7508990    -0.1531850     0.0001380
units angstrom
no_reorient  #important for SAPT in psi4, default
symmetry c1  #important for SAPT in psi4, default
}

set PROPERTIES_ORIGIN ["COM"]
properties('MP2/aug-cc-pvtz', properties = ['dipole'])
--------------------------------------------------------------------------

    Molecular point group: c1
  Charge       = -1
  Multiplicity = 1
  Basis Set: AUG-CC-PVTZ
    Blend: AUG-CC-PVTZ
  Basis Set: (AUG-CC-PVTZ AUX)
    Blend: AUG-CC-PVTZ-JKFIT

    Orbital Energies [Eh]
    ---------------------

    Doubly Occupied:

       1A    -20.383287     2A    -20.333937     3A    -20.267973
       4A    -11.179025     5A     -1.270407     6A     -1.161666
       7A     -1.007747     8A     -0.592403     9A     -0.488507
      10A     -0.444536    11A     -0.430372    12A     -0.381968
      13A     -0.301111    14A     -0.238707    15A     -0.189214
      16A     -0.188195

  @DF-RHF Final Energy:  -263.16517707476771

   => Energetics <=

    Nuclear Repulsion Energy =            112.8715117521794156
    One-Electron Energy =                -594.3552694044633427
    Two-Electron Energy =                 218.3185805775162294
    Total Energy =                       -263.1651770747677119
  Basis Set: (AUG-CC-PVTZ AUX)
    Blend: AUG-CC-PVTZ-RI
    Molecular point group: c1

    Geometry (in Angstrom), charge = -1, multiplicity = 1:

       Center              X                  Y                   Z               Mass
    ------------   -----------------  -----------------  -----------------  -----------------
         O            1.048482590927    -0.756565430003     0.000055577909    15.994914619570
         O           -1.181921409073    -0.532134430003    -0.000089422091    15.994914619570
         O            0.154251590927     1.322825569997     0.000027577909    15.994914619570
         C           -0.178541109073    -0.034465630003    -0.000003622091    12.000000000000
         H            1.795544590927    -0.131223430003     0.000142577909     1.007825032230

  Basis Set: AUG-CC-PVTZ
    Blend: AUG-CC-PVTZ
  Basis Set: (AUG-CC-PVTZ AUX)
    Blend: AUG-CC-PVTZ-JKFIT
	 Reference Energy          =    -263.1651770747677119 [Eh]
	 Singles Energy            =      -0.0000000000000000 [Eh]
	 Same-Spin Energy          =      -0.2488809803747861 [Eh]
	 Opposite-Spin Energy      =      -0.7053275312442306 [Eh]
	 Correlation Energy        =      -0.9542085116190167 [Eh]
	 Total Energy              =    -264.1193855863867270 [Eh]

	 ================> DF-SCS-MP2 Energies <==================
	-----------------------------------------------------------
	 SCS Same-Spin Scale       =       0.3333333333333333 [-]
	 SCS Opposite-Spin Scale   =       1.2000000000000000 [-]
	 SCS Same-Spin Energy      =      -0.0829603267915953 [Eh]
	 SCS Opposite-Spin Energy  =      -0.8463930374930767 [Eh]
	 SCS Correlation Energy    =      -0.9293533642846721 [Eh]
	 SCS Total Energy          =    -264.0945304390523916 [Eh]
	-----------------------------------------------------------

  Dipole Moment: [D]
     X:     1.6031      Y:    -1.9474      Z:     0.0001     Total:     2.5223

*** Psi4 exiting successfully. Buy a developer a beer!
