                               Psi4 1.4a3.dev225

  ==> Input File <==

--------------------------------------------------------------------------
#psi4
#
memory 32 gb

molecule  {
-1 1
  O        1.0038370    -0.7785270     0.0000510
  O       -1.2265670    -0.5540960    -0.0000940
  O        0.1096060     1.3008640     0.0000230
  C       -0.1249030     0.0559861     0.0000047
  H        1.7508990    -0.1531850     0.0001380
units angstrom
no_reorient  #important for SAPT in psi4, default
symmetry c1  #important for SAPT in psi4, default
}

set PROPERTIES_ORIGIN ["COM"]
properties('MP2/aug-cc-pvtz', properties = ['dipole'])
--------------------------------------------------------------------------

    Molecular point group: c1
  Charge       = -1
  Multiplicity = 1
  Basis Set: AUG-CC-PVTZ
    Blend: AUG-CC-PVTZ
  Basis Set: (AUG-CC-PVTZ AUX)
    Blend: AUG-CC-PVTZ-JKFIT

    Orbital Energies [Eh]
    ---------------------

    Doubly Occupied:

       1A    -20.396639     2A    -20.301487     3A    -20.294981
       4A    -11.185048     5A     -1.237380     6A     -1.116495
       7A     -1.074742     8A     -0.587768     9A     -0.477122
      10A     -0.440191    11A     -0.417025    12A     -0.371970
      13A     -0.285572    14A     -0.246873    15A     -0.210845
      16A     -0.204185

  @DF-RHF Final Energy:  -263.19902287552162

   => Energetics <=

    Nuclear Repulsion Energy =            112.5686230737796905
    One-Electron Energy =                -593.8386498059410314
    Two-Electron Energy =                 218.0710038566397202
    Total Energy =                       -263.1990228755216208
  Basis Set: (AUG-CC-PVTZ AUX)
    Blend: AUG-CC-PVTZ-RI
    Molecular point group: c1

    Geometry (in Angstrom), charge = -1, multiplicity = 1:

       Center              X                  Y                   Z               Mass
    ------------   -----------------  -----------------  -----------------  -----------------
         O            1.029145736923    -0.778682216106     0.000053039895    15.994914619570
         O           -1.201258263077    -0.554251216106    -0.000091960105    15.994914619570
         O            0.134914736923     1.300708783894     0.000025039895    15.994914619570
         C           -0.099594263077     0.055830883894     0.000006739895    12.000000000000
         H            1.776207736923    -0.153340216106     0.000140039895     1.007825032230

  Basis Set: AUG-CC-PVTZ
    Blend: AUG-CC-PVTZ
  Basis Set: (AUG-CC-PVTZ AUX)
    Blend: AUG-CC-PVTZ-JKFIT
	 Reference Energy          =    -263.1990228755216208 [Eh]
	 Singles Energy            =      -0.0000000000000000 [Eh]
	 Same-Spin Energy          =      -0.2495875243188700 [Eh]
	 Opposite-Spin Energy      =      -0.7062086425609904 [Eh]
	 Correlation Energy        =      -0.9557961668798604 [Eh]
	 Total Energy              =    -264.1548190424014706 [Eh]

	 ================> DF-SCS-MP2 Energies <==================
	-----------------------------------------------------------
	 SCS Same-Spin Scale       =       0.3333333333333333 [-]
	 SCS Opposite-Spin Scale   =       1.2000000000000000 [-]
	 SCS Same-Spin Energy      =      -0.0831958414396233 [Eh]
	 SCS Opposite-Spin Energy  =      -0.8474503710731884 [Eh]
	 SCS Correlation Energy    =      -0.9306462125128118 [Eh]
	 SCS Total Energy          =    -264.1296690880344045 [Eh]
	-----------------------------------------------------------

  Dipole Moment: [D]
     X:     2.9124      Y:    -0.4893      Z:     0.0003     Total:     2.9533

*** Psi4 exiting successfully. Buy a developer a beer!
