                               Psi4 1.3.2 release

  ==> Input File <==

--------------------------------------------------------------------------
#psi4
#
memory 32 gb

molecule  {
-1 1
  O        1.0600904    -0.6966065     0.0000541
  O       -1.2265670    -0.5540960    -0.0000940
  O        0.1096060     1.3008640     0.0000230
  C       -0.1409850     0.0678760     0.0000040
  H        1.7508990    -0.1531850     0.0001380
units angstrom
no_reorient  #important for SAPT in psi4, default
symmetry c1  #important for SAPT in psi4, default
}

set PROPERTIES_ORIGIN ["COM"]
properties('MP2/aug-cc-pvtz', properties = ['dipole'])
--------------------------------------------------------------------------

    Molecular point group: c1
  Charge       = -1
  Multiplicity = 1
  Basis Set: AUG-CC-PVTZ
    Blend: AUG-CC-PVTZ
  Basis Set: (AUG-CC-PVTZ AUX)
    Blend: AUG-CC-PVTZ-JKFIT

    Orbital Energies [Eh]
    ---------------------

    Doubly Occupied:

       1A    -20.377482     2A    -20.303041     3A    -20.298034
       4A    -11.186823     5A     -1.243112     6A     -1.129155
       7A     -1.080780     8A     -0.610280     9A     -0.475085
      10A     -0.442045    11A     -0.414824    12A     -0.377837
      13A     -0.287097    14A     -0.245934    15A     -0.214909
      16A     -0.207588

  @DF-RHF Final Energy:  -263.19471885753762

   => Energetics <=

    Nuclear Repulsion Energy =            113.0608389004192702
    One-Electron Energy =                -594.7230629665302786
    Two-Electron Energy =                 218.4675052085733569
    Total Energy =                       -263.1947188575376231
  Basis Set: (AUG-CC-PVTZ AUX)
    Blend: AUG-CC-PVTZ-RI
    Molecular point group: c1

    Geometry (in Angstrom), charge = -1, multiplicity = 1:

       Center              X                  Y                   Z               Mass
    ------------   -----------------  -----------------  -----------------  -----------------
         O            1.073811096889    -0.720584129713     0.000055464661    15.994914619570
         O           -1.212846303111    -0.578073629713    -0.000092635339    15.994914619570
         O            0.123326696889     1.276886370287     0.000024364661    15.994914619570
         C           -0.127264303111     0.043898370287     0.000005364661    12.000000000000
         H            1.764619696889    -0.177162629713     0.000139364661     1.007825032230

  Basis Set: AUG-CC-PVTZ
    Blend: AUG-CC-PVTZ
  Basis Set: (AUG-CC-PVTZ AUX)
    Blend: AUG-CC-PVTZ-JKFIT
	 Reference Energy          =    -263.1947188575376231 [Eh]
	 Singles Energy            =      -0.0000000000000000 [Eh]
	 Same-Spin Energy          =      -0.2481606733271841 [Eh]
	 Opposite-Spin Energy      =      -0.7028957645874464 [Eh]
	 Correlation Energy        =      -0.9510564379146305 [Eh]
	 Total Energy              =    -264.1457752954522675 [Eh]

	 ================> DF-SCS-MP2 Energies <==================
	-----------------------------------------------------------
	 SCS Same-Spin Scale       =       0.3333333333333333 [-]
	 SCS Opposite-Spin Scale   =       1.2000000000000000 [-]
	 SCS Same-Spin Energy      =      -0.0827202244423947 [Eh]
	 SCS Opposite-Spin Energy  =      -0.8434749175049356 [Eh]
	 SCS Correlation Energy    =      -0.9261951419473303 [Eh]
	 SCS Total Energy          =    -264.1209139994849693 [Eh]
	-----------------------------------------------------------

  Dipole Moment: [D]
     X:     2.6749      Y:    -0.4147      Z:     0.0002     Total:     2.7069

*** Psi4 exiting successfully. Buy a developer a beer!
