                               Psi4 1.4a3.dev225

  ==> Input File <==

--------------------------------------------------------------------------
#psi4
#
memory 32 gb

molecule  {
-1 1
  O        1.0038370    -0.7785270     0.0000510
  O       -1.2265670    -0.5540960    -0.0000940
  O        0.1096060     1.3008640     0.0000230
  C       -0.1007801     0.0381512     0.0000057
  H        1.7508990    -0.1531850     0.0001380
units angstrom
no_reorient  #important for SAPT in psi4, default
symmetry c1  #important for SAPT in psi4, default
}

set PROPERTIES_ORIGIN ["COM"]
properties('MP2/aug-cc-pvtz', properties = ['dipole'])
--------------------------------------------------------------------------

    Molecular point group: c1
  Charge       = -1
  Multiplicity = 1
  Basis Set: AUG-CC-PVTZ
    Blend: AUG-CC-PVTZ
  Basis Set: (AUG-CC-PVTZ AUX)
    Blend: AUG-CC-PVTZ-JKFIT

    Orbital Energies [Eh]
    ---------------------

    Doubly Occupied:

       1A    -20.405886     2A    -20.298735     3A    -20.291960
       4A    -11.185708     5A     -1.247518     6A     -1.115031
       7A     -1.063772     8A     -0.600487     9A     -0.482605
      10A     -0.439773    11A     -0.422917    12A     -0.364793
      13A     -0.283958    14A     -0.247540    15A     -0.205312
      16A     -0.199372

  @DF-RHF Final Energy:  -263.19588990915480

   => Energetics <=

    Nuclear Repulsion Energy =            112.5758822905105916
    One-Electron Energy =                -593.8328100510631202
    Two-Electron Energy =                 218.0610378513977423
    Total Energy =                       -263.1958899091547437
  Basis Set: (AUG-CC-PVTZ AUX)
    Blend: AUG-CC-PVTZ-RI
    Molecular point group: c1

    Geometry (in Angstrom), charge = -1, multiplicity = 1:

       Center              X                  Y                   Z               Mass
    ------------   -----------------  -----------------  -----------------  -----------------
         O            1.024399670226    -0.775173283725     0.000052843150    15.994914619570
         O           -1.206004329774    -0.550742283725    -0.000092156850    15.994914619570
         O            0.130168670226     1.304217716275     0.000024843150    15.994914619570
         C           -0.080217429774     0.041504916275     0.000007543150    12.000000000000
         H            1.771461670226    -0.149831283725     0.000139843150     1.007825032230

  Basis Set: AUG-CC-PVTZ
    Blend: AUG-CC-PVTZ
  Basis Set: (AUG-CC-PVTZ AUX)
    Blend: AUG-CC-PVTZ-JKFIT
	 Reference Energy          =    -263.1958899091548005 [Eh]
	 Singles Energy            =      -0.0000000000000000 [Eh]
	 Same-Spin Energy          =      -0.2497115213868131 [Eh]
	 Opposite-Spin Energy      =      -0.7063809488995816 [Eh]
	 Correlation Energy        =      -0.9560924702863947 [Eh]
	 Total Energy              =    -264.1519823794412218 [Eh]

	 ================> DF-SCS-MP2 Energies <==================
	-----------------------------------------------------------
	 SCS Same-Spin Scale       =       0.3333333333333333 [-]
	 SCS Opposite-Spin Scale   =       1.2000000000000000 [-]
	 SCS Same-Spin Energy      =      -0.0832371737956044 [Eh]
	 SCS Opposite-Spin Energy  =      -0.8476571386794979 [Eh]
	 SCS Correlation Energy    =      -0.9308943124751022 [Eh]
	 SCS Total Energy          =    -264.1267842216299186 [Eh]
	-----------------------------------------------------------

  Dipole Moment: [D]
     X:     3.1727      Y:    -0.6700      Z:     0.0003     Total:     3.2426

*** Psi4 exiting successfully. Buy a developer a beer!
