                               Psi4 1.3.2 release

  ==> Input File <==

--------------------------------------------------------------------------
#psi4
#
memory 32 gb

molecule  {
-1 1
  O        1.0038370    -0.7785270     0.0000510
  O       -1.2265670    -0.5540960    -0.0000940
  O        0.1096060     1.3008640     0.0000230
  C       -0.3145206    -0.0315493    -0.0000117
  H        1.7508990    -0.1531850     0.0001380
units angstrom
no_reorient  #important for SAPT in psi4, default
symmetry c1  #important for SAPT in psi4, default
}

set PROPERTIES_ORIGIN ["COM"]
properties('MP2/aug-cc-pvtz', properties = ['dipole'])
--------------------------------------------------------------------------

    Molecular point group: c1
  Charge       = -1
  Multiplicity = 1
  Basis Set: AUG-CC-PVTZ
    Blend: AUG-CC-PVTZ
  Basis Set: (AUG-CC-PVTZ AUX)
    Blend: AUG-CC-PVTZ-JKFIT

    Orbital Energies [Eh]
    ---------------------

    Doubly Occupied:

       1A    -20.354869     2A    -20.350727     3A    -20.269993
       4A    -11.174694     5A     -1.326879     6A     -1.126082
       7A     -1.007965     8A     -0.571031     9A     -0.511848
      10A     -0.454778    11A     -0.433419    12A     -0.388113
      13A     -0.287797    14A     -0.238561    15A     -0.192836
      16A     -0.185388

  @DF-RHF Final Energy:  -263.12432302728428

   => Energetics <=

    Nuclear Repulsion Energy =            113.1978342298151006
    One-Electron Energy =                -594.8943536114319386
    Two-Electron Energy =                 218.5721963543325614
    Total Energy =                       -263.1243230272842766
  Basis Set: (AUG-CC-PVTZ AUX)
    Blend: AUG-CC-PVTZ-RI
    Molecular point group: c1

    Geometry (in Angstrom), charge = -1, multiplicity = 1:

       Center              X                  Y                   Z               Mass
    ------------   -----------------  -----------------  -----------------  -----------------
         O            1.066452104590    -0.761460039387     0.000056266518    15.994914619570
         O           -1.163951895410    -0.537029039387    -0.000088733482    15.994914619570
         O            0.172221104590     1.317930960613     0.000028266518    15.994914619570
         C           -0.251905495410    -0.014482339387    -0.000006433482    12.000000000000
         H            1.813514104590    -0.136118039387     0.000143266518     1.007825032230

  Basis Set: AUG-CC-PVTZ
    Blend: AUG-CC-PVTZ
  Basis Set: (AUG-CC-PVTZ AUX)
    Blend: AUG-CC-PVTZ-JKFIT
	 Reference Energy          =    -263.1243230272842766 [Eh]
	 Singles Energy            =      -0.0000000000000000 [Eh]
	 Same-Spin Energy          =      -0.2484752010301816 [Eh]
	 Opposite-Spin Energy      =      -0.7048605931391961 [Eh]
	 Correlation Energy        =      -0.9533357941693776 [Eh]
	 Total Energy              =    -264.0776588214536673 [Eh]

	 ================> DF-SCS-MP2 Energies <==================
	-----------------------------------------------------------
	 SCS Same-Spin Scale       =       0.3333333333333333 [-]
	 SCS Opposite-Spin Scale   =       1.2000000000000000 [-]
	 SCS Same-Spin Energy      =      -0.0828250670100605 [Eh]
	 SCS Opposite-Spin Energy  =      -0.8458327117670353 [Eh]
	 SCS Correlation Energy    =      -0.9286577787770959 [Eh]
	 SCS Total Energy          =    -264.0529808060613846 [Eh]
	-----------------------------------------------------------

  Dipole Moment: [D]
     X:     0.4525      Y:    -1.7552      Z:     0.0001     Total:     1.8126

*** Psi4 exiting successfully. Buy a developer a beer!
