                               Psi4 1.4a3.dev225

  ==> Input File <==

--------------------------------------------------------------------------
#psi4
#
memory 32 gb

molecule  {
-1 1
  O        1.0038370    -0.7785270     0.0000510
  O       -1.2265670    -0.5540960    -0.0000940
  O        0.1096060     1.3008640     0.0000230
  C       -0.1236314     0.0778185     0.0000056
  H        1.7508990    -0.1531850     0.0001380
units angstrom
no_reorient  #important for SAPT in psi4, default
symmetry c1  #important for SAPT in psi4, default
}

set PROPERTIES_ORIGIN ["COM"]
properties('MP2/aug-cc-pvtz', properties = ['dipole'])
--------------------------------------------------------------------------

    Molecular point group: c1
  Charge       = -1
  Multiplicity = 1
  Basis Set: AUG-CC-PVTZ
    Blend: AUG-CC-PVTZ
  Basis Set: (AUG-CC-PVTZ AUX)
    Blend: AUG-CC-PVTZ-JKFIT

    Orbital Energies [Eh]
    ---------------------

    Doubly Occupied:

       1A    -20.393722     2A    -20.307210     3A    -20.291681
       4A    -11.184871     5A     -1.235732     6A     -1.118824
       7A     -1.076240     8A     -0.581622     9A     -0.478206
      10A     -0.439943    11A     -0.415838    12A     -0.374124
      13A     -0.286860    14A     -0.247142    15A     -0.211794
      16A     -0.204967

  @DF-RHF Final Energy:  -263.19874740076943

   => Energetics <=

    Nuclear Repulsion Energy =            112.5747966350508307
    One-Electron Energy =                -593.8495386193549166
    Two-Electron Energy =                 218.0759945835347082
    Total Energy =                       -263.1987474007694345
  Basis Set: (AUG-CC-PVTZ AUX)
    Blend: AUG-CC-PVTZ-RI
    Molecular point group: c1

    Geometry (in Angstrom), charge = -1, multiplicity = 1:

       Center              X                  Y                   Z               Mass
    ------------   -----------------  -----------------  -----------------  -----------------
         O            1.028895555626    -0.782977637741     0.000052862824    15.994914619570
         O           -1.201508444374    -0.558546637741    -0.000092137176    15.994914619570
         O            0.134664555626     1.296413362259     0.000024862824    15.994914619570
         C           -0.098572844374     0.073367862259     0.000007462824    12.000000000000
         H            1.775957555626    -0.157635637741     0.000139862824     1.007825032230

  Basis Set: AUG-CC-PVTZ
    Blend: AUG-CC-PVTZ
  Basis Set: (AUG-CC-PVTZ AUX)
    Blend: AUG-CC-PVTZ-JKFIT
	 Reference Energy          =    -263.1987474007694345 [Eh]
	 Singles Energy            =      -0.0000000000000000 [Eh]
	 Same-Spin Energy          =      -0.2496160305295382 [Eh]
	 Opposite-Spin Energy      =      -0.7063103907606059 [Eh]
	 Correlation Energy        =      -0.9559264212901440 [Eh]
	 Total Energy              =    -264.1546738220595785 [Eh]

	 ================> DF-SCS-MP2 Energies <==================
	-----------------------------------------------------------
	 SCS Same-Spin Scale       =       0.3333333333333333 [-]
	 SCS Opposite-Spin Scale   =       1.2000000000000000 [-]
	 SCS Same-Spin Energy      =      -0.0832053435098461 [Eh]
	 SCS Opposite-Spin Energy  =      -0.8475724689127270 [Eh]
	 SCS Correlation Energy    =      -0.9307778124225731 [Eh]
	 SCS Total Energy          =    -264.1295252131919824 [Eh]
	-----------------------------------------------------------

  Dipole Moment: [D]
     X:     2.9500      Y:    -0.2288      Z:     0.0003     Total:     2.9589

*** Psi4 exiting successfully. Buy a developer a beer!
