                               Psi4 1.3.2 release

  ==> Input File <==

--------------------------------------------------------------------------
#psi4
#
memory 32 gb

molecule  {
-1 1
  O        1.0038370    -0.7785270     0.0000510
  O       -1.2673092    -0.4768545    -0.0000980
  O        0.1096060     1.3008640     0.0000230
  C       -0.1409850     0.0678760     0.0000040
  H        1.7508990    -0.1531850     0.0001380
units angstrom
no_reorient  #important for SAPT in psi4, default
symmetry c1  #important for SAPT in psi4, default
}

set PROPERTIES_ORIGIN ["COM"]
properties('MP2/aug-cc-pvtz', properties = ['dipole'])
--------------------------------------------------------------------------

    Molecular point group: c1
  Charge       = -1
  Multiplicity = 1
  Basis Set: AUG-CC-PVTZ
    Blend: AUG-CC-PVTZ
  Basis Set: (AUG-CC-PVTZ AUX)
    Blend: AUG-CC-PVTZ-JKFIT

    Orbital Energies [Eh]
    ---------------------

    Doubly Occupied:

       1A    -20.396057     2A    -20.297954     3A    -20.296545
       4A    -11.183961     5A     -1.232930     6A     -1.121523
       7A     -1.075063     8A     -0.583211     9A     -0.474215
      10A     -0.441998    11A     -0.414804    12A     -0.374592
      13A     -0.288682    14A     -0.247999    15A     -0.209207
      16A     -0.203585

  @DF-RHF Final Energy:  -263.19869433392506

   => Energetics <=

    Nuclear Repulsion Energy =            112.4743179890308795
    One-Electron Energy =                -593.6613745359120458
    Two-Electron Energy =                 217.9883622129561331
    Total Energy =                       -263.1986943339250615
  Basis Set: (AUG-CC-PVTZ AUX)
    Blend: AUG-CC-PVTZ-RI
    Molecular point group: c1

    Geometry (in Angstrom), charge = -1, multiplicity = 1:

       Center              X                  Y                   Z               Mass
    ------------   -----------------  -----------------  -----------------  -----------------
         O            1.042994178229    -0.801277591619     0.000054226591    15.994914619570
         O           -1.228152021771    -0.499605091619    -0.000094773409    15.994914619570
         O            0.148763178229     1.278113408381     0.000026226591    15.994914619570
         C           -0.101827821771     0.045125408381     0.000007226591    12.000000000000
         H            1.790056178229    -0.175935591619     0.000141226591     1.007825032230

  Basis Set: AUG-CC-PVTZ
    Blend: AUG-CC-PVTZ
  Basis Set: (AUG-CC-PVTZ AUX)
    Blend: AUG-CC-PVTZ-JKFIT
	 Reference Energy          =    -263.1986943339250615 [Eh]
	 Singles Energy            =      -0.0000000000000000 [Eh]
	 Same-Spin Energy          =      -0.2494427289974467 [Eh]
	 Opposite-Spin Energy      =      -0.7059962967865607 [Eh]
	 Correlation Energy        =      -0.9554390257840074 [Eh]
	 Total Energy              =    -264.1541333597090784 [Eh]

	 ================> DF-SCS-MP2 Energies <==================
	-----------------------------------------------------------
	 SCS Same-Spin Scale       =       0.3333333333333333 [-]
	 SCS Opposite-Spin Scale   =       1.2000000000000000 [-]
	 SCS Same-Spin Energy      =      -0.0831475763324822 [Eh]
	 SCS Opposite-Spin Energy  =      -0.8471955561438729 [Eh]
	 SCS Correlation Energy    =      -0.9303431324763551 [Eh]
	 SCS Total Energy          =    -264.1290374664014280 [Eh]
	-----------------------------------------------------------

  Dipole Moment: [D]
     X:     2.8189      Y:    -0.5235      Z:     0.0002     Total:     2.8671

*** Psi4 exiting successfully. Buy a developer a beer!
