                               Psi4 1.3.2 release

  ==> Input File <==

--------------------------------------------------------------------------
#psi4
#
memory 32 gb

molecule  {
-1 1
  O        1.0038370    -0.7785270     0.0000510
  O       -1.2265670    -0.5540960    -0.0000940
  O        0.1096060     1.3008640     0.0000230
  C       -0.1409850     0.0678760     0.0000040
  H        1.8275801    -0.0889977     0.0001469
units angstrom
no_reorient  #important for SAPT in psi4, default
symmetry c1  #important for SAPT in psi4, default
}

set PROPERTIES_ORIGIN ["COM"]
properties('MP2/aug-cc-pvtz', properties = ['dipole'])
--------------------------------------------------------------------------

    Molecular point group: c1
  Charge       = -1
  Multiplicity = 1
  Basis Set: AUG-CC-PVTZ
    Blend: AUG-CC-PVTZ
  Basis Set: (AUG-CC-PVTZ AUX)
    Blend: AUG-CC-PVTZ-JKFIT

    Orbital Energies [Eh]
    ---------------------

    Doubly Occupied:

       1A    -20.398296     2A    -20.302360     3A    -20.297371
       4A    -11.183970     5A     -1.223303     6A     -1.103697
       7A     -1.081663     8A     -0.563495     9A     -0.463874
      10A     -0.438684    11A     -0.412423    12A     -0.370289
      13A     -0.283636    14A     -0.245221    15A     -0.212774
      16A     -0.207304

  @DF-RHF Final Energy:  -263.18641792871676

   => Energetics <=

    Nuclear Repulsion Energy =            112.0503524311535273
    One-Electron Energy =                -592.8968231891009282
    Two-Electron Energy =                 217.6600528292306080
    Total Energy =                       -263.1864179287167644
  Basis Set: (AUG-CC-PVTZ AUX)
    Blend: AUG-CC-PVTZ-RI
    Molecular point group: c1

    Geometry (in Angstrom), charge = -1, multiplicity = 1:

       Center              X                  Y                   Z               Mass
    ------------   -----------------  -----------------  -----------------  -----------------
         O            1.031042736345    -0.782082111724     0.000053030555    15.994914619570
         O           -1.199361263655    -0.557651111724    -0.000091969445    15.994914619570
         O            0.136811736345     1.297308888276     0.000025030555    15.994914619570
         C           -0.113779263655     0.064320888276     0.000006030555    12.000000000000
         H            1.854785836345    -0.092552811724     0.000148930555     1.007825032230

  Basis Set: AUG-CC-PVTZ
    Blend: AUG-CC-PVTZ
  Basis Set: (AUG-CC-PVTZ AUX)
    Blend: AUG-CC-PVTZ-JKFIT
	 Reference Energy          =    -263.1864179287167644 [Eh]
	 Singles Energy            =      -0.0000000000000000 [Eh]
	 Same-Spin Energy          =      -0.2507439553594908 [Eh]
	 Opposite-Spin Energy      =      -0.7094394980375096 [Eh]
	 Correlation Energy        =      -0.9601834533970004 [Eh]
	 Total Energy              =    -264.1466013821137722 [Eh]

	 ================> DF-SCS-MP2 Energies <==================
	-----------------------------------------------------------
	 SCS Same-Spin Scale       =       0.3333333333333333 [-]
	 SCS Opposite-Spin Scale   =       1.2000000000000000 [-]
	 SCS Same-Spin Energy      =      -0.0835813184531636 [Eh]
	 SCS Opposite-Spin Energy  =      -0.8513273976450115 [Eh]
	 SCS Correlation Energy    =      -0.9349087160981752 [Eh]
	 SCS Total Energy          =    -264.1213266448149284 [Eh]
	-----------------------------------------------------------

  Dipole Moment: [D]
     X:     2.7653      Y:    -0.3199      Z:     0.0002     Total:     2.7837

*** Psi4 exiting successfully. Buy a developer a beer!
