                               Psi4 1.3.2 release

  ==> Input File <==

--------------------------------------------------------------------------
#psi4
#
memory 32 gb

molecule  {
-1 1
  O        0.9736006    -0.8179651     0.0000494
  O       -1.2265670    -0.5540960    -0.0000940
  O        0.1096060     1.3008640     0.0000230
  C       -0.1409850     0.0678760     0.0000040
  H        1.7508990    -0.1531850     0.0001380
units angstrom
no_reorient  #important for SAPT in psi4, default
symmetry c1  #important for SAPT in psi4, default
}

set PROPERTIES_ORIGIN ["COM"]
properties('MP2/aug-cc-pvtz', properties = ['dipole'])
--------------------------------------------------------------------------

    Molecular point group: c1
  Charge       = -1
  Multiplicity = 1
  Basis Set: AUG-CC-PVTZ
    Blend: AUG-CC-PVTZ
  Basis Set: (AUG-CC-PVTZ AUX)
    Blend: AUG-CC-PVTZ-JKFIT

    Orbital Energies [Eh]
    ---------------------

    Doubly Occupied:

       1A    -20.395925     2A    -20.306203     3A    -20.294353
       4A    -11.184183     5A     -1.228797     6A     -1.110668
       7A     -1.082356     8A     -0.567503     9A     -0.472704
      10A     -0.439292    11A     -0.413980    12A     -0.374483
      13A     -0.285460    14A     -0.246404    15A     -0.213445
      16A     -0.207376

  @DF-RHF Final Energy:  -263.19407238871963

   => Energetics <=

    Nuclear Repulsion Energy =            112.3753271124721778
    One-Electron Energy =                -593.4925387302617992
    Two-Electron Energy =                 217.9231392290700171
    Total Energy =                       -263.1940723887196327
  Basis Set: (AUG-CC-PVTZ AUX)
    Blend: AUG-CC-PVTZ-RI
    Molecular point group: c1

    Geometry (in Angstrom), charge = -1, multiplicity = 1:

       Center              X                  Y                   Z               Mass
    ------------   -----------------  -----------------  -----------------  -----------------
         O            1.010002698765    -0.810117206036     0.000051997207    15.994914619570
         O           -1.190164901235    -0.546248106036    -0.000091402793    15.994914619570
         O            0.146008098765     1.308711893964     0.000025597207    15.994914619570
         C           -0.104582901235     0.075723893964     0.000006597207    12.000000000000
         H            1.787301098765    -0.145337106036     0.000140597207     1.007825032230

  Basis Set: AUG-CC-PVTZ
    Blend: AUG-CC-PVTZ
  Basis Set: (AUG-CC-PVTZ AUX)
    Blend: AUG-CC-PVTZ-JKFIT
	 Reference Energy          =    -263.1940723887196327 [Eh]
	 Singles Energy            =      -0.0000000000000000 [Eh]
	 Same-Spin Energy          =      -0.2503467964374931 [Eh]
	 Opposite-Spin Energy      =      -0.7081322117535648 [Eh]
	 Correlation Energy        =      -0.9584790081910579 [Eh]
	 Total Energy              =    -264.1525513969106669 [Eh]

	 ================> DF-SCS-MP2 Energies <==================
	-----------------------------------------------------------
	 SCS Same-Spin Scale       =       0.3333333333333333 [-]
	 SCS Opposite-Spin Scale   =       1.2000000000000000 [-]
	 SCS Same-Spin Energy      =      -0.0834489321458310 [Eh]
	 SCS Opposite-Spin Energy  =      -0.8497586541042778 [Eh]
	 SCS Correlation Energy    =      -0.9332075862501088 [Eh]
	 SCS Total Energy          =    -264.1272799749697242 [Eh]
	-----------------------------------------------------------

  Dipole Moment: [D]
     X:     2.7461      Y:    -0.3434      Z:     0.0002     Total:     2.7675

*** Psi4 exiting successfully. Buy a developer a beer!
