                               Psi4 1.3.2 release

  ==> Input File <==

--------------------------------------------------------------------------
#psi4
#
memory 32 gb

molecule  {
-1 1
  O        1.0038370    -0.7785270     0.0000510
  O       -1.2265670    -0.5540960    -0.0000940
  O        0.1096060     1.3008640     0.0000230
  C       -0.1409850     0.0678760     0.0000040
  H        1.9042612    -0.0248104     0.0001559
units angstrom
no_reorient  #important for SAPT in psi4, default
symmetry c1  #important for SAPT in psi4, default
}

set PROPERTIES_ORIGIN ["COM"]
properties('MP2/aug-cc-pvtz', properties = ['dipole'])
--------------------------------------------------------------------------

    Molecular point group: c1
  Charge       = -1
  Multiplicity = 1
  Basis Set: AUG-CC-PVTZ
    Blend: AUG-CC-PVTZ
  Basis Set: (AUG-CC-PVTZ AUX)
    Blend: AUG-CC-PVTZ-JKFIT

    Orbital Energies [Eh]
    ---------------------

    Doubly Occupied:

       1A    -20.404916     2A    -20.301482     3A    -20.298019
       4A    -11.183539     5A     -1.217864     6A     -1.094028
       7A     -1.081405     8A     -0.552123     9A     -0.453395
      10A     -0.437192    11A     -0.411327    12A     -0.362533
      13A     -0.282219    14A     -0.244756    15A     -0.210998
      16A     -0.207306

  @DF-RHF Final Energy:  -263.16383957643541

   => Energetics <=

    Nuclear Repulsion Energy =            111.6023356530049426
    One-Electron Energy =                -592.0461470470022505
    Two-Electron Energy =                 217.2799718175618864
    Total Energy =                       -263.1638395764354073
  Basis Set: (AUG-CC-PVTZ AUX)
    Blend: AUG-CC-PVTZ-RI
    Molecular point group: c1

    Geometry (in Angstrom), charge = -1, multiplicity = 1:

       Center              X                  Y                   Z               Mass
    ------------   -----------------  -----------------  -----------------  -----------------
         O            1.029775678185    -0.783142725646     0.000052881842    15.994914619570
         O           -1.200628321815    -0.558711725646    -0.000092118158    15.994914619570
         O            0.135544678185     1.296248274354     0.000024881842    15.994914619570
         C           -0.115046321815     0.063260274354     0.000005881842    12.000000000000
         H            1.930199878185    -0.029426125646     0.000157781842     1.007825032230

  Basis Set: AUG-CC-PVTZ
    Blend: AUG-CC-PVTZ
  Basis Set: (AUG-CC-PVTZ AUX)
    Blend: AUG-CC-PVTZ-JKFIT
	 Reference Energy          =    -263.1638395764354073 [Eh]
	 Singles Energy            =      -0.0000000000000000 [Eh]
	 Same-Spin Energy          =      -0.2518857592809964 [Eh]
	 Opposite-Spin Energy      =      -0.7130536849761252 [Eh]
	 Correlation Energy        =      -0.9649394442571216 [Eh]
	 Total Energy              =    -264.1287790206925479 [Eh]

	 ================> DF-SCS-MP2 Energies <==================
	-----------------------------------------------------------
	 SCS Same-Spin Scale       =       0.3333333333333333 [-]
	 SCS Opposite-Spin Scale   =       1.2000000000000000 [-]
	 SCS Same-Spin Energy      =      -0.0839619197603321 [Eh]
	 SCS Opposite-Spin Energy  =      -0.8556644219713502 [Eh]
	 SCS Correlation Energy    =      -0.9396263417316824 [Eh]
	 SCS Total Energy          =    -264.1034659181671032 [Eh]
	-----------------------------------------------------------

  Dipole Moment: [D]
     X:     2.7723      Y:    -0.2730      Z:     0.0002     Total:     2.7857

*** Psi4 exiting successfully. Buy a developer a beer!
