                               Psi4 1.4a3.dev225

  ==> Input File <==

--------------------------------------------------------------------------
#psi4
#
memory 32 gb

molecule  {
-1 1
  O        1.0038370    -0.7785270     0.0000510
  O       -1.2265670    -0.5540960    -0.0000940
  O        0.1096060     1.3008640     0.0000230
  C       -0.1570670     0.0797659     0.0000033
  H        1.7508990    -0.1531850     0.0001380
units angstrom
no_reorient  #important for SAPT in psi4, default
symmetry c1  #important for SAPT in psi4, default
}

set PROPERTIES_ORIGIN ["COM"]
properties('MP2/aug-cc-pvtz', properties = ['dipole'])
--------------------------------------------------------------------------

    Molecular point group: c1
  Charge       = -1
  Multiplicity = 1
  Basis Set: AUG-CC-PVTZ
    Blend: AUG-CC-PVTZ
  Basis Set: (AUG-CC-PVTZ AUX)
    Blend: AUG-CC-PVTZ-JKFIT

    Orbital Energies [Eh]
    ---------------------

    Doubly Occupied:

       1A    -20.383906     2A    -20.305523     3A    -20.299334
       4A    -11.184557     5A     -1.228841     6A     -1.114530
       7A     -1.089548     8A     -0.572387     9A     -0.472477
      10A     -0.439692    11A     -0.412027    12A     -0.380151
      13A     -0.285309    14A     -0.244823    15A     -0.218119
      16A     -0.210932

  @DF-RHF Final Energy:  -263.20045911945812

   => Energetics <=

    Nuclear Repulsion Energy =            112.5689197735176492
    One-Electron Energy =                -593.8544429578458903
    Two-Electron Energy =                 218.0850640648700960
    Total Energy =                       -263.2004591194581167
  Basis Set: (AUG-CC-PVTZ AUX)
    Blend: AUG-CC-PVTZ-RI
    Molecular point group: c1

    Geometry (in Angstrom), charge = -1, multiplicity = 1:

       Center              X                  Y                   Z               Mass
    ------------   -----------------  -----------------  -----------------  -----------------
         O            1.035473852086    -0.783360779498     0.000053315338    15.994914619570
         O           -1.194930147914    -0.558929779498    -0.000091684662    15.994914619570
         O            0.141242852086     1.296030220502     0.000025315338    15.994914619570
         C           -0.125430147914     0.074932120502     0.000005615338    12.000000000000
         H            1.782535852086    -0.158018779498     0.000140315338     1.007825032230

  Basis Set: AUG-CC-PVTZ
    Blend: AUG-CC-PVTZ
  Basis Set: (AUG-CC-PVTZ AUX)
    Blend: AUG-CC-PVTZ-JKFIT
	 Reference Energy          =    -263.2004591194581167 [Eh]
	 Singles Energy            =      -0.0000000000000000 [Eh]
	 Same-Spin Energy          =      -0.2495274005128529 [Eh]
	 Opposite-Spin Energy      =      -0.7061631201135267 [Eh]
	 Correlation Energy        =      -0.9556905206263795 [Eh]
	 Total Energy              =    -264.1561496400844931 [Eh]

	 ================> DF-SCS-MP2 Energies <==================
	-----------------------------------------------------------
	 SCS Same-Spin Scale       =       0.3333333333333333 [-]
	 SCS Opposite-Spin Scale   =       1.2000000000000000 [-]
	 SCS Same-Spin Energy      =      -0.0831758001709510 [Eh]
	 SCS Opposite-Spin Energy  =      -0.8473957441362320 [Eh]
	 SCS Correlation Energy    =      -0.9305715443071829 [Eh]
	 SCS Total Energy          =    -264.1310306637652729 [Eh]
	-----------------------------------------------------------

  Dipole Moment: [D]
     X:     2.5525      Y:    -0.2414      Z:     0.0002     Total:     2.5639

*** Psi4 exiting successfully. Buy a developer a beer!
