                               Psi4 1.3.2 release

  ==> Input File <==

--------------------------------------------------------------------------
#psi4
#
memory 32 gb

molecule  {
-1 1
  O        1.0038370    -0.7785270     0.0000510
  O       -1.2265670    -0.5540960    -0.0000940
  O        0.1096060     1.3008640     0.0000230
  C       -0.2277528     0.0181634    -0.0000038
  H        1.7508990    -0.1531850     0.0001380
units angstrom
no_reorient  #important for SAPT in psi4, default
symmetry c1  #important for SAPT in psi4, default
}

set PROPERTIES_ORIGIN ["COM"]
properties('MP2/aug-cc-pvtz', properties = ['dipole'])
--------------------------------------------------------------------------

    Molecular point group: c1
  Charge       = -1
  Multiplicity = 1
  Basis Set: AUG-CC-PVTZ
    Blend: AUG-CC-PVTZ
  Basis Set: (AUG-CC-PVTZ AUX)
    Blend: AUG-CC-PVTZ-JKFIT

    Orbital Energies [Eh]
    ---------------------

    Doubly Occupied:

       1A    -20.371923     2A    -20.325413     3A    -20.285434
       4A    -11.181712     5A     -1.247815     6A     -1.140129
       7A     -1.050595     8A     -0.571882     9A     -0.475978
      10A     -0.440850    11A     -0.418316    12A     -0.382468
      13A     -0.289007    14A     -0.247057    15A     -0.207366
      16A     -0.206783

  @DF-RHF Final Energy:  -263.18616367078118

   => Energetics <=

    Nuclear Repulsion Energy =            112.7021596754749595
    One-Electron Energy =                -594.0911905854766246
    Two-Electron Energy =                 218.2028672392204953
    Total Energy =                       -263.1861636707811840
  Basis Set: (AUG-CC-PVTZ AUX)
    Blend: AUG-CC-PVTZ-RI
    Molecular point group: c1

    Geometry (in Angstrom), charge = -1, multiplicity = 1:

       Center              X                  Y                   Z               Mass
    ------------   -----------------  -----------------  -----------------  -----------------
         O            1.049380949547    -0.771240778432     0.000054712230    15.994914619570
         O           -1.181023050453    -0.546809778432    -0.000090287770    15.994914619570
         O            0.155149949547     1.308150221568     0.000026712230    15.994914619570
         C           -0.182208850453     0.025449621568    -0.000000087770    12.000000000000
         H            1.796442949547    -0.145898778432     0.000141712230     1.007825032230

  Basis Set: AUG-CC-PVTZ
    Blend: AUG-CC-PVTZ
  Basis Set: (AUG-CC-PVTZ AUX)
    Blend: AUG-CC-PVTZ-JKFIT
	 Reference Energy          =    -263.1861636707811840 [Eh]
	 Singles Energy            =      -0.0000000000000000 [Eh]
	 Same-Spin Energy          =      -0.2491014826539286 [Eh]
	 Opposite-Spin Energy      =      -0.7055148278563995 [Eh]
	 Correlation Energy        =      -0.9546163105103281 [Eh]
	 Total Energy              =    -264.1407799812915300 [Eh]

	 ================> DF-SCS-MP2 Energies <==================
	-----------------------------------------------------------
	 SCS Same-Spin Scale       =       0.3333333333333333 [-]
	 SCS Opposite-Spin Scale   =       1.2000000000000000 [-]
	 SCS Same-Spin Energy      =      -0.0830338275513095 [Eh]
	 SCS Opposite-Spin Energy  =      -0.8466177934276794 [Eh]
	 SCS Correlation Energy    =      -0.9296516209789889 [Eh]
	 SCS Total Energy          =    -264.1158152917601569 [Eh]
	-----------------------------------------------------------

  Dipole Moment: [D]
     X:     1.6220      Y:    -1.0612      Z:     0.0002     Total:     1.9382

*** Psi4 exiting successfully. Buy a developer a beer!
