                               Psi4 1.3.2 release

  ==> Input File <==

--------------------------------------------------------------------------
#psi4
#
memory 32 gb

molecule  {
-1 1
  O        1.0038370    -0.7785270     0.0000510
  O       -1.1805360    -0.6283073    -0.0000895
  O        0.1096060     1.3008640     0.0000230
  C       -0.1409850     0.0678760     0.0000040
  H        1.7508990    -0.1531850     0.0001380
units angstrom
no_reorient  #important for SAPT in psi4, default
symmetry c1  #important for SAPT in psi4, default
}

set PROPERTIES_ORIGIN ["COM"]
properties('MP2/aug-cc-pvtz', properties = ['dipole'])
--------------------------------------------------------------------------

    Molecular point group: c1
  Charge       = -1
  Multiplicity = 1
  Basis Set: AUG-CC-PVTZ
    Blend: AUG-CC-PVTZ
  Basis Set: (AUG-CC-PVTZ AUX)
    Blend: AUG-CC-PVTZ-JKFIT

    Orbital Energies [Eh]
    ---------------------

    Doubly Occupied:

       1A    -20.384275     2A    -20.308741     3A    -20.297290
       4A    -11.185556     5A     -1.232163     6A     -1.110674
       7A     -1.088379     8A     -0.576378     9A     -0.474926
      10A     -0.437698    11A     -0.413573    12A     -0.377569
      13A     -0.282681    14A     -0.243787    15A     -0.218412
      16A     -0.210933

  @DF-RHF Final Energy:  -263.19834152387517

   => Energetics <=

    Nuclear Repulsion Energy =            112.7222299633897933
    One-Electron Energy =                -594.1550686798522065
    Two-Electron Energy =                 218.2344971925872414
    Total Energy =                       -263.1983415238751718
  Basis Set: (AUG-CC-PVTZ AUX)
    Blend: AUG-CC-PVTZ-RI
    Molecular point group: c1

    Geometry (in Angstrom), charge = -1, multiplicity = 1:

       Center              X                  Y                   Z               Mass
    ------------   -----------------  -----------------  -----------------  -----------------
         O            1.020238456500    -0.761560054730     0.000051997520    15.994914619570
         O           -1.164134543500    -0.611340354730    -0.000088502480    15.994914619570
         O            0.126007456500     1.317830945270     0.000023997520    15.994914619570
         C           -0.124583543500     0.084842945270     0.000004997520    12.000000000000
         H            1.767300456500    -0.136218054730     0.000138997520     1.007825032230

  Basis Set: AUG-CC-PVTZ
    Blend: AUG-CC-PVTZ
  Basis Set: (AUG-CC-PVTZ AUX)
    Blend: AUG-CC-PVTZ-JKFIT
	 Reference Energy          =    -263.1983415238751718 [Eh]
	 Singles Energy            =      -0.0000000000000000 [Eh]
	 Same-Spin Energy          =      -0.2497652548174869 [Eh]
	 Opposite-Spin Energy      =      -0.7065699912636314 [Eh]
	 Correlation Energy        =      -0.9563352460811183 [Eh]
	 Total Energy              =    -264.1546767699562679 [Eh]

	 ================> DF-SCS-MP2 Energies <==================
	-----------------------------------------------------------
	 SCS Same-Spin Scale       =       0.3333333333333333 [-]
	 SCS Opposite-Spin Scale   =       1.2000000000000000 [-]
	 SCS Same-Spin Energy      =      -0.0832550849391623 [Eh]
	 SCS Opposite-Spin Energy  =      -0.8478839895163577 [Eh]
	 SCS Correlation Energy    =      -0.9311390744555200 [Eh]
	 SCS Total Energy          =    -264.1294805983307015 [Eh]
	-----------------------------------------------------------

  Dipole Moment: [D]
     X:     2.6363      Y:    -0.2142      Z:     0.0002     Total:     2.6450

*** Psi4 exiting successfully. Buy a developer a beer!
