                               Psi4 1.3.2 release

  ==> Input File <==

--------------------------------------------------------------------------
#psi4
#
memory 32 gb

molecule  {
0 1
  C        0.0000000     0.4245050     0.0000000
  H       -0.3773750     1.4537240     0.0000000
  O        1.1704280     0.1036740     0.0000000
  O       -1.0419470    -0.4368220    -0.3000000
  H       -0.6504660    -1.3355670     0.0000000
units angstrom
no_reorient  #important for SAPT in psi4, default
symmetry c1  #important for SAPT in psi4, default
}

set PROPERTIES_ORIGIN ["COM"]
properties('MP2/aug-cc-pvtz', properties = ['dipole'])
--------------------------------------------------------------------------

    Molecular point group: c1
  Charge       = 0
  Multiplicity = 1
  Basis Set: AUG-CC-PVTZ
    Blend: AUG-CC-PVTZ
  Basis Set: (AUG-CC-PVTZ AUX)
    Blend: AUG-CC-PVTZ-JKFIT

    Orbital Energies [Eh]
    ---------------------

    Doubly Occupied:

       1A    -20.630911     2A    -20.577657     3A    -11.405309
       4A     -1.459247     5A     -1.368545     6A     -0.879291
       7A     -0.716580     8A     -0.703757     9A     -0.638044
      10A     -0.594399    11A     -0.499373    12A     -0.477359

  @DF-RHF Final Energy:  -188.82782115165355

   => Energetics <=

    Nuclear Repulsion Energy =             68.8973491384269607
    One-Electron Energy =                -395.5494027199787865
    Two-Electron Energy =                 137.8242324298983021
    Total Energy =                       -188.8278211516535521
  Basis Set: (AUG-CC-PVTZ AUX)
    Blend: AUG-CC-PVTZ-RI
    Molecular point group: c1

    Geometry (in Angstrom), charge = 0, multiplicity = 1:

       Center              X                  Y                   Z               Mass
    ------------   -----------------  -----------------  -----------------  -----------------
         C           -0.022152985942     0.427016271159     0.104302236571    12.000000000000
         H           -0.399527985942     1.456235271159     0.104302236571     1.007825032230
         O            1.148275014058     0.106185271159     0.104302236571    15.994914619570
         O           -1.064099985942    -0.434310728841    -0.195697763429    15.994914619570
         H           -0.672618985942    -1.333055728841     0.104302236571     1.007825032230

  Basis Set: AUG-CC-PVTZ
    Blend: AUG-CC-PVTZ
  Basis Set: (AUG-CC-PVTZ AUX)
    Blend: AUG-CC-PVTZ-JKFIT
	 Reference Energy          =    -188.8278211516535521 [Eh]
	 Singles Energy            =      -0.0000000000000000 [Eh]
	 Same-Spin Energy          =      -0.1743351849135316 [Eh]
	 Opposite-Spin Energy      =      -0.5221265222499278 [Eh]
	 Correlation Energy        =      -0.6964617071634593 [Eh]
	 Total Energy              =    -189.5242828588170028 [Eh]

	 ================> DF-SCS-MP2 Energies <==================
	-----------------------------------------------------------
	 SCS Same-Spin Scale       =       0.3333333333333333 [-]
	 SCS Opposite-Spin Scale   =       1.2000000000000000 [-]
	 SCS Same-Spin Energy      =      -0.0581117283045105 [Eh]
	 SCS Opposite-Spin Energy  =      -0.6265518266999134 [Eh]
	 SCS Correlation Energy    =      -0.6846635550044239 [Eh]
	 SCS Total Energy          =    -189.5124847066579719 [Eh]
	-----------------------------------------------------------

  Dipole Moment: [D]
     X:    -1.2757      Y:    -0.1016      Z:     0.5153     Total:     1.3795

*** Psi4 exiting successfully. Buy a developer a beer!
