                               Psi4 1.3.2 release

  ==> Input File <==

--------------------------------------------------------------------------
#psi4
#
memory 32 gb

molecule  {
0 1
  C        0.0000000     0.4245050     0.0000000
  H       -0.3773750     1.4537240     0.0000000
  O        1.1704280     0.1036740     0.0000000
  O       -1.0419470    -0.4368220    -0.1000000
  H       -0.6504660    -1.3355670     0.0000000
units angstrom
no_reorient  #important for SAPT in psi4, default
symmetry c1  #important for SAPT in psi4, default
}

set PROPERTIES_ORIGIN ["COM"]
properties('MP2/aug-cc-pvtz', properties = ['dipole'])
--------------------------------------------------------------------------

    Molecular point group: c1
  Charge       = 0
  Multiplicity = 1
  Basis Set: AUG-CC-PVTZ
    Blend: AUG-CC-PVTZ
  Basis Set: (AUG-CC-PVTZ AUX)
    Blend: AUG-CC-PVTZ-JKFIT

    Orbital Energies [Eh]
    ---------------------

    Doubly Occupied:

       1A    -20.631925     2A    -20.571117     3A    -11.402285
       4A     -1.471072     5A     -1.373122     6A     -0.893380
       7A     -0.721582     8A     -0.712129     9A     -0.636173
      10A     -0.604448    11A     -0.496857    12A     -0.475910

  @DF-RHF Final Energy:  -188.84012913830878

   => Energetics <=

    Nuclear Repulsion Energy =             69.5928393865445258
    One-Electron Energy =                -396.8859362558301882
    Two-Electron Energy =                 138.4529677309768658
    Total Energy =                       -188.8401291383087823
  Basis Set: (AUG-CC-PVTZ AUX)
    Blend: AUG-CC-PVTZ-RI
    Molecular point group: c1

    Geometry (in Angstrom), charge = 0, multiplicity = 1:

       Center              X                  Y                   Z               Mass
    ------------   -----------------  -----------------  -----------------  -----------------
         C           -0.022152985942     0.427016271159     0.034767412190    12.000000000000
         H           -0.399527985942     1.456235271159     0.034767412190     1.007825032230
         O            1.148275014058     0.106185271159     0.034767412190    15.994914619570
         O           -1.064099985942    -0.434310728841    -0.065232587810    15.994914619570
         H           -0.672618985942    -1.333055728841     0.034767412190     1.007825032230

  Basis Set: AUG-CC-PVTZ
    Blend: AUG-CC-PVTZ
  Basis Set: (AUG-CC-PVTZ AUX)
    Blend: AUG-CC-PVTZ-JKFIT
	 Reference Energy          =    -188.8401291383087823 [Eh]
	 Singles Energy            =      -0.0000000000000000 [Eh]
	 Same-Spin Energy          =      -0.1733988889415726 [Eh]
	 Opposite-Spin Energy      =      -0.5192922299348094 [Eh]
	 Correlation Energy        =      -0.6926911188763820 [Eh]
	 Total Energy              =    -189.5328202571851648 [Eh]

	 ================> DF-SCS-MP2 Energies <==================
	-----------------------------------------------------------
	 SCS Same-Spin Scale       =       0.3333333333333333 [-]
	 SCS Opposite-Spin Scale   =       1.2000000000000000 [-]
	 SCS Same-Spin Energy      =      -0.0577996296471909 [Eh]
	 SCS Opposite-Spin Energy  =      -0.6231506759217712 [Eh]
	 SCS Correlation Energy    =      -0.6809503055689621 [Eh]
	 SCS Total Energy          =    -189.5210794438777384 [Eh]
	-----------------------------------------------------------

  Dipole Moment: [D]
     X:    -1.4069      Y:    -0.2034      Z:     0.1692     Total:     1.4315

*** Psi4 exiting successfully. Buy a developer a beer!
