                               Psi4 1.3.2 release

  ==> Input File <==

--------------------------------------------------------------------------
#psi4
#
memory 32 gb

molecule  {
0 1
  C        0.0000000     0.4245050     0.0000000
  H       -0.3773750     1.4537240     0.0000000
  O        1.1704280     0.1036740     0.0000000
  O       -1.0419470    -0.4368220    -0.2000000
  H       -0.6504660    -1.3355670     0.0000000
units angstrom
no_reorient  #important for SAPT in psi4, default
symmetry c1  #important for SAPT in psi4, default
}

set PROPERTIES_ORIGIN ["COM"]
properties('MP2/aug-cc-pvtz', properties = ['dipole'])
--------------------------------------------------------------------------

    Molecular point group: c1
  Charge       = 0
  Multiplicity = 1
  Basis Set: AUG-CC-PVTZ
    Blend: AUG-CC-PVTZ
  Basis Set: (AUG-CC-PVTZ AUX)
    Blend: AUG-CC-PVTZ-JKFIT

    Orbital Energies [Eh]
    ---------------------

    Doubly Occupied:

       1A    -20.631504     2A    -20.573662     3A    -11.403420
       4A     -1.466179     5A     -1.371708     6A     -0.887452
       7A     -0.719221     8A     -0.709584     9A     -0.637099
      10A     -0.600383    11A     -0.497878    12A     -0.476534

  @DF-RHF Final Energy:  -188.83580237470676

   => Energetics <=

    Nuclear Repulsion Energy =             69.3263437598762664
    One-Electron Energy =                -396.3750435644732306
    Two-Electron Energy =                 138.2128974298901767
    Total Energy =                       -188.8358023747067591
  Basis Set: (AUG-CC-PVTZ AUX)
    Blend: AUG-CC-PVTZ-RI
    Molecular point group: c1

    Geometry (in Angstrom), charge = 0, multiplicity = 1:

       Center              X                  Y                   Z               Mass
    ------------   -----------------  -----------------  -----------------  -----------------
         C           -0.022152985942     0.427016271159     0.069534824380    12.000000000000
         H           -0.399527985942     1.456235271159     0.069534824380     1.007825032230
         O            1.148275014058     0.106185271159     0.069534824380    15.994914619570
         O           -1.064099985942    -0.434310728841    -0.130465175620    15.994914619570
         H           -0.672618985942    -1.333055728841     0.069534824380     1.007825032230

  Basis Set: AUG-CC-PVTZ
    Blend: AUG-CC-PVTZ
  Basis Set: (AUG-CC-PVTZ AUX)
    Blend: AUG-CC-PVTZ-JKFIT
	 Reference Energy          =    -188.8358023747067591 [Eh]
	 Singles Energy            =      -0.0000000000000000 [Eh]
	 Same-Spin Energy          =      -0.1737487894228713 [Eh]
	 Opposite-Spin Energy      =      -0.5203510324332737 [Eh]
	 Correlation Energy        =      -0.6940998218561450 [Eh]
	 Total Energy              =    -189.5299021965629152 [Eh]

	 ================> DF-SCS-MP2 Energies <==================
	-----------------------------------------------------------
	 SCS Same-Spin Scale       =       0.3333333333333333 [-]
	 SCS Opposite-Spin Scale   =       1.2000000000000000 [-]
	 SCS Same-Spin Energy      =      -0.0579162631409571 [Eh]
	 SCS Opposite-Spin Energy  =      -0.6244212389199285 [Eh]
	 SCS Correlation Energy    =      -0.6823375020608856 [Eh]
	 SCS Total Energy          =    -189.5181398767676342 [Eh]
	-----------------------------------------------------------

  Dipole Moment: [D]
     X:    -1.3560      Y:    -0.1648      Z:     0.3404     Total:     1.4077

*** Psi4 exiting successfully. Buy a developer a beer!
