                               Psi4 1.3.2 release

  ==> Input File <==

--------------------------------------------------------------------------
#psi4
#
memory 32 gb

molecule  {
0 1
  C        0.0000000     0.4245050     0.0000000
  H       -0.3773750     1.4537240     0.0000000
  O        1.1704280     0.1036740     0.0000000
  O       -1.0419470    -0.4368220    -0.1500000
  H       -0.6504660    -1.3355670     0.0000000
units angstrom
no_reorient  #important for SAPT in psi4, default
symmetry c1  #important for SAPT in psi4, default
}

set PROPERTIES_ORIGIN ["COM"]
properties('MP2/aug-cc-pvtz', properties = ['dipole'])
--------------------------------------------------------------------------

    Molecular point group: c1
  Charge       = 0
  Multiplicity = 1
  Basis Set: AUG-CC-PVTZ
    Blend: AUG-CC-PVTZ
  Basis Set: (AUG-CC-PVTZ AUX)
    Blend: AUG-CC-PVTZ-JKFIT

    Orbital Energies [Eh]
    ---------------------

    Doubly Occupied:

       1A    -20.631743     2A    -20.572192     3A    -11.402758
       4A     -1.468966     5A     -1.372577     6A     -0.890809
       7A     -0.720515     8A     -0.711174     9A     -0.636599
      10A     -0.602701    11A     -0.497294    12A     -0.476182

  @DF-RHF Final Energy:  -188.83837376509408

   => Energetics <=

    Nuclear Repulsion Energy =             69.4809369868687838
    One-Electron Energy =                -396.6716015310195758
    Two-Electron Energy =                 138.3522907790566876
    Total Energy =                       -188.8383737650940759
  Basis Set: (AUG-CC-PVTZ AUX)
    Blend: AUG-CC-PVTZ-RI
    Molecular point group: c1

    Geometry (in Angstrom), charge = 0, multiplicity = 1:

       Center              X                  Y                   Z               Mass
    ------------   -----------------  -----------------  -----------------  -----------------
         C           -0.022152985942     0.427016271159     0.052151118285    12.000000000000
         H           -0.399527985942     1.456235271159     0.052151118285     1.007825032230
         O            1.148275014058     0.106185271159     0.052151118285    15.994914619570
         O           -1.064099985942    -0.434310728841    -0.097848881715    15.994914619570
         H           -0.672618985942    -1.333055728841     0.052151118285     1.007825032230

  Basis Set: AUG-CC-PVTZ
    Blend: AUG-CC-PVTZ
  Basis Set: (AUG-CC-PVTZ AUX)
    Blend: AUG-CC-PVTZ-JKFIT
	 Reference Energy          =    -188.8383737650940759 [Eh]
	 Singles Energy            =      -0.0000000000000000 [Eh]
	 Same-Spin Energy          =      -0.1735445057448206 [Eh]
	 Opposite-Spin Energy      =      -0.5197327726712861 [Eh]
	 Correlation Energy        =      -0.6932772784161068 [Eh]
	 Total Energy              =    -189.5316510435101804 [Eh]

	 ================> DF-SCS-MP2 Energies <==================
	-----------------------------------------------------------
	 SCS Same-Spin Scale       =       0.3333333333333333 [-]
	 SCS Opposite-Spin Scale   =       1.2000000000000000 [-]
	 SCS Same-Spin Energy      =      -0.0578481685816069 [Eh]
	 SCS Opposite-Spin Energy  =      -0.6236793272055433 [Eh]
	 SCS Correlation Energy    =      -0.6815274957871502 [Eh]
	 SCS Total Energy          =    -189.5199012608812268 [Eh]
	-----------------------------------------------------------

  Dipole Moment: [D]
     X:    -1.3854      Y:    -0.1872      Z:     0.2544     Total:     1.4209

*** Psi4 exiting successfully. Buy a developer a beer!
