                               Psi4 1.3.2 release

  ==> Input File <==

--------------------------------------------------------------------------
#psi4
#
memory 32 gb

molecule  {
0 1
  C        0.0000000     0.4245050     0.0000000
  H       -0.3773750     1.4537240     0.0000000
  O        1.1704280     0.1036740     0.0000000
  O       -1.0419470    -0.4368220    -0.0500000
  H       -0.6504660    -1.3355670     0.0000000
units angstrom
no_reorient  #important for SAPT in psi4, default
symmetry c1  #important for SAPT in psi4, default
}

set PROPERTIES_ORIGIN ["COM"]
properties('MP2/aug-cc-pvtz', properties = ['dipole'])
--------------------------------------------------------------------------

    Molecular point group: c1
  Charge       = 0
  Multiplicity = 1
  Basis Set: AUG-CC-PVTZ
    Blend: AUG-CC-PVTZ
  Basis Set: (AUG-CC-PVTZ AUX)
    Blend: AUG-CC-PVTZ-JKFIT

    Orbital Energies [Eh]
    ---------------------

    Doubly Occupied:

       1A    -20.632039     2A    -20.570462     3A    -11.402002
       4A     -1.472381     5A     -1.373418     6A     -0.894995
       7A     -0.722278     8A     -0.712630     9A     -0.635885
      10A     -0.605538    11A     -0.496586    12A     -0.475738

  @DF-RHF Final Energy:  -188.84114757523486

   => Energetics <=

    Nuclear Repulsion Energy =             69.6605857524052965
    One-Electron Energy =                -397.0155598823170067
    Two-Electron Energy =                 138.5138265546768821
    Total Energy =                       -188.8411475752348565
  Basis Set: (AUG-CC-PVTZ AUX)
    Blend: AUG-CC-PVTZ-RI
    Molecular point group: c1

    Geometry (in Angstrom), charge = 0, multiplicity = 1:

       Center              X                  Y                   Z               Mass
    ------------   -----------------  -----------------  -----------------  -----------------
         C           -0.022152985942     0.427016271159     0.017383706095    12.000000000000
         H           -0.399527985942     1.456235271159     0.017383706095     1.007825032230
         O            1.148275014058     0.106185271159     0.017383706095    15.994914619570
         O           -1.064099985942    -0.434310728841    -0.032616293905    15.994914619570
         H           -0.672618985942    -1.333055728841     0.017383706095     1.007825032230

  Basis Set: AUG-CC-PVTZ
    Blend: AUG-CC-PVTZ
  Basis Set: (AUG-CC-PVTZ AUX)
    Blend: AUG-CC-PVTZ-JKFIT
	 Reference Energy          =    -188.8411475752348565 [Eh]
	 Singles Energy            =      -0.0000000000000000 [Eh]
	 Same-Spin Energy          =      -0.1733116365840108 [Eh]
	 Opposite-Spin Energy      =      -0.5190283488867613 [Eh]
	 Correlation Energy        =      -0.6923399854707721 [Eh]
	 Total Energy              =    -189.5334875607056233 [Eh]

	 ================> DF-SCS-MP2 Energies <==================
	-----------------------------------------------------------
	 SCS Same-Spin Scale       =       0.3333333333333333 [-]
	 SCS Opposite-Spin Scale   =       1.2000000000000000 [-]
	 SCS Same-Spin Energy      =      -0.0577705455280036 [Eh]
	 SCS Opposite-Spin Energy  =      -0.6228340186641136 [Eh]
	 SCS Correlation Energy    =      -0.6806045641921172 [Eh]
	 SCS Total Energy          =    -189.5217521394269795 [Eh]
	-----------------------------------------------------------

  Dipole Moment: [D]
     X:    -1.4199      Y:    -0.2131      Z:     0.0845     Total:     1.4383

*** Psi4 exiting successfully. Buy a developer a beer!
