                               Psi4 1.3.2 release

  ==> Input File <==

--------------------------------------------------------------------------
#psi4
#
memory 32 gb

molecule  {
0 1
  C        0.0000000     0.4245050     0.0000000
  H       -0.3773750     1.4537240     0.0000000
  O        1.1704280     0.1036740     0.0000000
  O       -1.0419470    -0.4368220    -0.2500000
  H       -0.6504660    -1.3355670     0.0000000
units angstrom
no_reorient  #important for SAPT in psi4, default
symmetry c1  #important for SAPT in psi4, default
}

set PROPERTIES_ORIGIN ["COM"]
properties('MP2/aug-cc-pvtz', properties = ['dipole'])
--------------------------------------------------------------------------

    Molecular point group: c1
  Charge       = 0
  Multiplicity = 1
  Basis Set: AUG-CC-PVTZ
    Blend: AUG-CC-PVTZ
  Basis Set: (AUG-CC-PVTZ AUX)
    Blend: AUG-CC-PVTZ-JKFIT

    Orbital Energies [Eh]
    ---------------------

    Doubly Occupied:

       1A    -20.631222     2A    -20.575496     3A    -11.404270
       4A     -1.462872     5A     -1.370408     6A     -0.883529
       7A     -0.717873     8A     -0.707155     9A     -0.637604
      10A     -0.597587    11A     -0.498582    12A     -0.476937

  @DF-RHF Final Energy:  -188.83231872471188

   => Energetics <=

    Nuclear Repulsion Energy =             69.1310214807027990
    One-Electron Energy =                -395.9996128591079696
    Two-Electron Energy =                 138.0362726536933167
    Total Energy =                       -188.8323187247118824
  Basis Set: (AUG-CC-PVTZ AUX)
    Blend: AUG-CC-PVTZ-RI
    Molecular point group: c1

    Geometry (in Angstrom), charge = 0, multiplicity = 1:

       Center              X                  Y                   Z               Mass
    ------------   -----------------  -----------------  -----------------  -----------------
         C           -0.022152985942     0.427016271159     0.086918530476    12.000000000000
         H           -0.399527985942     1.456235271159     0.086918530476     1.007825032230
         O            1.148275014058     0.106185271159     0.086918530476    15.994914619570
         O           -1.064099985942    -0.434310728841    -0.163081469524    15.994914619570
         H           -0.672618985942    -1.333055728841     0.086918530476     1.007825032230

  Basis Set: AUG-CC-PVTZ
    Blend: AUG-CC-PVTZ
  Basis Set: (AUG-CC-PVTZ AUX)
    Blend: AUG-CC-PVTZ-JKFIT
	 Reference Energy          =    -188.8323187247118824 [Eh]
	 Singles Energy            =      -0.0000000000000000 [Eh]
	 Same-Spin Energy          =      -0.1740121686837715 [Eh]
	 Opposite-Spin Energy      =      -0.5211483984019625 [Eh]
	 Correlation Energy        =      -0.6951605670857339 [Eh]
	 Total Energy              =    -189.5274792917976185 [Eh]

	 ================> DF-SCS-MP2 Energies <==================
	-----------------------------------------------------------
	 SCS Same-Spin Scale       =       0.3333333333333333 [-]
	 SCS Opposite-Spin Scale   =       1.2000000000000000 [-]
	 SCS Same-Spin Energy      =      -0.0580040562279238 [Eh]
	 SCS Opposite-Spin Energy  =      -0.6253780780823549 [Eh]
	 SCS Correlation Energy    =      -0.6833821343102787 [Eh]
	 SCS Total Energy          =    -189.5157008590221608 [Eh]
	-----------------------------------------------------------

  Dipole Moment: [D]
     X:    -1.3192      Y:    -0.1362      Z:     0.4273     Total:     1.3933

*** Psi4 exiting successfully. Buy a developer a beer!
