                               Psi4 1.4a3.dev225

  ==> Input File <==

--------------------------------------------------------------------------
#psi4
#
memory 32 gb

molecule  {
0 1
  C        1.0769770     0.3750480     0.4036540
  C       -1.0769820     0.3750600     0.4036550
  C        0.0000030     1.4273620     0.0552210
  C       -0.0000090    -0.7130420     0.1804050
  C        2.3595160     0.3194210    -0.4060430
  C       -2.3595260     0.3194330    -0.4060330
  C        3.2477302    -0.9320839    -0.0432542
  C       -3.2195490    -0.8924170    -0.0547640
  H        1.3139090     0.4360540     1.4748590
  H       -1.3139070     0.4360710     1.4748610
  H        0.0000080     2.3782020     0.5982830
  H        0.0000040     1.6360460    -1.0223960
  H       -0.0000100    -1.0431540    -0.8674540
  H       -0.0000130    -1.5954000     0.8282360
  H        2.9313650     1.2434240    -0.2483150
  H        2.0993870     0.2926970    -1.4725700
  H       -2.0994060     0.2927390    -1.4725620
  H       -2.9313940     1.2434200    -0.2482770
  H        2.6724260    -1.8222580    -0.2378450
  H        4.1369510    -0.9193470    -0.6503860
  H        3.5046520    -0.8738050     1.0019030
  H       -3.5045960    -0.8738620     1.0019060
  H       -4.1369540    -0.9193510    -0.6503600
  H       -2.6724020    -1.8222580    -0.2379080
units angstrom
no_reorient  #important for SAPT in psi4, default
symmetry c1  #important for SAPT in psi4, default
}

set PROPERTIES_ORIGIN ["COM"]
properties('MP2/aug-cc-pvtz', properties = ['dipole'])
--------------------------------------------------------------------------

    Molecular point group: c1
  Charge       = 0
  Multiplicity = 1
  Basis Set: AUG-CC-PVTZ
    Blend: AUG-CC-PVTZ
  Basis Set: (AUG-CC-PVTZ AUX)
    Blend: AUG-CC-PVTZ-JKFIT

    Orbital Energies [Eh]
    ---------------------

    Doubly Occupied:

       1A    -11.218317     2A    -11.218270     3A    -11.215323
       4A    -11.213336     5A    -11.211277     6A    -11.210933
       7A    -11.209142     8A    -11.207147     9A     -1.140050
      10A     -1.042593    11A     -1.003531    12A     -0.900675
      13A     -0.891921    14A     -0.843029    15A     -0.768576
      16A     -0.743446    17A     -0.651542    18A     -0.616285
      19A     -0.612051    20A     -0.585229    21A     -0.572201
      22A     -0.537007    23A     -0.530657    24A     -0.521982
      25A     -0.512506    26A     -0.504101    27A     -0.484321
      28A     -0.465378    29A     -0.442376    30A     -0.438500
      31A     -0.420713    32A     -0.406058

  @DF-RHF Final Energy:  -312.34498218172035

   => Energetics <=

    Nuclear Repulsion Energy =            389.4431408602567899
    One-Electron Energy =               -1192.8993004938977265
    Two-Electron Energy =                 491.1111774519205824
    Total Energy =                       -312.3449821817203542
  Basis Set: (AUG-CC-PVTZ AUX)
    Blend: AUG-CC-PVTZ-RI
    Molecular point group: c1

    Geometry (in Angstrom), charge = 0, multiplicity = 1:

       Center              X                  Y                   Z               Mass
    ------------   -----------------  -----------------  -----------------  -----------------
         C            1.073963024953     0.362386802850     0.395980722477    12.000000000000
         C           -1.079995975047     0.362398802850     0.395981722477    12.000000000000
         C           -0.003010975047     1.414700802850     0.047547722477    12.000000000000
         C           -0.003022975047    -0.725703197150     0.172731722477    12.000000000000
         C            2.356502024953     0.306759802850    -0.413716277523    12.000000000000
         C           -2.362539975047     0.306771802850    -0.413706277523    12.000000000000
         C            3.244716224953    -0.944745097150    -0.050927477523    12.000000000000
         C           -3.222562975047    -0.905078197150    -0.062437277523    12.000000000000
         H            1.310895024953     0.423392802850     1.467185722477     1.007825032230
         H           -1.316920975047     0.423409802850     1.467187722477     1.007825032230
         H           -0.003005975047     2.365540802850     0.590609722477     1.007825032230
         H           -0.003009975047     1.623384802850    -1.030069277523     1.007825032230
         H           -0.003023975047    -1.055815197150    -0.875127277523     1.007825032230
         H           -0.003026975047    -1.608061197150     0.820562722477     1.007825032230
         H            2.928351024953     1.230762802850    -0.255988277523     1.007825032230
         H            2.096373024953     0.280035802850    -1.480243277523     1.007825032230
         H           -2.102419975047     0.280077802850    -1.480235277523     1.007825032230
         H           -2.934407975047     1.230758802850    -0.255950277523     1.007825032230
         H            2.669412024953    -1.834919197150    -0.245518277523     1.007825032230
         H            4.133937024953    -0.932008197150    -0.658059277523     1.007825032230
         H            3.501638024953    -0.886466197150     0.994229722477     1.007825032230
         H           -3.507609975047    -0.886523197150     0.994232722477     1.007825032230
         H           -4.139967975047    -0.932012197150    -0.658033277523     1.007825032230
         H           -2.675415975047    -1.834919197150    -0.245581277523     1.007825032230

  Basis Set: AUG-CC-PVTZ
    Blend: AUG-CC-PVTZ
  Basis Set: (AUG-CC-PVTZ AUX)
    Blend: AUG-CC-PVTZ-JKFIT
	 Reference Energy          =    -312.3449821817203542 [Eh]
	 Singles Energy            =      -0.0000000000000000 [Eh]
	 Same-Spin Energy          =      -0.3388736268111073 [Eh]
	 Opposite-Spin Energy      =      -1.2314723306851636 [Eh]
	 Correlation Energy        =      -1.5703459574962708 [Eh]
	 Total Energy              =    -313.9153281392166264 [Eh]

	 ================> DF-SCS-MP2 Energies <==================
	-----------------------------------------------------------
	 SCS Same-Spin Scale       =       0.3333333333333333 [-]
	 SCS Opposite-Spin Scale   =       1.2000000000000000 [-]
	 SCS Same-Spin Energy      =      -0.1129578756037024 [Eh]
	 SCS Opposite-Spin Energy  =      -1.4777667968221964 [Eh]
	 SCS Correlation Energy    =      -1.5907246724258988 [Eh]
	 SCS Total Energy          =    -313.9357068541462468 [Eh]
	-----------------------------------------------------------

  Dipole Moment: [D]
     X:    -0.0040      Y:     0.0786      Z:     0.0855     Total:     0.1162

*** Psi4 exiting successfully. Buy a developer a beer!
