                               Psi4 1.4a3.dev225

  ==> Input File <==

--------------------------------------------------------------------------
#psi4
#
memory 32 gb

molecule  {
0 1
  C        1.0769770     0.3750480     0.4036540
  C       -1.0769820     0.3750600     0.4036550
  C        0.0000030     1.4273620     0.0552210
  C       -0.0000090    -0.7130420     0.1804050
  C        2.3595160     0.3194210    -0.4060430
  C       -2.3595260     0.3194330    -0.4060330
  C        3.2195680    -0.8924030    -0.0547570
  C       -3.2195490    -0.8924170    -0.0547640
  H        1.3139090     0.4360540     1.4748590
  H       -1.3139070     0.4360710     1.4748610
  H        0.0000080     2.3782020     0.5982830
  H        0.0000040     1.6360460    -1.0223960
  H       -0.0000100    -1.0431540    -0.8674540
  H       -0.0000130    -1.5954000     0.8282360
  H        2.9313650     1.2434240    -0.2483150
  H        2.0993870     0.2926970    -1.4725700
  H       -2.0994060     0.2927390    -1.4725620
  H       -2.9313940     1.2434200    -0.2482770
  H        2.6724260    -1.8222580    -0.2378450
  H        4.1369510    -0.9193470    -0.6503860
  H        3.5098609    -0.8734652     1.0212098
  H       -3.5045960    -0.8738620     1.0019060
  H       -4.1369540    -0.9193510    -0.6503600
  H       -2.6724020    -1.8222580    -0.2379080
units angstrom
no_reorient  #important for SAPT in psi4, default
symmetry c1  #important for SAPT in psi4, default
}

set PROPERTIES_ORIGIN ["COM"]
properties('MP2/aug-cc-pvtz', properties = ['dipole'])
--------------------------------------------------------------------------

    Molecular point group: c1
  Charge       = 0
  Multiplicity = 1
  Basis Set: AUG-CC-PVTZ
    Blend: AUG-CC-PVTZ
  Basis Set: (AUG-CC-PVTZ AUX)
    Blend: AUG-CC-PVTZ-JKFIT

    Orbital Energies [Eh]
    ---------------------

    Doubly Occupied:

       1A    -11.218413     2A    -11.218371     3A    -11.213661
       4A    -11.213407     5A    -11.211662     6A    -11.211434
       7A    -11.211020     8A    -11.209188     9A     -1.140659
      10A     -1.045793    11A     -1.007052    12A     -0.898572
      13A     -0.892030    14A     -0.840408    15A     -0.768849
      16A     -0.743743    17A     -0.651782    18A     -0.616624
      19A     -0.612673    20A     -0.583903    21A     -0.572186
      22A     -0.536207    23A     -0.530731    24A     -0.524849
      25A     -0.507571    26A     -0.505129    27A     -0.481641
      28A     -0.463919    29A     -0.442150    30A     -0.441250
      31A     -0.421666    32A     -0.406943

  @DF-RHF Final Energy:  -312.34623725009550

   => Energetics <=

    Nuclear Repulsion Energy =            390.0360641063651883
    One-Electron Energy =               -1194.0776341477685492
    Two-Electron Energy =                 491.6953327913078624
    Total Energy =                       -312.3462372500954984
  Basis Set: (AUG-CC-PVTZ AUX)
    Blend: AUG-CC-PVTZ-RI
    Molecular point group: c1

    Geometry (in Angstrom), charge = 0, multiplicity = 1:

       Center              X                  Y                   Z               Mass
    ------------   -----------------  -----------------  -----------------  -----------------
         C            1.076930214654     0.358136970905     0.397038252123    12.000000000000
         C           -1.077028785346     0.358148970905     0.397039252123    12.000000000000
         C           -0.000043785346     1.410450970905     0.048605252123    12.000000000000
         C           -0.000055785346    -0.729953029095     0.173789252123    12.000000000000
         C            2.359469214654     0.302509970905    -0.412658747877    12.000000000000
         C           -2.359572785346     0.302521970905    -0.412648747877    12.000000000000
         C            3.219521214654    -0.909314029095    -0.061372747877    12.000000000000
         C           -3.219595785346    -0.909328029095    -0.061379747877    12.000000000000
         H            1.313862214654     0.419142970905     1.468243252123     1.007825032230
         H           -1.313953785346     0.419159970905     1.468245252123     1.007825032230
         H           -0.000038785346     2.361290970905     0.591667252123     1.007825032230
         H           -0.000042785346     1.619134970905    -1.029011747877     1.007825032230
         H           -0.000056785346    -1.060065029095    -0.874069747877     1.007825032230
         H           -0.000059785346    -1.612311029095     0.821620252123     1.007825032230
         H            2.931318214654     1.226512970905    -0.254930747877     1.007825032230
         H            2.099340214654     0.275785970905    -1.479185747877     1.007825032230
         H           -2.099452785346     0.275827970905    -1.479177747877     1.007825032230
         H           -2.931440785346     1.226508970905    -0.254892747877     1.007825032230
         H            2.672379214654    -1.839169029095    -0.244460747877     1.007825032230
         H            4.136904214654    -0.936258029095    -0.657001747877     1.007825032230
         H            3.509814114654    -0.890376229095     1.014594052123     1.007825032230
         H           -3.504642785346    -0.890773029095     0.995290252123     1.007825032230
         H           -4.137000785346    -0.936262029095    -0.656975747877     1.007825032230
         H           -2.672448785346    -1.839169029095    -0.244523747877     1.007825032230

  Basis Set: AUG-CC-PVTZ
    Blend: AUG-CC-PVTZ
  Basis Set: (AUG-CC-PVTZ AUX)
    Blend: AUG-CC-PVTZ-JKFIT
	 Reference Energy          =    -312.3462372500954984 [Eh]
	 Singles Energy            =      -0.0000000000000000 [Eh]
	 Same-Spin Energy          =      -0.3390687862119969 [Eh]
	 Opposite-Spin Energy      =      -1.2316344417044816 [Eh]
	 Correlation Energy        =      -1.5707032279164785 [Eh]
	 Total Energy              =    -313.9169404780119521 [Eh]

	 ================> DF-SCS-MP2 Energies <==================
	-----------------------------------------------------------
	 SCS Same-Spin Scale       =       0.3333333333333333 [-]
	 SCS Opposite-Spin Scale   =       1.2000000000000000 [-]
	 SCS Same-Spin Energy      =      -0.1130229287373323 [Eh]
	 SCS Opposite-Spin Energy  =      -1.4779613300453778 [Eh]
	 SCS Correlation Energy    =      -1.5909842587827101 [Eh]
	 SCS Total Energy          =    -313.9372215088782241 [Eh]
	-----------------------------------------------------------

  Dipole Moment: [D]
     X:    -0.0063      Y:     0.0768      Z:     0.0705     Total:     0.1045

*** Psi4 exiting successfully. Buy a developer a beer!
