                               Psi4 1.4a3.dev225

  ==> Input File <==

--------------------------------------------------------------------------
#psi4
#
memory 32 gb

molecule  {
0 1
  C        1.0769770     0.3750480     0.4036540
  C       -1.0769820     0.3750600     0.4036550
  C        0.0000030     1.4273620     0.0552210
  C       -0.0000090    -0.7130420     0.1804050
  C        2.3595160     0.3194210    -0.4060430
  C       -2.3451674     0.3182284    -0.4282609
  C        3.2195680    -0.8924030    -0.0547570
  C       -3.2195490    -0.8924170    -0.0547640
  H        1.3139090     0.4360540     1.4748590
  H       -1.3139070     0.4360710     1.4748610
  H        0.0000080     2.3782020     0.5982830
  H        0.0000040     1.6360460    -1.0223960
  H       -0.0000100    -1.0431540    -0.8674540
  H       -0.0000130    -1.5954000     0.8282360
  H        2.9313650     1.2434240    -0.2483150
  H        2.0993870     0.2926970    -1.4725700
  H       -2.0994060     0.2927390    -1.4725620
  H       -2.9313940     1.2434200    -0.2482770
  H        2.6724260    -1.8222580    -0.2378450
  H        4.1369510    -0.9193470    -0.6503860
  H        3.5046520    -0.8738050     1.0019030
  H       -3.5045960    -0.8738620     1.0019060
  H       -4.1369540    -0.9193510    -0.6503600
  H       -2.6724020    -1.8222580    -0.2379080
units angstrom
no_reorient  #important for SAPT in psi4, default
symmetry c1  #important for SAPT in psi4, default
}

set PROPERTIES_ORIGIN ["COM"]
properties('MP2/aug-cc-pvtz', properties = ['dipole'])
--------------------------------------------------------------------------

    Molecular point group: c1
  Charge       = 0
  Multiplicity = 1
  Basis Set: AUG-CC-PVTZ
    Blend: AUG-CC-PVTZ
  Basis Set: (AUG-CC-PVTZ AUX)
    Blend: AUG-CC-PVTZ-JKFIT

    Orbital Energies [Eh]
    ---------------------

    Doubly Occupied:

       1A    -11.218382     2A    -11.218227     3A    -11.213297
       4A    -11.212901     5A    -11.211113     6A    -11.210668
       7A    -11.209478     8A    -11.209116     9A     -1.140657
      10A     -1.045186    11A     -1.006207    12A     -0.898770
      13A     -0.891936    14A     -0.841328    15A     -0.770081
      16A     -0.744146    17A     -0.651709    18A     -0.617048
      19A     -0.611618    20A     -0.585073    21A     -0.571370
      22A     -0.536911    23A     -0.530728    24A     -0.522896
      25A     -0.507750    26A     -0.504396    27A     -0.484776
      28A     -0.467906    29A     -0.443181    30A     -0.439372
      31A     -0.420883    32A     -0.405305

  @DF-RHF Final Energy:  -312.34609346583807

   => Energetics <=

    Nuclear Repulsion Energy =            390.1236589887562332
    One-Electron Energy =               -1194.2546771705117408
    Two-Electron Energy =                 491.7849247159174411
    Total Energy =                       -312.3460934658380665
  Basis Set: (AUG-CC-PVTZ AUX)
    Blend: AUG-CC-PVTZ-RI
    Molecular point group: c1

    Geometry (in Angstrom), charge = 0, multiplicity = 1:

       Center              X                  Y                   Z               Mass
    ------------   -----------------  -----------------  -----------------  -----------------
         C            1.075440330672     0.358268945331     0.399590690603    12.000000000000
         C           -1.078518669328     0.358280945331     0.399591690603    12.000000000000
         C           -0.001533669328     1.410582945331     0.051157690603    12.000000000000
         C           -0.001545669328    -0.729821054669     0.176341690603    12.000000000000
         C            2.357979330672     0.302641945331    -0.410106309397    12.000000000000
         C           -2.346704069328     0.301449345331    -0.432324209397    12.000000000000
         C            3.218031330672    -0.909182054669    -0.058820309397    12.000000000000
         C           -3.221085669328    -0.909196054669    -0.058827309397    12.000000000000
         H            1.312372330672     0.419274945331     1.470795690603     1.007825032230
         H           -1.315443669328     0.419291945331     1.470797690603     1.007825032230
         H           -0.001528669328     2.361422945331     0.594219690603     1.007825032230
         H           -0.001532669328     1.619266945331    -1.026459309397     1.007825032230
         H           -0.001546669328    -1.059933054669    -0.871517309397     1.007825032230
         H           -0.001549669328    -1.612179054669     0.824172690603     1.007825032230
         H            2.929828330672     1.226644945331    -0.252378309397     1.007825032230
         H            2.097850330672     0.275917945331    -1.476633309397     1.007825032230
         H           -2.100942669328     0.275959945331    -1.476625309397     1.007825032230
         H           -2.932930669328     1.226640945331    -0.252340309397     1.007825032230
         H            2.670889330672    -1.839037054669    -0.241908309397     1.007825032230
         H            4.135414330672    -0.936126054669    -0.654449309397     1.007825032230
         H            3.503115330672    -0.890584054669     0.997839690603     1.007825032230
         H           -3.506132669328    -0.890641054669     0.997842690603     1.007825032230
         H           -4.138490669328    -0.936130054669    -0.654423309397     1.007825032230
         H           -2.673938669328    -1.839037054669    -0.241971309397     1.007825032230

  Basis Set: AUG-CC-PVTZ
    Blend: AUG-CC-PVTZ
  Basis Set: (AUG-CC-PVTZ AUX)
    Blend: AUG-CC-PVTZ-JKFIT
	 Reference Energy          =    -312.3460934658380665 [Eh]
	 Singles Energy            =      -0.0000000000000000 [Eh]
	 Same-Spin Energy          =      -0.3390182184988587 [Eh]
	 Opposite-Spin Energy      =      -1.2315127309085947 [Eh]
	 Correlation Energy        =      -1.5705309494074533 [Eh]
	 Total Energy              =    -313.9166244152455079 [Eh]

	 ================> DF-SCS-MP2 Energies <==================
	-----------------------------------------------------------
	 SCS Same-Spin Scale       =       0.3333333333333333 [-]
	 SCS Opposite-Spin Scale   =       1.2000000000000000 [-]
	 SCS Same-Spin Energy      =      -0.1130060728329529 [Eh]
	 SCS Opposite-Spin Energy  =      -1.4778152770903137 [Eh]
	 SCS Correlation Energy    =      -1.5908213499232666 [Eh]
	 SCS Total Energy          =    -313.9369148157613267 [Eh]
	-----------------------------------------------------------

  Dipole Moment: [D]
     X:     0.0049      Y:     0.0722      Z:     0.0732     Total:     0.1029

*** Psi4 exiting successfully. Buy a developer a beer!
