                               Psi4 1.4a3.dev225

  ==> Input File <==

--------------------------------------------------------------------------
#psi4
#
memory 32 gb

molecule  {
0 1
  C        1.0769770     0.3750480     0.4036540
  C       -1.0769820     0.3750600     0.4036550
  C        0.0000030     1.4273620     0.0552210
  C       -0.0000090    -0.7130420     0.1804050
  C        2.3595160     0.3194210    -0.4060430
  C       -2.3595260     0.3194330    -0.4060330
  C        3.2195680    -0.8924030    -0.0547570
  C       -3.2195490    -0.8924170    -0.0547640
  H        1.3139090     0.4360540     1.4748590
  H       -1.3139070     0.4360710     1.4748610
  H        0.0000080     2.3782020     0.5982830
  H        0.0000040     1.6360460    -1.0223960
  H       -0.0000100    -1.0431540    -0.8674540
  H       -0.0000130    -1.5954000     0.8282360
  H        2.9209491     1.2265938    -0.2511879
  H        2.0993870     0.2926970    -1.4725700
  H       -2.0994060     0.2927390    -1.4725620
  H       -2.9313940     1.2434200    -0.2482770
  H        2.6724260    -1.8222580    -0.2378450
  H        4.1369510    -0.9193470    -0.6503860
  H        3.5046520    -0.8738050     1.0019030
  H       -3.5045960    -0.8738620     1.0019060
  H       -4.1369540    -0.9193510    -0.6503600
  H       -2.6724020    -1.8222580    -0.2379080
units angstrom
no_reorient  #important for SAPT in psi4, default
symmetry c1  #important for SAPT in psi4, default
}

set PROPERTIES_ORIGIN ["COM"]
properties('MP2/aug-cc-pvtz', properties = ['dipole'])
--------------------------------------------------------------------------

    Molecular point group: c1
  Charge       = 0
  Multiplicity = 1
  Basis Set: AUG-CC-PVTZ
    Blend: AUG-CC-PVTZ
  Basis Set: (AUG-CC-PVTZ AUX)
    Blend: AUG-CC-PVTZ-JKFIT

    Orbital Energies [Eh]
    ---------------------

    Doubly Occupied:

       1A    -11.218272     2A    -11.218145     3A    -11.213311
       4A    -11.211215     5A    -11.210929     6A    -11.210850
       7A    -11.209110     8A    -11.208916     9A     -1.140574
      10A     -1.046332    11A     -1.007703    12A     -0.899109
      13A     -0.891965    14A     -0.841587    15A     -0.769954
      16A     -0.743676    17A     -0.651773    18A     -0.617860
      19A     -0.613026    20A     -0.585059    21A     -0.572105
      22A     -0.536896    23A     -0.530589    24A     -0.524664
      25A     -0.508029    26A     -0.505651    27A     -0.482731
      28A     -0.464129    29A     -0.441992    30A     -0.441604
      31A     -0.421661    32A     -0.406851

  @DF-RHF Final Energy:  -312.34675414848761

   => Energetics <=

    Nuclear Repulsion Energy =            390.2130722482072542
    One-Electron Energy =               -1194.4271209863873082
    Two-Electron Energy =                 491.8672945896924489
    Total Energy =                       -312.3467541484876051
  Basis Set: (AUG-CC-PVTZ AUX)
    Blend: AUG-CC-PVTZ-RI
    Molecular point group: c1

    Geometry (in Angstrom), charge = 0, multiplicity = 1:

       Center              X                  Y                   Z               Mass
    ------------   -----------------  -----------------  -----------------  -----------------
         C            1.077070656450     0.358291301561     0.397237611917    12.000000000000
         C           -1.076888343550     0.358303301561     0.397238611917    12.000000000000
         C            0.000096656450     1.410605301561     0.048804611917    12.000000000000
         C            0.000084656450    -0.729798698439     0.173988611917    12.000000000000
         C            2.359609656450     0.302664301561    -0.412459388083    12.000000000000
         C           -2.359432343550     0.302676301561    -0.412449388083    12.000000000000
         C            3.219661656450    -0.909159698439    -0.061173388083    12.000000000000
         C           -3.219455343550    -0.909173698439    -0.061180388083    12.000000000000
         H            1.314002656450     0.419297301561     1.468442611917     1.007825032230
         H           -1.313813343550     0.419314301561     1.468444611917     1.007825032230
         H            0.000101656450     2.361445301561     0.591866611917     1.007825032230
         H            0.000097656450     1.619289301561    -1.028812388083     1.007825032230
         H            0.000083656450    -1.059910698439    -0.873870388083     1.007825032230
         H            0.000080656450    -1.612156698439     0.821819611917     1.007825032230
         H            2.921042756450     1.209837101561    -0.257604288083     1.007825032230
         H            2.099480656450     0.275940301561    -1.478986388083     1.007825032230
         H           -2.099312343550     0.275982301561    -1.478978388083     1.007825032230
         H           -2.931300343550     1.226663301561    -0.254693388083     1.007825032230
         H            2.672519656450    -1.839014698439    -0.244261388083     1.007825032230
         H            4.137044656450    -0.936103698439    -0.656802388083     1.007825032230
         H            3.504745656450    -0.890561698439     0.995486611917     1.007825032230
         H           -3.504502343550    -0.890618698439     0.995489611917     1.007825032230
         H           -4.136860343550    -0.936107698439    -0.656776388083     1.007825032230
         H           -2.672308343550    -1.839014698439    -0.244324388083     1.007825032230

  Basis Set: AUG-CC-PVTZ
    Blend: AUG-CC-PVTZ
  Basis Set: (AUG-CC-PVTZ AUX)
    Blend: AUG-CC-PVTZ-JKFIT
	 Reference Energy          =    -312.3467541484876051 [Eh]
	 Singles Energy            =      -0.0000000000000000 [Eh]
	 Same-Spin Energy          =      -0.3390808503332037 [Eh]
	 Opposite-Spin Energy      =      -1.2313961247618443 [Eh]
	 Correlation Energy        =      -1.5704769750950480 [Eh]
	 Total Energy              =    -313.9172311235826669 [Eh]

	 ================> DF-SCS-MP2 Energies <==================
	-----------------------------------------------------------
	 SCS Same-Spin Scale       =       0.3333333333333333 [-]
	 SCS Opposite-Spin Scale   =       1.2000000000000000 [-]
	 SCS Same-Spin Energy      =      -0.1130269501110679 [Eh]
	 SCS Opposite-Spin Energy  =      -1.4776753497142132 [Eh]
	 SCS Correlation Energy    =      -1.5907022998252811 [Eh]
	 SCS Total Energy          =    -313.9374564483129006 [Eh]
	-----------------------------------------------------------

  Dipole Moment: [D]
     X:     0.0100      Y:     0.0877      Z:     0.0823     Total:     0.1207

*** Psi4 exiting successfully. Buy a developer a beer!
