                               Psi4 1.4a3.dev225

  ==> Input File <==

--------------------------------------------------------------------------
#psi4
#
memory 32 gb

molecule  {
0 1
  C        1.0769770     0.3750480     0.4036540
  C       -1.0769820     0.3750600     0.4036550
  C        0.0000030     1.4273620     0.0552210
  C       -0.0000090    -0.7130420     0.1804050
  C        2.3595160     0.3194210    -0.4060430
  C       -2.3595260     0.3194330    -0.4060330
  C        3.2195680    -0.8924030    -0.0547570
  C       -3.2195490    -0.8924170    -0.0547640
  H        1.3139090     0.4360540     1.4748590
  H       -1.3139070     0.4360710     1.4748610
  H        0.0000080     2.3782020     0.5982830
  H        0.0000040     1.6360460    -1.0223960
  H       -0.0000100    -1.0431540    -0.8674540
  H       -0.0000130    -1.5954000     0.8282360
  H        2.8272060     1.0751221    -0.2770443
  H        2.0993870     0.2926970    -1.4725700
  H       -2.0994060     0.2927390    -1.4725620
  H       -2.9313940     1.2434200    -0.2482770
  H        2.6724260    -1.8222580    -0.2378450
  H        4.1369510    -0.9193470    -0.6503860
  H        3.5046520    -0.8738050     1.0019030
  H       -3.5045960    -0.8738620     1.0019060
  H       -4.1369540    -0.9193510    -0.6503600
  H       -2.6724020    -1.8222580    -0.2379080
units angstrom
no_reorient  #important for SAPT in psi4, default
symmetry c1  #important for SAPT in psi4, default
}

set PROPERTIES_ORIGIN ["COM"]
properties('MP2/aug-cc-pvtz', properties = ['dipole'])
--------------------------------------------------------------------------

    Molecular point group: c1
  Charge       = 0
  Multiplicity = 1
  Basis Set: AUG-CC-PVTZ
    Blend: AUG-CC-PVTZ
  Basis Set: (AUG-CC-PVTZ AUX)
    Blend: AUG-CC-PVTZ-JKFIT

    Orbital Energies [Eh]
    ---------------------

    Doubly Occupied:

       1A    -11.217704     2A    -11.216801     3A    -11.212877
       4A    -11.210596     5A    -11.210048     6A    -11.208758
       7A    -11.207486     8A    -11.187531     9A     -1.140776
      10A     -1.052740    11A     -1.011581    12A     -0.899299
      13A     -0.892153    14A     -0.849737    15A     -0.779917
      16A     -0.743294    17A     -0.653186    18A     -0.631750
      19A     -0.613309    20A     -0.587095    21A     -0.571353
      22A     -0.536456    23A     -0.529943    24A     -0.524052
      25A     -0.513199    26A     -0.505847    27A     -0.485319
      28A     -0.463299    29A     -0.444619    30A     -0.441145
      31A     -0.421916    32A     -0.406672

  @DF-RHF Final Energy:  -312.31386526958329

   => Energetics <=

    Nuclear Repulsion Energy =            391.1970499892331077
    One-Electron Energy =               -1196.2809122776595814
    Two-Electron Energy =                 492.7699970188431280
    Total Energy =                       -312.3138652695832889
  Basis Set: (AUG-CC-PVTZ AUX)
    Blend: AUG-CC-PVTZ-RI
    Molecular point group: c1

    Geometry (in Angstrom), charge = 0, multiplicity = 1:

       Center              X                  Y                   Z               Mass
    ------------   -----------------  -----------------  -----------------  -----------------
         C            1.077913255994     0.359652788277     0.397470019325    12.000000000000
         C           -1.076045744006     0.359664788277     0.397471019325    12.000000000000
         C            0.000939255994     1.411966788277     0.049037019325    12.000000000000
         C            0.000927255994    -0.728437211723     0.174221019325    12.000000000000
         C            2.360452255994     0.304025788277    -0.412226980675    12.000000000000
         C           -2.358589744006     0.304037788277    -0.412216980675    12.000000000000
         C            3.220504255994    -0.907798211723    -0.060940980675    12.000000000000
         C           -3.218612744006    -0.907812211723    -0.060947980675    12.000000000000
         H            1.314845255994     0.420658788277     1.468675019325     1.007825032230
         H           -1.312970744006     0.420675788277     1.468677019325     1.007825032230
         H            0.000944255994     2.362806788277     0.592099019325     1.007825032230
         H            0.000940255994     1.620650788277    -1.028579980675     1.007825032230
         H            0.000926255994    -1.058549211723    -0.873637980675     1.007825032230
         H            0.000923255994    -1.610795211723     0.822052019325     1.007825032230
         H            2.828142255994     1.059726888277    -0.283228280675     1.007825032230
         H            2.100323255994     0.277301788277    -1.478753980675     1.007825032230
         H           -2.098469744006     0.277343788277    -1.478745980675     1.007825032230
         H           -2.930457744006     1.228024788277    -0.254460980675     1.007825032230
         H            2.673362255994    -1.837653211723    -0.244028980675     1.007825032230
         H            4.137887255994    -0.934742211723    -0.656569980675     1.007825032230
         H            3.505588255994    -0.889200211723     0.995719019325     1.007825032230
         H           -3.503659744006    -0.889257211723     0.995722019325     1.007825032230
         H           -4.136017744006    -0.934746211723    -0.656543980675     1.007825032230
         H           -2.671465744006    -1.837653211723    -0.244091980675     1.007825032230

  Basis Set: AUG-CC-PVTZ
    Blend: AUG-CC-PVTZ
  Basis Set: (AUG-CC-PVTZ AUX)
    Blend: AUG-CC-PVTZ-JKFIT
	 Reference Energy          =    -312.3138652695832889 [Eh]
	 Singles Energy            =      -0.0000000000000000 [Eh]
	 Same-Spin Energy          =      -0.3391635532039378 [Eh]
	 Opposite-Spin Energy      =      -1.2308230197012398 [Eh]
	 Correlation Energy        =      -1.5699865729051776 [Eh]
	 Total Energy              =    -313.8838518424884683 [Eh]

	 ================> DF-SCS-MP2 Energies <==================
	-----------------------------------------------------------
	 SCS Same-Spin Scale       =       0.3333333333333333 [-]
	 SCS Opposite-Spin Scale   =       1.2000000000000000 [-]
	 SCS Same-Spin Energy      =      -0.1130545177346459 [Eh]
	 SCS Opposite-Spin Energy  =      -1.4769876236414876 [Eh]
	 SCS Correlation Energy    =      -1.5900421413761334 [Eh]
	 SCS Total Energy          =    -313.9039074109594480 [Eh]
	-----------------------------------------------------------

  Dipole Moment: [D]
     X:     0.0741      Y:     0.1751      Z:     0.0745     Total:     0.2042

*** Psi4 exiting successfully. Buy a developer a beer!
