                               Psi4 1.4a3.dev225

  ==> Input File <==

--------------------------------------------------------------------------
#psi4
#
memory 32 gb

molecule  {
0 1
  C        1.0769770     0.3750480     0.4036540
  C       -1.0769820     0.3750600     0.4036550
  C        0.0000030     1.4273620     0.0552210
  C       -0.0000090    -0.7130420     0.1804050
  C        2.3595160     0.3194210    -0.4060430
  C       -2.3595260     0.3194330    -0.4060330
  C        3.2195680    -0.8924030    -0.0547570
  C       -3.3321941    -1.0511440    -0.0087551
  H        1.3139090     0.4360540     1.4748590
  H       -1.3139070     0.4360710     1.4748610
  H        0.0000080     2.3782020     0.5982830
  H        0.0000040     1.6360460    -1.0223960
  H       -0.0000100    -1.0431540    -0.8674540
  H       -0.0000130    -1.5954000     0.8282360
  H        2.9313650     1.2434240    -0.2483150
  H        2.0993870     0.2926970    -1.4725700
  H       -2.0994060     0.2927390    -1.4725620
  H       -2.9313940     1.2434200    -0.2482770
  H        2.6724260    -1.8222580    -0.2378450
  H        4.1369510    -0.9193470    -0.6503860
  H        3.5046520    -0.8738050     1.0019030
  H       -3.5045960    -0.8738620     1.0019060
  H       -4.1369540    -0.9193510    -0.6503600
  H       -2.6724020    -1.8222580    -0.2379080
units angstrom
no_reorient  #important for SAPT in psi4, default
symmetry c1  #important for SAPT in psi4, default
}

set PROPERTIES_ORIGIN ["COM"]
properties('MP2/aug-cc-pvtz', properties = ['dipole'])
--------------------------------------------------------------------------

    Molecular point group: c1
  Charge       = 0
  Multiplicity = 1
  Basis Set: AUG-CC-PVTZ
    Blend: AUG-CC-PVTZ
  Basis Set: (AUG-CC-PVTZ AUX)
    Blend: AUG-CC-PVTZ-JKFIT

    Orbital Energies [Eh]
    ---------------------

    Doubly Occupied:

       1A    -11.220711     2A    -11.218592     3A    -11.218395
       4A    -11.213395     5A    -11.211229     6A    -11.211120
       7A    -11.209205     8A    -11.205871     9A     -1.139216
      10A     -1.037412    11A     -0.993145    12A     -0.905789
      13A     -0.891952    14A     -0.847308    15A     -0.767532
      16A     -0.742992    17A     -0.651371    18A     -0.616212
      19A     -0.612226    20A     -0.589712    21A     -0.578407
      22A     -0.542711    23A     -0.531367    24A     -0.529183
      25A     -0.518363    26A     -0.495845    27A     -0.479645
      28A     -0.466723    29A     -0.442872    30A     -0.430532
      31A     -0.416431    32A     -0.394369

  @DF-RHF Final Energy:  -312.31985198346422

   => Energetics <=

    Nuclear Repulsion Energy =            387.5139941276956961
    One-Electron Energy =               -1189.0080241584059877
    Two-Electron Energy =                 489.1741780472460732
    Total Energy =                       -312.3198519834642184
  Basis Set: (AUG-CC-PVTZ AUX)
    Blend: AUG-CC-PVTZ-RI
    Molecular point group: c1

    Geometry (in Angstrom), charge = 0, multiplicity = 1:

       Center              X                  Y                   Z               Mass
    ------------   -----------------  -----------------  -----------------  -----------------
         C            1.089032675596     0.375127499797     0.392287768546    12.000000000000
         C           -1.064926324404     0.375139499797     0.392288768546    12.000000000000
         C            0.012058675596     1.427441499797     0.043854768546    12.000000000000
         C            0.012046675596    -0.712962500203     0.169038768546    12.000000000000
         C            2.371571675596     0.319500499797    -0.417409231454    12.000000000000
         C           -2.347470324404     0.319512499797    -0.417399231454    12.000000000000
         C            3.231623675596    -0.892323500203    -0.066123231454    12.000000000000
         C           -3.320138424404    -1.051064500203    -0.020121331454    12.000000000000
         H            1.325964675596     0.436133499797     1.463492768546     1.007825032230
         H           -1.301851324404     0.436150499797     1.463494768546     1.007825032230
         H            0.012063675596     2.378281499797     0.586916768546     1.007825032230
         H            0.012059675596     1.636125499797    -1.033762231454     1.007825032230
         H            0.012045675596    -1.043074500203    -0.878820231454     1.007825032230
         H            0.012042675596    -1.595320500203     0.816869768546     1.007825032230
         H            2.943420675596     1.243503499797    -0.259681231454     1.007825032230
         H            2.111442675596     0.292776499797    -1.483936231454     1.007825032230
         H           -2.087350324404     0.292818499797    -1.483928231454     1.007825032230
         H           -2.919338324404     1.243499499797    -0.259643231454     1.007825032230
         H            2.684481675596    -1.822178500203    -0.249211231454     1.007825032230
         H            4.149006675596    -0.919267500203    -0.661752231454     1.007825032230
         H            3.516707675596    -0.873725500203     0.990536768546     1.007825032230
         H           -3.492540324404    -0.873782500203     0.990539768546     1.007825032230
         H           -4.124898324404    -0.919271500203    -0.661726231454     1.007825032230
         H           -2.660346324404    -1.822178500203    -0.249274231454     1.007825032230

  Basis Set: AUG-CC-PVTZ
    Blend: AUG-CC-PVTZ
  Basis Set: (AUG-CC-PVTZ AUX)
    Blend: AUG-CC-PVTZ-JKFIT
	 Reference Energy          =    -312.3198519834642184 [Eh]
	 Singles Energy            =      -0.0000000000000000 [Eh]
	 Same-Spin Energy          =      -0.3391719811980937 [Eh]
	 Opposite-Spin Energy      =      -1.2330160563166275 [Eh]
	 Correlation Energy        =      -1.5721880375147212 [Eh]
	 Total Energy              =    -313.8920400209789250 [Eh]

	 ================> DF-SCS-MP2 Energies <==================
	-----------------------------------------------------------
	 SCS Same-Spin Scale       =       0.3333333333333333 [-]
	 SCS Opposite-Spin Scale   =       1.2000000000000000 [-]
	 SCS Same-Spin Energy      =      -0.1130573270660312 [Eh]
	 SCS Opposite-Spin Energy  =      -1.4796192675799529 [Eh]
	 SCS Correlation Energy    =      -1.5926765946459842 [Eh]
	 SCS Total Energy          =    -313.9125285781101979 [Eh]
	-----------------------------------------------------------

  Dipole Moment: [D]
     X:     0.0666      Y:     0.1380      Z:     0.0813     Total:     0.1735

*** Psi4 exiting successfully. Buy a developer a beer!
