                               Psi4 1.4a3.dev225

  ==> Input File <==

--------------------------------------------------------------------------
#psi4
#
memory 32 gb

molecule  {
0 1
  C        1.0769770     0.3750480     0.4036540
  C       -1.0769820     0.3750600     0.4036550
  C        0.0000030     1.4273620     0.0552210
  C       -0.0000090    -0.7130420     0.1804050
  C        2.3595160     0.3194210    -0.4060430
  C       -2.2997918     0.3147201    -0.4933976
  C        3.2195680    -0.8924030    -0.0547570
  C       -3.2195490    -0.8924170    -0.0547640
  H        1.3139090     0.4360540     1.4748590
  H       -1.3139070     0.4360710     1.4748610
  H        0.0000080     2.3782020     0.5982830
  H        0.0000040     1.6360460    -1.0223960
  H       -0.0000100    -1.0431540    -0.8674540
  H       -0.0000130    -1.5954000     0.8282360
  H        2.9313650     1.2434240    -0.2483150
  H        2.0993870     0.2926970    -1.4725700
  H       -2.0994060     0.2927390    -1.4725620
  H       -2.9313940     1.2434200    -0.2482770
  H        2.6724260    -1.8222580    -0.2378450
  H        4.1369510    -0.9193470    -0.6503860
  H        3.5046520    -0.8738050     1.0019030
  H       -3.5045960    -0.8738620     1.0019060
  H       -4.1369540    -0.9193510    -0.6503600
  H       -2.6724020    -1.8222580    -0.2379080
units angstrom
no_reorient  #important for SAPT in psi4, default
symmetry c1  #important for SAPT in psi4, default
}

set PROPERTIES_ORIGIN ["COM"]
properties('MP2/aug-cc-pvtz', properties = ['dipole'])
--------------------------------------------------------------------------

    Molecular point group: c1
  Charge       = 0
  Multiplicity = 1
  Basis Set: AUG-CC-PVTZ
    Blend: AUG-CC-PVTZ
  Basis Set: (AUG-CC-PVTZ AUX)
    Blend: AUG-CC-PVTZ-JKFIT

    Orbital Energies [Eh]
    ---------------------

    Doubly Occupied:

       1A    -11.219119     2A    -11.217952     3A    -11.213119
       4A    -11.212711     5A    -11.210915     6A    -11.210421
       7A    -11.209850     8A    -11.209017     9A     -1.141013
      10A     -1.043481    11A     -1.002774    12A     -0.897784
      13A     -0.891933    14A     -0.843247    15A     -0.775055
      16A     -0.745223    17A     -0.651580    18A     -0.619793
      19A     -0.607987    20A     -0.585496    21A     -0.569482
      22A     -0.537183    23A     -0.531034    24A     -0.518694
      25A     -0.511231    26A     -0.502227    27A     -0.491585
      28A     -0.473367    29A     -0.444951    30A     -0.433781
      31A     -0.417287    32A     -0.400387

  @DF-RHF Final Energy:  -312.33387679276848

   => Energetics <=

    Nuclear Repulsion Energy =            390.1556848259261301
    One-Electron Energy =               -1194.2997680272214893
    Two-Electron Energy =                 491.8102064085269376
    Total Energy =                       -312.3338767927684785
  Basis Set: (AUG-CC-PVTZ AUX)
    Blend: AUG-CC-PVTZ-RI
    Molecular point group: c1

    Geometry (in Angstrom), charge = 0, multiplicity = 1:

       Center              X                  Y                   Z               Mass
    ------------   -----------------  -----------------  -----------------  -----------------
         C            1.070584087852     0.358644414893     0.406561829976    12.000000000000
         C           -1.083374912148     0.358656414893     0.406562829976    12.000000000000
         C           -0.006389912148     1.410958414893     0.058128829976    12.000000000000
         C           -0.006401912148    -0.729445585107     0.183312829976    12.000000000000
         C            2.353123087852     0.303017414893    -0.403135170024    12.000000000000
         C           -2.306184712148     0.298316514893    -0.490489770024    12.000000000000
         C            3.213175087852    -0.908806585107    -0.051849170024    12.000000000000
         C           -3.225941912148    -0.908820585107    -0.051856170024    12.000000000000
         H            1.307516087852     0.419650414893     1.477766829976     1.007825032230
         H           -1.320299912148     0.419667414893     1.477768829976     1.007825032230
         H           -0.006384912148     2.361798414893     0.601190829976     1.007825032230
         H           -0.006388912148     1.619642414893    -1.019488170024     1.007825032230
         H           -0.006402912148    -1.059557585107    -0.864546170024     1.007825032230
         H           -0.006405912148    -1.611803585107     0.831143829976     1.007825032230
         H            2.924972087852     1.227020414893    -0.245407170024     1.007825032230
         H            2.092994087852     0.276293414893    -1.469662170024     1.007825032230
         H           -2.105798912148     0.276335414893    -1.469654170024     1.007825032230
         H           -2.937786912148     1.227016414893    -0.245369170024     1.007825032230
         H            2.666033087852    -1.838661585107    -0.234937170024     1.007825032230
         H            4.130558087852    -0.935750585107    -0.647478170024     1.007825032230
         H            3.498259087852    -0.890208585107     1.004810829976     1.007825032230
         H           -3.510988912148    -0.890265585107     1.004813829976     1.007825032230
         H           -4.143346912148    -0.935754585107    -0.647452170024     1.007825032230
         H           -2.678794912148    -1.838661585107    -0.235000170024     1.007825032230

  Basis Set: AUG-CC-PVTZ
    Blend: AUG-CC-PVTZ
  Basis Set: (AUG-CC-PVTZ AUX)
    Blend: AUG-CC-PVTZ-JKFIT
	 Reference Energy          =    -312.3338767927684785 [Eh]
	 Singles Energy            =      -0.0000000000000000 [Eh]
	 Same-Spin Energy          =      -0.3390076255082781 [Eh]
	 Opposite-Spin Energy      =      -1.2319964863248896 [Eh]
	 Correlation Energy        =      -1.5710041118331677 [Eh]
	 Total Energy              =    -313.9048809046016686 [Eh]

	 ================> DF-SCS-MP2 Energies <==================
	-----------------------------------------------------------
	 SCS Same-Spin Scale       =       0.3333333333333333 [-]
	 SCS Opposite-Spin Scale   =       1.2000000000000000 [-]
	 SCS Same-Spin Energy      =      -0.1130025418360927 [Eh]
	 SCS Opposite-Spin Energy  =      -1.4783957835898673 [Eh]
	 SCS Correlation Energy    =      -1.5913983254259600 [Eh]
	 SCS Total Energy          =    -313.9252751181944632 [Eh]
	-----------------------------------------------------------

  Dipole Moment: [D]
     X:     0.0245      Y:     0.0597      Z:     0.0597     Total:     0.0879

*** Psi4 exiting successfully. Buy a developer a beer!
