                               Psi4 1.4a3.dev225

  ==> Input File <==

--------------------------------------------------------------------------
#psi4
#
memory 32 gb

molecule  {
0 1
  C        1.0769770     0.3750480     0.4036540
  C       -1.0769820     0.3750600     0.4036550
  C        0.0000030     1.4273620     0.0552210
  C       -0.0000090    -0.7130420     0.1804050
  C        2.3595160     0.3194210    -0.4060430
  C       -2.3595260     0.3194330    -0.4060330
  C        3.2195680    -0.8924030    -0.0547570
  C       -3.2195490    -0.8924170    -0.0547640
  H        1.3139090     0.4360540     1.4748590
  H       -1.3139070     0.4360710     1.4748610
  H        0.0000080     2.3782020     0.5982830
  H        0.0000040     1.6360460    -1.0223960
  H       -0.0000100    -1.0431540    -0.8674540
  H       -0.0000130    -1.5954000     0.8282360
  H        2.9313650     1.2434240    -0.2483150
  H        2.0993870     0.2926970    -1.4725700
  H       -2.0994060     0.2927390    -1.4725620
  H       -2.9313940     1.2434200    -0.2482770
  H        2.6724260    -1.8222580    -0.2378450
  H        4.3046448    -0.9242723    -0.7592645
  H        3.5046520    -0.8738050     1.0019030
  H       -3.5045960    -0.8738620     1.0019060
  H       -4.1369540    -0.9193510    -0.6503600
  H       -2.6724020    -1.8222580    -0.2379080
units angstrom
no_reorient  #important for SAPT in psi4, default
symmetry c1  #important for SAPT in psi4, default
}

set PROPERTIES_ORIGIN ["COM"]
properties('MP2/aug-cc-pvtz', properties = ['dipole'])
--------------------------------------------------------------------------

    Molecular point group: c1
  Charge       = 0
  Multiplicity = 1
  Basis Set: AUG-CC-PVTZ
    Blend: AUG-CC-PVTZ
  Basis Set: (AUG-CC-PVTZ AUX)
    Blend: AUG-CC-PVTZ-JKFIT

    Orbital Energies [Eh]
    ---------------------

    Doubly Occupied:

       1A    -11.232871     2A    -11.220559     3A    -11.219689
       4A    -11.215889     5A    -11.214337     6A    -11.212932
       7A    -11.212764     8A    -11.209952     9A     -1.142257
      10A     -1.046001    11A     -1.005631    12A     -0.894937
      13A     -0.893474    14A     -0.836343    15A     -0.769823
      16A     -0.745308    17A     -0.653074    18A     -0.618649
      19A     -0.611004    20A     -0.586740    21A     -0.562493
      22A     -0.538103    23A     -0.532184    24A     -0.519087
      25A     -0.508752    26A     -0.493678    27A     -0.483729
      28A     -0.462606    29A     -0.443189    30A     -0.441090
      31A     -0.423205    32A     -0.406009

  @DF-RHF Final Energy:  -312.32694643715251

   => Energetics <=

    Nuclear Repulsion Energy =            389.3300802169206349
    One-Electron Energy =               -1192.6013300876941230
    Two-Electron Energy =                 490.9443034336210303
    Total Energy =                       -312.3269464371525146
  Basis Set: (AUG-CC-PVTZ AUX)
    Blend: AUG-CC-PVTZ-RI
    Molecular point group: c1

    Geometry (in Angstrom), charge = 0, multiplicity = 1:

       Center              X                  Y                   Z               Mass
    ------------   -----------------  -----------------  -----------------  -----------------
         C            1.075469737002     0.358184295677     0.398190431593    12.000000000000
         C           -1.078489262998     0.358196295677     0.398191431593    12.000000000000
         C           -0.001504262998     1.410498295677     0.049757431593    12.000000000000
         C           -0.001516262998    -0.729905704323     0.174941431593    12.000000000000
         C            2.358008737002     0.302557295677    -0.411506568407    12.000000000000
         C           -2.361033262998     0.302569295677    -0.411496568407    12.000000000000
         C            3.218060737002    -0.909266704323    -0.060220568407    12.000000000000
         C           -3.221056262998    -0.909280704323    -0.060227568407    12.000000000000
         H            1.312401737002     0.419190295677     1.469395431593     1.007825032230
         H           -1.315414262998     0.419207295677     1.469397431593     1.007825032230
         H           -0.001499262998     2.361338295677     0.592819431593     1.007825032230
         H           -0.001503262998     1.619182295677    -1.027859568407     1.007825032230
         H           -0.001517262998    -1.060017704323    -0.872917568407     1.007825032230
         H           -0.001520262998    -1.612263704323     0.822772431593     1.007825032230
         H            2.929857737002     1.226560295677    -0.253778568407     1.007825032230
         H            2.097879737002     0.275833295677    -1.478033568407     1.007825032230
         H           -2.100913262998     0.275875295677    -1.478025568407     1.007825032230
         H           -2.932901262998     1.226556295677    -0.253740568407     1.007825032230
         H            2.670918737002    -1.839121704323    -0.243308568407     1.007825032230
         H            4.303137537002    -0.941136004323    -0.764728068407     1.007825032230
         H            3.503144737002    -0.890668704323     0.996439431593     1.007825032230
         H           -3.506103262998    -0.890725704323     0.996442431593     1.007825032230
         H           -4.138461262998    -0.936214704323    -0.655823568407     1.007825032230
         H           -2.673909262998    -1.839121704323    -0.243371568407     1.007825032230

  Basis Set: AUG-CC-PVTZ
    Blend: AUG-CC-PVTZ
  Basis Set: (AUG-CC-PVTZ AUX)
    Blend: AUG-CC-PVTZ-JKFIT
	 Reference Energy          =    -312.3269464371525146 [Eh]
	 Singles Energy            =      -0.0000000000000000 [Eh]
	 Same-Spin Energy          =      -0.3389605786175272 [Eh]
	 Opposite-Spin Energy      =      -1.2329802248599839 [Eh]
	 Correlation Energy        =      -1.5719408034775111 [Eh]
	 Total Energy              =    -313.8988872406300175 [Eh]

	 ================> DF-SCS-MP2 Energies <==================
	-----------------------------------------------------------
	 SCS Same-Spin Scale       =       0.3333333333333333 [-]
	 SCS Opposite-Spin Scale   =       1.2000000000000000 [-]
	 SCS Same-Spin Energy      =      -0.1129868595391757 [Eh]
	 SCS Opposite-Spin Energy  =      -1.4795762698319808 [Eh]
	 SCS Correlation Energy    =      -1.5925631293711564 [Eh]
	 SCS Total Energy          =    -313.9195095665236863 [Eh]
	-----------------------------------------------------------

  Dipole Moment: [D]
     X:    -0.2038      Y:     0.1243      Z:     0.1576     Total:     0.2861

*** Psi4 exiting successfully. Buy a developer a beer!
