                               Psi4 1.4a3.dev225

  ==> Input File <==

--------------------------------------------------------------------------
#psi4
#
memory 32 gb

molecule  {
0 1
  C        1.0769770     0.3750480     0.4036540
  C       -1.0769820     0.3750600     0.4036550
  C        0.0000030     1.4273620     0.0552210
  C       -0.0000090    -0.7130420     0.1804050
  C        2.3595160     0.3194210    -0.4060430
  C       -2.3595260     0.3194330    -0.4060330
  C        3.2195680    -0.8924030    -0.0547570
  C       -3.2195490    -0.8924170    -0.0547640
  H        1.3139090     0.4360540     1.4748590
  H       -1.3139070     0.4360710     1.4748610
  H        0.0000080     2.3782020     0.5982830
  H        0.0000040     1.6360460    -1.0223960
  H       -0.0000100    -1.0431540    -0.8674540
  H       -0.0000130    -1.5954000     0.8282360
  H        2.9313650     1.2434240    -0.2483150
  H        2.0993870     0.2926970    -1.4725700
  H       -2.0994060     0.2927390    -1.4725620
  H       -2.9313940     1.2434200    -0.2482770
  H        2.6724260    -1.8222580    -0.2378450
  H        4.1369510    -0.9193470    -0.6503860
  H        3.4525628    -0.8772031     0.8088352
  H       -3.5045960    -0.8738620     1.0019060
  H       -4.1369540    -0.9193510    -0.6503600
  H       -2.6724020    -1.8222580    -0.2379080
units angstrom
no_reorient  #important for SAPT in psi4, default
symmetry c1  #important for SAPT in psi4, default
}

set PROPERTIES_ORIGIN ["COM"]
properties('MP2/aug-cc-pvtz', properties = ['dipole'])
--------------------------------------------------------------------------

    Molecular point group: c1
  Charge       = 0
  Multiplicity = 1
  Basis Set: AUG-CC-PVTZ
    Blend: AUG-CC-PVTZ
  Basis Set: (AUG-CC-PVTZ AUX)
    Blend: AUG-CC-PVTZ-JKFIT

    Orbital Energies [Eh]
    ---------------------

    Doubly Occupied:

       1A    -11.218151     2A    -11.218108     3A    -11.213187
       4A    -11.211441     5A    -11.211137     6A    -11.210755
       7A    -11.209021     8A    -11.183587     9A     -1.140556
      10A     -1.050325    11A     -1.013534    12A     -0.909072
      13A     -0.891774    14A     -0.848777    15A     -0.772054
      16A     -0.743941    17A     -0.651646    18A     -0.623966
      19A     -0.612290    20A     -0.595319    21A     -0.572299
      22A     -0.545326    23A     -0.530420    24A     -0.524260
      25A     -0.511667    26A     -0.504892    27A     -0.486472
      28A     -0.465824    29A     -0.441841    30A     -0.440551
      31A     -0.421262    32A     -0.406336

  @DF-RHF Final Energy:  -312.31264539173026

   => Energetics <=

    Nuclear Repulsion Energy =            391.0573487906565902
    One-Electron Energy =               -1195.9804086471863229
    Two-Electron Energy =                 492.6104144647995327
    Total Energy =                       -312.3126453917302570
  Basis Set: (AUG-CC-PVTZ AUX)
    Blend: AUG-CC-PVTZ-RI
    Molecular point group: c1

    Geometry (in Angstrom), charge = 0, multiplicity = 1:

       Center              X                  Y                   Z               Mass
    ------------   -----------------  -----------------  -----------------  -----------------
         C            1.077445232324     0.358170568608     0.398947157856    12.000000000000
         C           -1.076513767676     0.358182568608     0.398948157856    12.000000000000
         C            0.000471232324     1.410484568608     0.050514157856    12.000000000000
         C            0.000459232324    -0.729919431392     0.175698157856    12.000000000000
         C            2.359984232324     0.302543568608    -0.410749842144    12.000000000000
         C           -2.359057767676     0.302555568608    -0.410739842144    12.000000000000
         C            3.220036232324    -0.909280431392    -0.059463842144    12.000000000000
         C           -3.219080767676    -0.909294431392    -0.059470842144    12.000000000000
         H            1.314377232324     0.419176568608     1.470152157856     1.007825032230
         H           -1.313438767676     0.419193568608     1.470154157856     1.007825032230
         H            0.000476232324     2.361324568608     0.593576157856     1.007825032230
         H            0.000472232324     1.619168568608    -1.027102842144     1.007825032230
         H            0.000458232324    -1.060031431392    -0.872160842144     1.007825032230
         H            0.000455232324    -1.612277431392     0.823529157856     1.007825032230
         H            2.931833232324     1.226546568608    -0.253021842144     1.007825032230
         H            2.099855232324     0.275819568608    -1.477276842144     1.007825032230
         H           -2.098937767676     0.275861568608    -1.477268842144     1.007825032230
         H           -2.930925767676     1.226542568608    -0.252983842144     1.007825032230
         H            2.672894232324    -1.839135431392    -0.242551842144     1.007825032230
         H            4.137419232324    -0.936224431392    -0.655092842144     1.007825032230
         H            3.453031032324    -0.894080531392     0.804128357856     1.007825032230
         H           -3.504127767676    -0.890739431392     0.997199157856     1.007825032230
         H           -4.136485767676    -0.936228431392    -0.655066842144     1.007825032230
         H           -2.671933767676    -1.839135431392    -0.242614842144     1.007825032230

  Basis Set: AUG-CC-PVTZ
    Blend: AUG-CC-PVTZ
  Basis Set: (AUG-CC-PVTZ AUX)
    Blend: AUG-CC-PVTZ-JKFIT
	 Reference Energy          =    -312.3126453917302570 [Eh]
	 Singles Energy            =      -0.0000000000000000 [Eh]
	 Same-Spin Energy          =      -0.3392736234764732 [Eh]
	 Opposite-Spin Energy      =      -1.2310397073049550 [Eh]
	 Correlation Energy        =      -1.5703133307814283 [Eh]
	 Total Energy              =    -313.8829587225116597 [Eh]

	 ================> DF-SCS-MP2 Energies <==================
	-----------------------------------------------------------
	 SCS Same-Spin Scale       =       0.3333333333333333 [-]
	 SCS Opposite-Spin Scale   =       1.2000000000000000 [-]
	 SCS Same-Spin Energy      =      -0.1130912078254911 [Eh]
	 SCS Opposite-Spin Energy  =      -1.4772476487659461 [Eh]
	 SCS Correlation Energy    =      -1.5903388565914371 [Eh]
	 SCS Total Energy          =    -313.9029842483216726 [Eh]
	-----------------------------------------------------------

  Dipole Moment: [D]
     X:     0.0463      Y:     0.0526      Z:     0.1747     Total:     0.1882

*** Psi4 exiting successfully. Buy a developer a beer!
