                               Psi4 1.4a3.dev225

  ==> Input File <==

--------------------------------------------------------------------------
#psi4
#
memory 32 gb

molecule  {
0 1
  C        1.0769770     0.3750480     0.4036540
  C       -1.0769820     0.3750600     0.4036550
  C        0.0000030     1.4273620     0.0552210
  C       -0.0000090    -0.7130420     0.1804050
  C        2.3595160     0.3194210    -0.4060430
  C       -2.3595260     0.3194330    -0.4060330
  C        3.2195680    -0.8924030    -0.0547570
  C       -3.2195490    -0.8924170    -0.0547640
  H        1.3139090     0.4360540     1.4748590
  H       -1.3139070     0.4360710     1.4748610
  H        0.0000080     2.3782020     0.5982830
  H        0.0000040     1.6360460    -1.0223960
  H       -0.0000100    -1.0431540    -0.8674540
  H       -0.0000130    -1.5954000     0.8282360
  H        2.9313650     1.2434240    -0.2483150
  H        2.0993870     0.2926970    -1.4725700
  H       -2.0994060     0.2927390    -1.4725620
  H       -2.9313940     1.2434200    -0.2482770
  H        2.6824258    -1.8052636    -0.2344988
  H        4.1369510    -0.9193470    -0.6503860
  H        3.5046520    -0.8738050     1.0019030
  H       -3.5045960    -0.8738620     1.0019060
  H       -4.1369540    -0.9193510    -0.6503600
  H       -2.6724020    -1.8222580    -0.2379080
units angstrom
no_reorient  #important for SAPT in psi4, default
symmetry c1  #important for SAPT in psi4, default
}

set PROPERTIES_ORIGIN ["COM"]
properties('MP2/aug-cc-pvtz', properties = ['dipole'])
--------------------------------------------------------------------------

    Molecular point group: c1
  Charge       = 0
  Multiplicity = 1
  Basis Set: AUG-CC-PVTZ
    Blend: AUG-CC-PVTZ
  Basis Set: (AUG-CC-PVTZ AUX)
    Blend: AUG-CC-PVTZ-JKFIT

    Orbital Energies [Eh]
    ---------------------

    Doubly Occupied:

       1A    -11.218377     2A    -11.218303     3A    -11.213385
       4A    -11.213128     5A    -11.211422     6A    -11.210957
       7A    -11.209177     8A    -11.206651     9A     -1.140632
      10A     -1.046191    11A     -1.007829    12A     -0.899851
      13A     -0.892018    14A     -0.841705    15A     -0.769309
      16A     -0.743739    17A     -0.651796    18A     -0.617454
      19A     -0.612888    20A     -0.585250    21A     -0.572090
      22A     -0.537014    23A     -0.530711    24A     -0.524690
      25A     -0.509415    26A     -0.505677    27A     -0.482727
      28A     -0.464195    29A     -0.442096    30A     -0.441141
      31A     -0.421658    32A     -0.406814

  @DF-RHF Final Energy:  -312.34672674919688

   => Energetics <=

    Nuclear Repulsion Energy =            390.1910731384267024
    One-Electron Energy =               -1194.3790206921221397
    Two-Electron Energy =                 491.8412208044986187
    Total Energy =                       -312.3467267491968755
  Basis Set: (AUG-CC-PVTZ AUX)
    Blend: AUG-CC-PVTZ-RI
    Molecular point group: c1

    Geometry (in Angstrom), charge = 0, multiplicity = 1:

       Center              X                  Y                   Z               Mass
    ------------   -----------------  -----------------  -----------------  -----------------
         C            1.076887152176     0.357987272865     0.397181712221    12.000000000000
         C           -1.077071847824     0.357999272865     0.397182712221    12.000000000000
         C           -0.000086847824     1.410301272865     0.048748712221    12.000000000000
         C           -0.000098847824    -0.730102727135     0.173932712221    12.000000000000
         C            2.359426152176     0.302360272865    -0.412515287779    12.000000000000
         C           -2.359615847824     0.302372272865    -0.412505287779    12.000000000000
         C            3.219478152176    -0.909463727135    -0.061229287779    12.000000000000
         C           -3.219638847824    -0.909477727135    -0.061236287779    12.000000000000
         H            1.313819152176     0.418993272865     1.468386712221     1.007825032230
         H           -1.313996847824     0.419010272865     1.468388712221     1.007825032230
         H           -0.000081847824     2.361141272865     0.591810712221     1.007825032230
         H           -0.000085847824     1.618985272865    -1.028868287779     1.007825032230
         H           -0.000099847824    -1.060214727135    -0.873926287779     1.007825032230
         H           -0.000102847824    -1.612460727135     0.821763712221     1.007825032230
         H            2.931275152176     1.226363272865    -0.254787287779     1.007825032230
         H            2.099297152176     0.275636272865    -1.479042287779     1.007825032230
         H           -2.099495847824     0.275678272865    -1.479034287779     1.007825032230
         H           -2.931483847824     1.226359272865    -0.254749287779     1.007825032230
         H            2.682335952176    -1.822324327135    -0.240971087779     1.007825032230
         H            4.136861152176    -0.936407727135    -0.656858287779     1.007825032230
         H            3.504562152176    -0.890865727135     0.995430712221     1.007825032230
         H           -3.504685847824    -0.890922727135     0.995433712221     1.007825032230
         H           -4.137043847824    -0.936411727135    -0.656832287779     1.007825032230
         H           -2.672491847824    -1.839318727135    -0.244380287779     1.007825032230

  Basis Set: AUG-CC-PVTZ
    Blend: AUG-CC-PVTZ
  Basis Set: (AUG-CC-PVTZ AUX)
    Blend: AUG-CC-PVTZ-JKFIT
	 Reference Energy          =    -312.3467267491968755 [Eh]
	 Singles Energy            =      -0.0000000000000000 [Eh]
	 Same-Spin Energy          =      -0.3390840098026570 [Eh]
	 Opposite-Spin Energy      =      -1.2314070637249508 [Eh]
	 Correlation Energy        =      -1.5704910735276076 [Eh]
	 Total Energy              =    -313.9172178227244672 [Eh]

	 ================> DF-SCS-MP2 Energies <==================
	-----------------------------------------------------------
	 SCS Same-Spin Scale       =       0.3333333333333333 [-]
	 SCS Opposite-Spin Scale   =       1.2000000000000000 [-]
	 SCS Same-Spin Energy      =      -0.1130280032675523 [Eh]
	 SCS Opposite-Spin Energy  =      -1.4776884764699409 [Eh]
	 SCS Correlation Energy    =      -1.5907164797374933 [Eh]
	 SCS Total Energy          =    -313.9374432289343417 [Eh]
	-----------------------------------------------------------

  Dipole Moment: [D]
     X:    -0.0033      Y:     0.0624      Z:     0.0818     Total:     0.1029

*** Psi4 exiting successfully. Buy a developer a beer!
