                               Psi4 1.4a3.dev225

  ==> Input File <==

--------------------------------------------------------------------------
#psi4
#
memory 32 gb

molecule  {
0 1
  C        1.0769770     0.3750480     0.4036540
  C       -1.0769820     0.3750600     0.4036550
  C        0.0000030     1.4273620     0.0552210
  C       -0.0000090    -0.7130420     0.1804050
  C        2.3595160     0.3194210    -0.4060430
  C       -2.3595260     0.3194330    -0.4060330
  C        3.2195680    -0.8924030    -0.0547570
  C       -3.1632265    -0.8130535    -0.0777685
  H        1.3139090     0.4360540     1.4748590
  H       -1.3139070     0.4360710     1.4748610
  H        0.0000080     2.3782020     0.5982830
  H        0.0000040     1.6360460    -1.0223960
  H       -0.0000100    -1.0431540    -0.8674540
  H       -0.0000130    -1.5954000     0.8282360
  H        2.9313650     1.2434240    -0.2483150
  H        2.0993870     0.2926970    -1.4725700
  H       -2.0994060     0.2927390    -1.4725620
  H       -2.9313940     1.2434200    -0.2482770
  H        2.6724260    -1.8222580    -0.2378450
  H        4.1369510    -0.9193470    -0.6503860
  H        3.5046520    -0.8738050     1.0019030
  H       -3.5045960    -0.8738620     1.0019060
  H       -4.1369540    -0.9193510    -0.6503600
  H       -2.6724020    -1.8222580    -0.2379080
units angstrom
no_reorient  #important for SAPT in psi4, default
symmetry c1  #important for SAPT in psi4, default
}

set PROPERTIES_ORIGIN ["COM"]
properties('MP2/aug-cc-pvtz', properties = ['dipole'])
--------------------------------------------------------------------------

    Molecular point group: c1
  Charge       = 0
  Multiplicity = 1
  Basis Set: AUG-CC-PVTZ
    Blend: AUG-CC-PVTZ
  Basis Set: (AUG-CC-PVTZ AUX)
    Blend: AUG-CC-PVTZ-JKFIT

    Orbital Energies [Eh]
    ---------------------

    Doubly Occupied:

       1A    -11.218909     2A    -11.218582     3A    -11.215439
       4A    -11.213560     5A    -11.211789     6A    -11.211245
       7A    -11.209280     8A    -11.208904     9A     -1.142510
      10A     -1.057273    11A     -1.014580    12A     -0.896901
      13A     -0.892217    14A     -0.835860    15A     -0.770042
      16A     -0.744595    17A     -0.652481    18A     -0.619383
      19A     -0.614788    20A     -0.585869    21A     -0.578442
      22A     -0.547036    23A     -0.531036    24A     -0.527681
      25A     -0.504056    26A     -0.497246    27A     -0.472696
      28A     -0.460222    29A     -0.443876    30A     -0.440717
      31A     -0.422582    32A     -0.406475

  @DF-RHF Final Energy:  -312.33522838092892

   => Energetics <=

    Nuclear Repulsion Energy =            391.5376921762696725
    One-Electron Energy =               -1197.0132968755785896
    Two-Electron Energy =                 493.1403763183799356
    Total Energy =                       -312.3352283809289247
  Basis Set: (AUG-CC-PVTZ AUX)
    Blend: AUG-CC-PVTZ-RI
    Molecular point group: c1

    Geometry (in Angstrom), charge = 0, multiplicity = 1:

       Center              X                  Y                   Z               Mass
    ------------   -----------------  -----------------  -----------------  -----------------
         C            1.070949218971     0.349646287841     0.399673804836    12.000000000000
         C           -1.083009781029     0.349658287841     0.399674804836    12.000000000000
         C           -0.006024781029     1.401960287841     0.051240804836    12.000000000000
         C           -0.006036781029    -0.738443712159     0.176424804836    12.000000000000
         C            2.353488218971     0.294019287841    -0.410023195164    12.000000000000
         C           -2.365553781029     0.294031287841    -0.410013195164    12.000000000000
         C            3.213540218971    -0.917804712159    -0.058737195164    12.000000000000
         C           -3.169254281029    -0.838455212159    -0.081748695164    12.000000000000
         H            1.307881218971     0.410652287841     1.470878804836     1.007825032230
         H           -1.319934781029     0.410669287841     1.470880804836     1.007825032230
         H           -0.006019781029     2.352800287841     0.594302804836     1.007825032230
         H           -0.006023781029     1.610644287841    -1.026376195164     1.007825032230
         H           -0.006037781029    -1.068555712159    -0.871434195164     1.007825032230
         H           -0.006040781029    -1.620801712159     0.824255804836     1.007825032230
         H            2.925337218971     1.218022287841    -0.252295195164     1.007825032230
         H            2.093359218971     0.267295287841    -1.476550195164     1.007825032230
         H           -2.105433781029     0.267337287841    -1.476542195164     1.007825032230
         H           -2.937421781029     1.218018287841    -0.252257195164     1.007825032230
         H            2.666398218971    -1.847659712159    -0.241825195164     1.007825032230
         H            4.130923218971    -0.944748712159    -0.654366195164     1.007825032230
         H            3.498624218971    -0.899206712159     0.997922804836     1.007825032230
         H           -3.510623781029    -0.899263712159     0.997925804836     1.007825032230
         H           -4.142981781029    -0.944752712159    -0.654340195164     1.007825032230
         H           -2.678429781029    -1.847659712159    -0.241888195164     1.007825032230

  Basis Set: AUG-CC-PVTZ
    Blend: AUG-CC-PVTZ
  Basis Set: (AUG-CC-PVTZ AUX)
    Blend: AUG-CC-PVTZ-JKFIT
	 Reference Energy          =    -312.3352283809289247 [Eh]
	 Singles Energy            =      -0.0000000000000000 [Eh]
	 Same-Spin Energy          =      -0.3400393131743630 [Eh]
	 Opposite-Spin Energy      =      -1.2325832900545974 [Eh]
	 Correlation Energy        =      -1.5726226032289605 [Eh]
	 Total Energy              =    -313.9078509841579034 [Eh]

	 ================> DF-SCS-MP2 Energies <==================
	-----------------------------------------------------------
	 SCS Same-Spin Scale       =       0.3333333333333333 [-]
	 SCS Opposite-Spin Scale   =       1.2000000000000000 [-]
	 SCS Same-Spin Energy      =      -0.1133464377247877 [Eh]
	 SCS Opposite-Spin Energy  =      -1.4790999480655169 [Eh]
	 SCS Correlation Energy    =      -1.5924463857903046 [Eh]
	 SCS Total Energy          =    -313.9276747667192353 [Eh]
	-----------------------------------------------------------

  Dipole Moment: [D]
     X:     0.0159      Y:     0.0868      Z:     0.0726     Total:     0.1142

*** Psi4 exiting successfully. Buy a developer a beer!
