                               Psi4 1.4a3.dev225

  ==> Input File <==

--------------------------------------------------------------------------
#psi4
#
memory 32 gb

molecule  {
0 1
  C        1.0769770     0.3750480     0.4036540
  C       -1.0769820     0.3750600     0.4036550
  C        0.0000030     1.4273620     0.0552210
  C       -0.0000090    -0.7130420     0.1804050
  C        2.3595160     0.3194210    -0.4060430
  C       -2.3595260     0.3194330    -0.4060330
  C        3.2195680    -0.8924030    -0.0547570
  C       -3.2195490    -0.8924170    -0.0547640
  H        1.3139090     0.4360540     1.4748590
  H       -1.3139070     0.4360710     1.4748610
  H        0.0000080     2.3782020     0.5982830
  H        0.0000040     1.6360460    -1.0223960
  H       -0.0000100    -1.0431540    -0.8674540
  H       -0.0000130    -1.5954000     0.8282360
  H        2.9313650     1.2434240    -0.2483150
  H        2.0993870     0.2926970    -1.4725700
  H       -2.0994060     0.2927390    -1.4725620
  H       -2.9313940     1.2434200    -0.2482770
  H        2.6724260    -1.8222580    -0.2378450
  H        4.1369510    -0.9193470    -0.6503860
  H        3.5046520    -0.8738050     1.0019030
  H       -3.5376097    -0.8061711     0.9890495
  H       -4.1369540    -0.9193510    -0.6503600
  H       -2.6724020    -1.8222580    -0.2379080
units angstrom
no_reorient  #important for SAPT in psi4, default
symmetry c1  #important for SAPT in psi4, default
}

set PROPERTIES_ORIGIN ["COM"]
properties('MP2/aug-cc-pvtz', properties = ['dipole'])
--------------------------------------------------------------------------

    Molecular point group: c1
  Charge       = 0
  Multiplicity = 1
  Basis Set: AUG-CC-PVTZ
    Blend: AUG-CC-PVTZ
  Basis Set: (AUG-CC-PVTZ AUX)
    Blend: AUG-CC-PVTZ-JKFIT

    Orbital Energies [Eh]
    ---------------------

    Doubly Occupied:

       1A    -11.218342     2A    -11.218264     3A    -11.213357
       4A    -11.212896     5A    -11.211374     6A    -11.210943
       7A    -11.209286     8A    -11.209150     9A     -1.140595
      10A     -1.046096    11A     -1.007620    12A     -0.899096
      13A     -0.891951    14A     -0.840568    15A     -0.768506
      16A     -0.743676    17A     -0.651782    18A     -0.618453
      19A     -0.612057    20A     -0.586539    21A     -0.571923
      22A     -0.535095    23A     -0.530629    24A     -0.524968
      25A     -0.509975    26A     -0.503266    27A     -0.482989
      28A     -0.463202    29A     -0.441932    30A     -0.441161
      31A     -0.421616    32A     -0.406822

  @DF-RHF Final Energy:  -312.34611855445888

   => Energetics <=

    Nuclear Repulsion Energy =            390.1254529522070129
    One-Electron Energy =               -1194.2548866127660858
    Two-Electron Energy =                 491.7833151061001331
    Total Energy =                       -312.3461185544588830
  Basis Set: (AUG-CC-PVTZ AUX)
    Blend: AUG-CC-PVTZ-RI
    Molecular point group: c1

    Geometry (in Angstrom), charge = 0, multiplicity = 1:

       Center              X                  Y                   Z               Mass
    ------------   -----------------  -----------------  -----------------  -----------------
         C            1.077273774290     0.357531592950     0.397327348408    12.000000000000
         C           -1.076685225710     0.357543592950     0.397328348408    12.000000000000
         C            0.000299774290     1.409845592950     0.048894348408    12.000000000000
         C            0.000287774290    -0.730558407050     0.174078348408    12.000000000000
         C            2.359812774290     0.301904592950    -0.412369651592    12.000000000000
         C           -2.359229225710     0.301916592950    -0.412359651592    12.000000000000
         C            3.219864774290    -0.909919407050    -0.061083651592    12.000000000000
         C           -3.219252225710    -0.909933407050    -0.061090651592    12.000000000000
         H            1.314205774290     0.418537592950     1.468532348408     1.007825032230
         H           -1.313610225710     0.418554592950     1.468534348408     1.007825032230
         H            0.000304774290     2.360685592950     0.591956348408     1.007825032230
         H            0.000300774290     1.618529592950    -1.028722651592     1.007825032230
         H            0.000286774290    -1.060670407050    -0.873780651592     1.007825032230
         H            0.000283774290    -1.612916407050     0.821909348408     1.007825032230
         H            2.931661774290     1.225907592950    -0.254641651592     1.007825032230
         H            2.099683774290     0.275180592950    -1.478896651592     1.007825032230
         H           -2.099109225710     0.275222592950    -1.478888651592     1.007825032230
         H           -2.931097225710     1.225903592950    -0.254603651592     1.007825032230
         H            2.672722774290    -1.839774407050    -0.244171651592     1.007825032230
         H            4.137247774290    -0.936863407050    -0.656712651592     1.007825032230
         H            3.504948774290    -0.891321407050     0.995576348408     1.007825032230
         H           -3.537312925710    -0.823687507050     0.982722848408     1.007825032230
         H           -4.136657225710    -0.936867407050    -0.656686651592     1.007825032230
         H           -2.672105225710    -1.839774407050    -0.244234651592     1.007825032230

  Basis Set: AUG-CC-PVTZ
    Blend: AUG-CC-PVTZ
  Basis Set: (AUG-CC-PVTZ AUX)
    Blend: AUG-CC-PVTZ-JKFIT
	 Reference Energy          =    -312.3461185544588830 [Eh]
	 Singles Energy            =      -0.0000000000000000 [Eh]
	 Same-Spin Energy          =      -0.3391147033805548 [Eh]
	 Opposite-Spin Energy      =      -1.2315963734792037 [Eh]
	 Correlation Energy        =      -1.5707110768597585 [Eh]
	 Total Energy              =    -313.9168296313186488 [Eh]

	 ================> DF-SCS-MP2 Energies <==================
	-----------------------------------------------------------
	 SCS Same-Spin Scale       =       0.3333333333333333 [-]
	 SCS Opposite-Spin Scale   =       1.2000000000000000 [-]
	 SCS Same-Spin Energy      =      -0.1130382344601849 [Eh]
	 SCS Opposite-Spin Energy  =      -1.4779156481750444 [Eh]
	 SCS Correlation Energy    =      -1.5909538826352294 [Eh]
	 SCS Total Energy          =    -313.9370724370941161 [Eh]
	-----------------------------------------------------------

  Dipole Moment: [D]
     X:    -0.0128      Y:     0.0862      Z:     0.0772     Total:     0.1164

*** Psi4 exiting successfully. Buy a developer a beer!
