                               Psi4 1.4a3.dev225

  ==> Input File <==

--------------------------------------------------------------------------
#psi4
#
memory 32 gb

molecule  {
0 1
  C        1.0769770     0.3750480     0.4036540
  C       -1.0769820     0.3750600     0.4036550
  C       -0.0696804     1.4954499     0.0326763
  C       -0.0000090    -0.7130420     0.1804050
  C        2.3595160     0.3194210    -0.4060430
  C       -2.3595260     0.3194330    -0.4060330
  C        3.2195680    -0.8924030    -0.0547570
  C       -3.2195490    -0.8924170    -0.0547640
  H        1.3139090     0.4360540     1.4748590
  H       -1.3139070     0.4360710     1.4748610
  H        0.0000080     2.3782020     0.5982830
  H        0.0000040     1.6360460    -1.0223960
  H       -0.0000100    -1.0431540    -0.8674540
  H       -0.0000130    -1.5954000     0.8282360
  H        2.9313650     1.2434240    -0.2483150
  H        2.0993870     0.2926970    -1.4725700
  H       -2.0994060     0.2927390    -1.4725620
  H       -2.9313940     1.2434200    -0.2482770
  H        2.6724260    -1.8222580    -0.2378450
  H        4.1369510    -0.9193470    -0.6503860
  H        3.5046520    -0.8738050     1.0019030
  H       -3.5045960    -0.8738620     1.0019060
  H       -4.1369540    -0.9193510    -0.6503600
  H       -2.6724020    -1.8222580    -0.2379080
units angstrom
no_reorient  #important for SAPT in psi4, default
symmetry c1  #important for SAPT in psi4, default
}

set PROPERTIES_ORIGIN ["COM"]
properties('MP2/aug-cc-pvtz', properties = ['dipole'])
--------------------------------------------------------------------------

    Molecular point group: c1
  Charge       = 0
  Multiplicity = 1
  Basis Set: AUG-CC-PVTZ
    Blend: AUG-CC-PVTZ
  Basis Set: (AUG-CC-PVTZ AUX)
    Blend: AUG-CC-PVTZ-JKFIT

    Orbital Energies [Eh]
    ---------------------

    Doubly Occupied:

       1A    -11.222962     2A    -11.221002     3A    -11.213227
       4A    -11.212038     5A    -11.211286     6A    -11.209146
       7A    -11.208530     8A    -11.208207     9A     -1.130094
      10A     -1.044941    11A     -1.004577    12A     -0.900290
      13A     -0.892473    14A     -0.840899    15A     -0.766558
      16A     -0.745613    17A     -0.652707    18A     -0.616379
      19A     -0.610046    20A     -0.585991    21A     -0.568269
      22A     -0.542773    23A     -0.535158    24A     -0.524092
      25A     -0.507301    26A     -0.504997    27A     -0.482723
      28A     -0.463738    29A     -0.447506    30A     -0.440154
      31A     -0.423167    32A     -0.388747

  @DF-RHF Final Energy:  -312.33901915018038

   => Energetics <=

    Nuclear Repulsion Energy =            388.8558949762098109
    One-Electron Energy =               -1191.7386477195652787
    Two-Electron Energy =                 490.5437335931750908
    Total Energy =                       -312.3390191501803770
  Basis Set: (AUG-CC-PVTZ AUX)
    Blend: AUG-CC-PVTZ-RI
    Molecular point group: c1

    Geometry (in Angstrom), charge = 0, multiplicity = 1:

       Center              X                  Y                   Z               Mass
    ------------   -----------------  -----------------  -----------------  -----------------
         C            1.084434776126     0.350853038860     0.399624595559    12.000000000000
         C           -1.069524223874     0.350865038860     0.399625595559    12.000000000000
         C           -0.062222623874     1.471254938860     0.028646895559    12.000000000000
         C            0.007448776126    -0.737236961140     0.176375595559    12.000000000000
         C            2.366973776126     0.295226038860    -0.410072404441    12.000000000000
         C           -2.352068223874     0.295238038860    -0.410062404441    12.000000000000
         C            3.227025776126    -0.916597961140    -0.058786404441    12.000000000000
         C           -3.212091223874    -0.916611961140    -0.058793404441    12.000000000000
         H            1.321366776126     0.411859038860     1.470829595559     1.007825032230
         H           -1.306449223874     0.411876038860     1.470831595559     1.007825032230
         H            0.007465776126     2.354007038860     0.594253595559     1.007825032230
         H            0.007461776126     1.611851038860    -1.026425404441     1.007825032230
         H            0.007447776126    -1.067348961140    -0.871483404441     1.007825032230
         H            0.007444776126    -1.619594961140     0.824206595559     1.007825032230
         H            2.938822776126     1.219229038860    -0.252344404441     1.007825032230
         H            2.106844776126     0.268502038860    -1.476599404441     1.007825032230
         H           -2.091948223874     0.268544038860    -1.476591404441     1.007825032230
         H           -2.923936223874     1.219225038860    -0.252306404441     1.007825032230
         H            2.679883776126    -1.846452961140    -0.241874404441     1.007825032230
         H            4.144408776126    -0.943541961140    -0.654415404441     1.007825032230
         H            3.512109776126    -0.897999961140     0.997873595559     1.007825032230
         H           -3.497138223874    -0.898056961140     0.997876595559     1.007825032230
         H           -4.129496223874    -0.943545961140    -0.654389404441     1.007825032230
         H           -2.664944223874    -1.846452961140    -0.241937404441     1.007825032230

  Basis Set: AUG-CC-PVTZ
    Blend: AUG-CC-PVTZ
  Basis Set: (AUG-CC-PVTZ AUX)
    Blend: AUG-CC-PVTZ-JKFIT
	 Reference Energy          =    -312.3390191501803770 [Eh]
	 Singles Energy            =      -0.0000000000000000 [Eh]
	 Same-Spin Energy          =      -0.3390304739554963 [Eh]
	 Opposite-Spin Energy      =      -1.2322905037550820 [Eh]
	 Correlation Energy        =      -1.5713209777105783 [Eh]
	 Total Energy              =    -313.9103401278909473 [Eh]

	 ================> DF-SCS-MP2 Energies <==================
	-----------------------------------------------------------
	 SCS Same-Spin Scale       =       0.3333333333333333 [-]
	 SCS Opposite-Spin Scale   =       1.2000000000000000 [-]
	 SCS Same-Spin Energy      =      -0.1130101579851654 [Eh]
	 SCS Opposite-Spin Energy  =      -1.4787486045060982 [Eh]
	 SCS Correlation Energy    =      -1.5917587624912637 [Eh]
	 SCS Total Energy          =    -313.9307779126716582 [Eh]
	-----------------------------------------------------------

  Dipole Moment: [D]
     X:     0.0584      Y:     0.0788      Z:     0.1028     Total:     0.1421

*** Psi4 exiting successfully. Buy a developer a beer!
