                               Psi4 1.4a3.dev225

  ==> Input File <==

--------------------------------------------------------------------------
#psi4
#
memory 32 gb

molecule  {
0 1
  C        1.0769770     0.3750480     0.4036540
  C       -1.0769820     0.3750600     0.4036550
  C        0.0000030     1.4273620     0.0552210
  C       -0.0000090    -0.7130420     0.1804050
  C        2.3595160     0.3194210    -0.4060430
  C       -2.3595260     0.3194330    -0.4060330
  C        3.2195680    -0.8924030    -0.0547570
  C       -3.0937364    -0.9826598    -0.0944253
  H        1.3139090     0.4360540     1.4748590
  H       -1.3139070     0.4360710     1.4748610
  H        0.0000080     2.3782020     0.5982830
  H        0.0000040     1.6360460    -1.0223960
  H       -0.0000100    -1.0431540    -0.8674540
  H       -0.0000130    -1.5954000     0.8282360
  H        2.9313650     1.2434240    -0.2483150
  H        2.0993870     0.2926970    -1.4725700
  H       -2.0994060     0.2927390    -1.4725620
  H       -2.9313940     1.2434200    -0.2482770
  H        2.6724260    -1.8222580    -0.2378450
  H        4.1369510    -0.9193470    -0.6503860
  H        3.5046520    -0.8738050     1.0019030
  H       -3.5045960    -0.8738620     1.0019060
  H       -4.1369540    -0.9193510    -0.6503600
  H       -2.6724020    -1.8222580    -0.2379080
units angstrom
no_reorient  #important for SAPT in psi4, default
symmetry c1  #important for SAPT in psi4, default
}

set PROPERTIES_ORIGIN ["COM"]
properties('MP2/aug-cc-pvtz', properties = ['dipole'])
--------------------------------------------------------------------------

    Molecular point group: c1
  Charge       = 0
  Multiplicity = 1
  Basis Set: AUG-CC-PVTZ
    Blend: AUG-CC-PVTZ
  Basis Set: (AUG-CC-PVTZ AUX)
    Blend: AUG-CC-PVTZ-JKFIT

    Orbital Energies [Eh]
    ---------------------

    Doubly Occupied:

       1A    -11.218622     2A    -11.217568     3A    -11.215807
       4A    -11.213533     5A    -11.213440     6A    -11.212100
       7A    -11.210241     8A    -11.209357     9A     -1.141170
      10A     -1.047694    11A     -1.008391    12A     -0.900578
      13A     -0.892503    14A     -0.844438    15A     -0.771883
      16A     -0.743883    17A     -0.652529    18A     -0.627066
      19A     -0.612198    20A     -0.587982    21A     -0.566554
      22A     -0.549544    23A     -0.531111    24A     -0.526997
      25A     -0.509084    26A     -0.499335    27A     -0.477631
      28A     -0.453863    29A     -0.444123    30A     -0.438454
      31A     -0.422855    32A     -0.402204

  @DF-RHF Final Energy:  -312.31481503401812

   => Energetics <=

    Nuclear Repulsion Energy =            390.8929551158272488
    One-Electron Energy =               -1195.6900620150192935
    Two-Electron Energy =                 492.4822918651739201
    Total Energy =                       -312.3148150340181246
  Basis Set: (AUG-CC-PVTZ AUX)
    Blend: AUG-CC-PVTZ-RI
    Molecular point group: c1

    Geometry (in Angstrom), charge = 0, multiplicity = 1:

       Center              X                  Y                   Z               Mass
    ------------   -----------------  -----------------  -----------------  -----------------
         C            1.063512164713     0.367798100196     0.401456469206    12.000000000000
         C           -1.090446835287     0.367810100196     0.401457469206    12.000000000000
         C           -0.013461835287     1.420112100196     0.053023469206    12.000000000000
         C           -0.013473835287    -0.720291899804     0.178207469206    12.000000000000
         C            2.346051164713     0.312171100196    -0.408240530794    12.000000000000
         C           -2.372990835287     0.312183100196    -0.408230530794    12.000000000000
         C            3.206103164713    -0.899652899804    -0.056954530794    12.000000000000
         C           -3.107201235287    -0.989909699804    -0.096622830794    12.000000000000
         H            1.300444164713     0.428804100196     1.472661469206     1.007825032230
         H           -1.327371835287     0.428821100196     1.472663469206     1.007825032230
         H           -0.013456835287     2.370952100196     0.596085469206     1.007825032230
         H           -0.013460835287     1.628796100196    -1.024593530794     1.007825032230
         H           -0.013474835287    -1.050403899804    -0.869651530794     1.007825032230
         H           -0.013477835287    -1.602649899804     0.826038469206     1.007825032230
         H            2.917900164713     1.236174100196    -0.250512530794     1.007825032230
         H            2.085922164713     0.285447100196    -1.474767530794     1.007825032230
         H           -2.112870835287     0.285489100196    -1.474759530794     1.007825032230
         H           -2.944858835287     1.236170100196    -0.250474530794     1.007825032230
         H            2.658961164713    -1.829507899804    -0.240042530794     1.007825032230
         H            4.123486164713    -0.926596899804    -0.652583530794     1.007825032230
         H            3.491187164713    -0.881054899804     0.999705469206     1.007825032230
         H           -3.518060835287    -0.881111899804     0.999708469206     1.007825032230
         H           -4.150418835287    -0.926600899804    -0.652557530794     1.007825032230
         H           -2.685866835287    -1.829507899804    -0.240105530794     1.007825032230

  Basis Set: AUG-CC-PVTZ
    Blend: AUG-CC-PVTZ
  Basis Set: (AUG-CC-PVTZ AUX)
    Blend: AUG-CC-PVTZ-JKFIT
	 Reference Energy          =    -312.3148150340181246 [Eh]
	 Singles Energy            =      -0.0000000000000000 [Eh]
	 Same-Spin Energy          =      -0.3395904124485661 [Eh]
	 Opposite-Spin Energy      =      -1.2330498315690981 [Eh]
	 Correlation Energy        =      -1.5726402440176641 [Eh]
	 Total Energy              =    -313.8874552780358158 [Eh]

	 ================> DF-SCS-MP2 Energies <==================
	-----------------------------------------------------------
	 SCS Same-Spin Scale       =       0.3333333333333333 [-]
	 SCS Opposite-Spin Scale   =       1.2000000000000000 [-]
	 SCS Same-Spin Energy      =      -0.1131968041495220 [Eh]
	 SCS Opposite-Spin Energy  =      -1.4796597978829176 [Eh]
	 SCS Correlation Energy    =      -1.5928566020324395 [Eh]
	 SCS Total Energy          =    -313.9076716360505657 [Eh]
	-----------------------------------------------------------

  Dipole Moment: [D]
     X:     0.0479      Y:     0.0963      Z:     0.0608     Total:     0.1236

*** Psi4 exiting successfully. Buy a developer a beer!
