                               Psi4 1.4a3.dev225

  ==> Input File <==

--------------------------------------------------------------------------
#psi4
#
memory 32 gb

molecule  {
0 1
  C        1.0769770     0.3750480     0.4036540
  C       -1.0769820     0.3750600     0.4036550
  C        0.0000030     1.4273620     0.0552210
  C       -0.0000090    -0.7130420     0.1804050
  C        2.3595160     0.3194210    -0.4060430
  C       -2.3595260     0.3194330    -0.4060330
  C        3.2195680    -0.8924030    -0.0547570
  C       -3.2195490    -0.8924170    -0.0547640
  H        1.3139090     0.4360540     1.4748590
  H       -1.3139070     0.4360710     1.4748610
  H        0.0000080     2.3782020     0.5982830
  H        0.0000040     1.6360460    -1.0223960
  H       -0.0000100    -1.0431540    -0.8674540
  H       -0.0000130    -1.5954000     0.8282360
  H        2.9313650     1.2434240    -0.2483150
  H        2.0993870     0.2926970    -1.4725700
  H       -2.0994060     0.2927390    -1.4725620
  H       -2.9313940     1.2434200    -0.2482770
  H        2.6724260    -1.8222580    -0.2378450
  H        3.9692572    -0.9144217    -0.5415075
  H        3.5046520    -0.8738050     1.0019030
  H       -3.5045960    -0.8738620     1.0019060
  H       -4.1369540    -0.9193510    -0.6503600
  H       -2.6724020    -1.8222580    -0.2379080
units angstrom
no_reorient  #important for SAPT in psi4, default
symmetry c1  #important for SAPT in psi4, default
}

set PROPERTIES_ORIGIN ["COM"]
properties('MP2/aug-cc-pvtz', properties = ['dipole'])
--------------------------------------------------------------------------

    Molecular point group: c1
  Charge       = 0
  Multiplicity = 1
  Basis Set: AUG-CC-PVTZ
    Blend: AUG-CC-PVTZ
  Basis Set: (AUG-CC-PVTZ AUX)
    Blend: AUG-CC-PVTZ-JKFIT

    Orbital Energies [Eh]
    ---------------------

    Doubly Occupied:

       1A    -11.217550     2A    -11.217120     3A    -11.212807
       4A    -11.211891     5A    -11.210480     6A    -11.209870
       7A    -11.208698     8A    -11.183869     9A     -1.139771
      10A     -1.049708    11A     -1.013521    12A     -0.910388
      13A     -0.891076    14A     -0.848579    15A     -0.769456
      16A     -0.742813    17A     -0.651565    18A     -0.621601
      19A     -0.615720    20A     -0.588618    21A     -0.583639
      22A     -0.538672    23A     -0.531464    24A     -0.529672
      25A     -0.508497    26A     -0.505885    27A     -0.481469
      28A     -0.464585    29A     -0.442026    30A     -0.440203
      31A     -0.420651    32A     -0.407120

  @DF-RHF Final Energy:  -312.31270460422070

   => Energetics <=

    Nuclear Repulsion Energy =            391.1321112276634722
    One-Electron Energy =               -1196.1516685722399416
    Two-Electron Energy =                 492.7068527403557709
    Total Energy =                       -312.3127046042206985
  Basis Set: (AUG-CC-PVTZ AUX)
    Blend: AUG-CC-PVTZ-RI
    Molecular point group: c1

    Geometry (in Angstrom), charge = 0, multiplicity = 1:

       Center              X                  Y                   Z               Mass
    ------------   -----------------  -----------------  -----------------  -----------------
         C            1.078484331555     0.358095754643     0.396233146750    12.000000000000
         C           -1.075474668445     0.358107754643     0.396234146750    12.000000000000
         C            0.001510331555     1.410409754643     0.047800146750    12.000000000000
         C            0.001498331555    -0.729994245357     0.172984146750    12.000000000000
         C            2.361023331555     0.302468754643    -0.413463853250    12.000000000000
         C           -2.358018668445     0.302480754643    -0.413453853250    12.000000000000
         C            3.221075331555    -0.909355245357    -0.062177853250    12.000000000000
         C           -3.218041668445    -0.909369245357    -0.062184853250    12.000000000000
         H            1.315416331555     0.419101754643     1.467438146750     1.007825032230
         H           -1.312399668445     0.419118754643     1.467440146750     1.007825032230
         H            0.001515331555     2.361249754643     0.590862146750     1.007825032230
         H            0.001511331555     1.619093754643    -1.029816853250     1.007825032230
         H            0.001497331555    -1.060106245357    -0.874874853250     1.007825032230
         H            0.001494331555    -1.612352245357     0.820815146750     1.007825032230
         H            2.932872331555     1.226471754643    -0.255735853250     1.007825032230
         H            2.100894331555     0.275744754643    -1.479990853250     1.007825032230
         H           -2.097898668445     0.275786754643    -1.479982853250     1.007825032230
         H           -2.929886668445     1.226467754643    -0.255697853250     1.007825032230
         H            2.673933331555    -1.839210245357    -0.245265853250     1.007825032230
         H            3.970764531555    -0.931373945357    -0.548928353250     1.007825032230
         H            3.506159331555    -0.890757245357     0.994482146750     1.007825032230
         H           -3.503088668445    -0.890814245357     0.994485146750     1.007825032230
         H           -4.135446668445    -0.936303245357    -0.657780853250     1.007825032230
         H           -2.670894668445    -1.839210245357    -0.245328853250     1.007825032230

  Basis Set: AUG-CC-PVTZ
    Blend: AUG-CC-PVTZ
  Basis Set: (AUG-CC-PVTZ AUX)
    Blend: AUG-CC-PVTZ-JKFIT
	 Reference Energy          =    -312.3127046042206985 [Eh]
	 Singles Energy            =      -0.0000000000000000 [Eh]
	 Same-Spin Energy          =      -0.3392754605850972 [Eh]
	 Opposite-Spin Energy      =      -1.2309875641482875 [Eh]
	 Correlation Energy        =      -1.5702630247333846 [Eh]
	 Total Energy              =    -313.8829676289540771 [Eh]

	 ================> DF-SCS-MP2 Energies <==================
	-----------------------------------------------------------
	 SCS Same-Spin Scale       =       0.3333333333333333 [-]
	 SCS Opposite-Spin Scale   =       1.2000000000000000 [-]
	 SCS Same-Spin Energy      =      -0.1130918201950324 [Eh]
	 SCS Opposite-Spin Energy  =      -1.4771850769779449 [Eh]
	 SCS Correlation Energy    =      -1.5902768971729773 [Eh]
	 SCS Total Energy          =    -313.9029815013936968 [Eh]
	-----------------------------------------------------------

  Dipole Moment: [D]
     X:     0.1248      Y:     0.0388      Z:     0.0426     Total:     0.1374

*** Psi4 exiting successfully. Buy a developer a beer!
