                               Psi4 1.4a3.dev225

  ==> Input File <==

--------------------------------------------------------------------------
#psi4
#
memory 32 gb

molecule  {
0 1
  C        1.0769770     0.3750480     0.4036540
  C       -1.0769820     0.3750600     0.4036550
  C        0.0000030     1.4273620     0.0552210
  C       -0.0000090    -0.7130420     0.1804050
  C        2.3595160     0.3194210    -0.4060430
  C       -2.3595260     0.3194330    -0.4060330
  C        3.2195680    -0.8924030    -0.0547570
  C       -3.2477103    -0.9320988    -0.0432618
  H        1.3139090     0.4360540     1.4748590
  H       -1.3139070     0.4360710     1.4748610
  H        0.0000080     2.3782020     0.5982830
  H        0.0000040     1.6360460    -1.0223960
  H       -0.0000100    -1.0431540    -0.8674540
  H       -0.0000130    -1.5954000     0.8282360
  H        2.9313650     1.2434240    -0.2483150
  H        2.0993870     0.2926970    -1.4725700
  H       -2.0994060     0.2927390    -1.4725620
  H       -2.9313940     1.2434200    -0.2482770
  H        2.6724260    -1.8222580    -0.2378450
  H        4.1369510    -0.9193470    -0.6503860
  H        3.5046520    -0.8738050     1.0019030
  H       -3.5045960    -0.8738620     1.0019060
  H       -4.1369540    -0.9193510    -0.6503600
  H       -2.6724020    -1.8222580    -0.2379080
units angstrom
no_reorient  #important for SAPT in psi4, default
symmetry c1  #important for SAPT in psi4, default
}

set PROPERTIES_ORIGIN ["COM"]
properties('MP2/aug-cc-pvtz', properties = ['dipole'])
--------------------------------------------------------------------------

    Molecular point group: c1
  Charge       = 0
  Multiplicity = 1
  Basis Set: AUG-CC-PVTZ
    Blend: AUG-CC-PVTZ
  Basis Set: (AUG-CC-PVTZ AUX)
    Blend: AUG-CC-PVTZ-JKFIT

    Orbital Energies [Eh]
    ---------------------

    Doubly Occupied:

       1A    -11.218317     2A    -11.218270     3A    -11.215323
       4A    -11.213336     5A    -11.211277     6A    -11.210933
       7A    -11.209142     8A    -11.207147     9A     -1.140050
      10A     -1.042593    11A     -1.003531    12A     -0.900675
      13A     -0.891921    14A     -0.843029    15A     -0.768576
      16A     -0.743445    17A     -0.651542    18A     -0.616285
      19A     -0.612051    20A     -0.585229    21A     -0.572201
      22A     -0.537007    23A     -0.530657    24A     -0.521982
      25A     -0.512506    26A     -0.504101    27A     -0.484321
      28A     -0.465378    29A     -0.442376    30A     -0.438500
      31A     -0.420713    32A     -0.406058

  @DF-RHF Final Energy:  -312.34498218546389

   => Energetics <=

    Nuclear Repulsion Energy =            389.4431414494813453
    One-Electron Energy =               -1192.8993015149417261
    Two-Electron Energy =                 491.1111778799964895
    Total Energy =                       -312.3449821854638913
  Basis Set: (AUG-CC-PVTZ AUX)
    Blend: AUG-CC-PVTZ-RI
    Molecular point group: c1

    Geometry (in Angstrom), charge = 0, multiplicity = 1:

       Center              X                  Y                   Z               Mass
    ------------   -----------------  -----------------  -----------------  -----------------
         C            1.079990947283     0.362386899170     0.395980786691    12.000000000000
         C           -1.073968052717     0.362398899170     0.395981786691    12.000000000000
         C            0.003016947283     1.414700899170     0.047547786691    12.000000000000
         C            0.003004947283    -0.725703100830     0.172731786691    12.000000000000
         C            2.362529947283     0.306759899170    -0.413716213309    12.000000000000
         C           -2.356512052717     0.306771899170    -0.413706213309    12.000000000000
         C            3.222581947283    -0.905064100830    -0.062430213309    12.000000000000
         C           -3.244696352717    -0.944759900830    -0.050935013309    12.000000000000
         H            1.316922947283     0.423392899170     1.467185786691     1.007825032230
         H           -1.310893052717     0.423409899170     1.467187786691     1.007825032230
         H            0.003021947283     2.365540899170     0.590609786691     1.007825032230
         H            0.003017947283     1.623384899170    -1.030069213309     1.007825032230
         H            0.003003947283    -1.055815100830    -0.875127213309     1.007825032230
         H            0.003000947283    -1.608061100830     0.820562786691     1.007825032230
         H            2.934378947283     1.230762899170    -0.255988213309     1.007825032230
         H            2.102400947283     0.280035899170    -1.480243213309     1.007825032230
         H           -2.096392052717     0.280077899170    -1.480235213309     1.007825032230
         H           -2.928380052717     1.230758899170    -0.255950213309     1.007825032230
         H            2.675439947283    -1.834919100830    -0.245518213309     1.007825032230
         H            4.139964947283    -0.932008100830    -0.658059213309     1.007825032230
         H            3.507665947283    -0.886466100830     0.994229786691     1.007825032230
         H           -3.501582052717    -0.886523100830     0.994232786691     1.007825032230
         H           -4.133940052717    -0.932012100830    -0.658033213309     1.007825032230
         H           -2.669388052717    -1.834919100830    -0.245581213309     1.007825032230

  Basis Set: AUG-CC-PVTZ
    Blend: AUG-CC-PVTZ
  Basis Set: (AUG-CC-PVTZ AUX)
    Blend: AUG-CC-PVTZ-JKFIT
	 Reference Energy          =    -312.3449821854638913 [Eh]
	 Singles Energy            =      -0.0000000000000000 [Eh]
	 Same-Spin Energy          =      -0.3388736235270474 [Eh]
	 Opposite-Spin Energy      =      -1.2314723264178631 [Eh]
	 Correlation Energy        =      -1.5703459499449104 [Eh]
	 Total Energy              =    -313.9153281354087994 [Eh]

	 ================> DF-SCS-MP2 Energies <==================
	-----------------------------------------------------------
	 SCS Same-Spin Scale       =       0.3333333333333333 [-]
	 SCS Opposite-Spin Scale   =       1.2000000000000000 [-]
	 SCS Same-Spin Energy      =      -0.1129578745090158 [Eh]
	 SCS Opposite-Spin Energy  =      -1.4777667917014357 [Eh]
	 SCS Correlation Energy    =      -1.5907246662104515 [Eh]
	 SCS Total Energy          =    -313.9357068516743539 [Eh]
	-----------------------------------------------------------

  Dipole Moment: [D]
     X:     0.0040      Y:     0.0786      Z:     0.0855     Total:     0.1162

*** Psi4 exiting successfully. Buy a developer a beer!
