                               Psi4 1.4a3.dev225

  ==> Input File <==

--------------------------------------------------------------------------
#psi4
#
memory 32 gb

molecule  {
0 1
  C        1.0769770     0.3750480     0.4036540
  C       -1.0769820     0.3750600     0.4036550
  C        0.0000030     1.4273620     0.0552210
  C       -0.0000090    -0.7130420     0.1804050
  C        2.3595160     0.3194210    -0.4060430
  C       -2.3595260     0.3194330    -0.4060330
  C        3.2195680    -0.8924030    -0.0547570
  C       -3.1069039    -0.7336900    -0.1007729
  H        1.3139090     0.4360540     1.4748590
  H       -1.3139070     0.4360710     1.4748610
  H        0.0000080     2.3782020     0.5982830
  H        0.0000040     1.6360460    -1.0223960
  H       -0.0000100    -1.0431540    -0.8674540
  H       -0.0000130    -1.5954000     0.8282360
  H        2.9313650     1.2434240    -0.2483150
  H        2.0993870     0.2926970    -1.4725700
  H       -2.0994060     0.2927390    -1.4725620
  H       -2.9313940     1.2434200    -0.2482770
  H        2.6724260    -1.8222580    -0.2378450
  H        4.1369510    -0.9193470    -0.6503860
  H        3.5046520    -0.8738050     1.0019030
  H       -3.5045960    -0.8738620     1.0019060
  H       -4.1369540    -0.9193510    -0.6503600
  H       -2.6724020    -1.8222580    -0.2379080
units angstrom
no_reorient  #important for SAPT in psi4, default
symmetry c1  #important for SAPT in psi4, default
}

set PROPERTIES_ORIGIN ["COM"]
properties('MP2/aug-cc-pvtz', properties = ['dipole'])
--------------------------------------------------------------------------

    Molecular point group: c1
  Charge       = 0
  Multiplicity = 1
  Basis Set: AUG-CC-PVTZ
    Blend: AUG-CC-PVTZ
  Basis Set: (AUG-CC-PVTZ AUX)
    Blend: AUG-CC-PVTZ-JKFIT

    Orbital Energies [Eh]
    ---------------------

    Doubly Occupied:

       1A    -11.223879     2A    -11.220208     3A    -11.219052
       4A    -11.213926     5A    -11.212477     6A    -11.211816
       7A    -11.209523     8A    -11.203980     9A     -1.146298
      10A     -1.076194    11A     -1.019807    12A     -0.896118
      13A     -0.892506    14A     -0.829382    15A     -0.770352
      16A     -0.745863    17A     -0.653893    18A     -0.624535
      19A     -0.618116    20A     -0.598107    21A     -0.586486
      22A     -0.555414    23A     -0.531634    24A     -0.528260
      25A     -0.502834    26A     -0.490602    27A     -0.461396
      28A     -0.455994    29A     -0.441428    30A     -0.434400
      31A     -0.422167    32A     -0.402869

  @DF-RHF Final Energy:  -312.29725798447413

   => Energetics <=

    Nuclear Repulsion Energy =            393.0913896213880321
    One-Electron Energy =               -1199.9782562135706030
    Two-Electron Energy =                 494.5896086077083851
    Total Energy =                       -312.2972579844741290
  Basis Set: (AUG-CC-PVTZ AUX)
    Blend: AUG-CC-PVTZ-RI
    Molecular point group: c1

    Geometry (in Angstrom), charge = 0, multiplicity = 1:

       Center              X                  Y                   Z               Mass
    ------------   -----------------  -----------------  -----------------  -----------------
         C            1.064921392962     0.341152550522     0.402135809797    12.000000000000
         C           -1.089037607038     0.341164550522     0.402136809797    12.000000000000
         C           -0.012052607038     1.393466550522     0.053702809797    12.000000000000
         C           -0.012064607038    -0.746937449478     0.178886809797    12.000000000000
         C            2.347460392962     0.285525550522    -0.407561190203    12.000000000000
         C           -2.371581607038     0.285537550522    -0.407551190203    12.000000000000
         C            3.207512392962    -0.926298449478    -0.056275190203    12.000000000000
         C           -3.118959507038    -0.767585449478    -0.102291090203    12.000000000000
         H            1.301853392962     0.402158550522     1.473340809797     1.007825032230
         H           -1.325962607038     0.402175550522     1.473342809797     1.007825032230
         H           -0.012047607038     2.344306550522     0.596764809797     1.007825032230
         H           -0.012051607038     1.602150550522    -1.023914190203     1.007825032230
         H           -0.012065607038    -1.077049449478    -0.868972190203     1.007825032230
         H           -0.012068607038    -1.629295449478     0.826717809797     1.007825032230
         H            2.919309392962     1.209528550522    -0.249833190203     1.007825032230
         H            2.087331392962     0.258801550522    -1.474088190203     1.007825032230
         H           -2.111461607038     0.258843550522    -1.474080190203     1.007825032230
         H           -2.943449607038     1.209524550522    -0.249795190203     1.007825032230
         H            2.660370392962    -1.856153449478    -0.239363190203     1.007825032230
         H            4.124895392962    -0.953242449478    -0.651904190203     1.007825032230
         H            3.492596392962    -0.907700449478     1.000384809797     1.007825032230
         H           -3.516651607038    -0.907757449478     1.000387809797     1.007825032230
         H           -4.149009607038    -0.953246449478    -0.651878190203     1.007825032230
         H           -2.684457607038    -1.856153449478    -0.239426190203     1.007825032230

  Basis Set: AUG-CC-PVTZ
    Blend: AUG-CC-PVTZ
  Basis Set: (AUG-CC-PVTZ AUX)
    Blend: AUG-CC-PVTZ-JKFIT
	 Reference Energy          =    -312.2972579844741290 [Eh]
	 Singles Energy            =      -0.0000000000000000 [Eh]
	 Same-Spin Energy          =      -0.3418422158588769 [Eh]
	 Opposite-Spin Energy      =      -1.2351183804841430 [Eh]
	 Correlation Energy        =      -1.5769605963430200 [Eh]
	 Total Energy              =    -313.8742185808171712 [Eh]

	 ================> DF-SCS-MP2 Energies <==================
	-----------------------------------------------------------
	 SCS Same-Spin Scale       =       0.3333333333333333 [-]
	 SCS Opposite-Spin Scale   =       1.2000000000000000 [-]
	 SCS Same-Spin Energy      =      -0.1139474052862923 [Eh]
	 SCS Opposite-Spin Energy  =      -1.4821420565809715 [Eh]
	 SCS Correlation Energy    =      -1.5960894618672639 [Eh]
	 SCS Total Energy          =    -313.8933474463414086 [Eh]
	-----------------------------------------------------------

  Dipole Moment: [D]
     X:     0.0721      Y:     0.1359      Z:     0.0524     Total:     0.1625

*** Psi4 exiting successfully. Buy a developer a beer!
