                               Psi4 1.4a3.dev225

  ==> Input File <==

--------------------------------------------------------------------------
#psi4
#
memory 32 gb

molecule  {
0 1
  C        1.1060547     0.3757211     0.4479330
  C       -1.0769820     0.3750600     0.4036550
  C        0.0000030     1.4273620     0.0552210
  C       -0.0000090    -0.7130420     0.1804050
  C        2.3595160     0.3194210    -0.4060430
  C       -2.3595260     0.3194330    -0.4060330
  C        3.2195680    -0.8924030    -0.0547570
  C       -3.2195490    -0.8924170    -0.0547640
  H        1.3139090     0.4360540     1.4748590
  H       -1.3139070     0.4360710     1.4748610
  H        0.0000080     2.3782020     0.5982830
  H        0.0000040     1.6360460    -1.0223960
  H       -0.0000100    -1.0431540    -0.8674540
  H       -0.0000130    -1.5954000     0.8282360
  H        2.9313650     1.2434240    -0.2483150
  H        2.0993870     0.2926970    -1.4725700
  H       -2.0994060     0.2927390    -1.4725620
  H       -2.9313940     1.2434200    -0.2482770
  H        2.6724260    -1.8222580    -0.2378450
  H        4.1369510    -0.9193470    -0.6503860
  H        3.5046520    -0.8738050     1.0019030
  H       -3.5045960    -0.8738620     1.0019060
  H       -4.1369540    -0.9193510    -0.6503600
  H       -2.6724020    -1.8222580    -0.2379080
units angstrom
no_reorient  #important for SAPT in psi4, default
symmetry c1  #important for SAPT in psi4, default
}

set PROPERTIES_ORIGIN ["COM"]
properties('MP2/aug-cc-pvtz', properties = ['dipole'])
--------------------------------------------------------------------------

    Molecular point group: c1
  Charge       = 0
  Multiplicity = 1
  Basis Set: AUG-CC-PVTZ
    Blend: AUG-CC-PVTZ
  Basis Set: (AUG-CC-PVTZ AUX)
    Blend: AUG-CC-PVTZ-JKFIT

    Orbital Energies [Eh]
    ---------------------

    Doubly Occupied:

       1A    -11.217756     2A    -11.216728     3A    -11.213414
       4A    -11.213243     5A    -11.212650     6A    -11.212234
       7A    -11.209035     8A    -11.208527     9A     -1.134680
      10A     -1.046141    11A     -1.005905    12A     -0.899431
      13A     -0.888454    14A     -0.840026    15A     -0.772767
      16A     -0.747629    17A     -0.648186    18A     -0.617291
      19A     -0.610994    20A     -0.584780    21A     -0.571520
      22A     -0.539700    23A     -0.530374    24A     -0.523571
      25A     -0.508233    26A     -0.504804    27A     -0.481738
      28A     -0.470539    29A     -0.447554    30A     -0.437383
      31A     -0.413561    32A     -0.404302

  @DF-RHF Final Energy:  -312.34390703686080

   => Energetics <=

    Nuclear Repulsion Energy =            389.5478109218732925
    One-Electron Energy =               -1193.1171320430755713
    Two-Electron Energy =                 491.2254140843414802
    Total Energy =                       -312.3439070368607986
  Basis Set: (AUG-CC-PVTZ AUX)
    Blend: AUG-CC-PVTZ-RI
    Molecular point group: c1

    Geometry (in Angstrom), charge = 0, multiplicity = 1:

       Center              X                  Y                   Z               Mass
    ------------   -----------------  -----------------  -----------------  -----------------
         C            1.102942745195     0.358741087830     0.436751908014    12.000000000000
         C           -1.080093954805     0.358079987830     0.392473908014    12.000000000000
         C           -0.003108954805     1.410381987830     0.044039908014    12.000000000000
         C           -0.003120954805    -0.730022012170     0.169223908014    12.000000000000
         C            2.356404045195     0.302440987830    -0.417224091986    12.000000000000
         C           -2.362637954805     0.302452987830    -0.417214091986    12.000000000000
         C            3.216456045195    -0.909383012170    -0.065938091986    12.000000000000
         C           -3.222660954805    -0.909397012170    -0.065945091986    12.000000000000
         H            1.310797045195     0.419073987830     1.463677908014     1.007825032230
         H           -1.317018954805     0.419090987830     1.463679908014     1.007825032230
         H           -0.003103954805     2.361221987830     0.587101908014     1.007825032230
         H           -0.003107954805     1.619065987830    -1.033577091986     1.007825032230
         H           -0.003121954805    -1.060134012170    -0.878635091986     1.007825032230
         H           -0.003124954805    -1.612380012170     0.817054908014     1.007825032230
         H            2.928253045195     1.226443987830    -0.259496091986     1.007825032230
         H            2.096275045195     0.275716987830    -1.483751091986     1.007825032230
         H           -2.102517954805     0.275758987830    -1.483743091986     1.007825032230
         H           -2.934505954805     1.226439987830    -0.259458091986     1.007825032230
         H            2.669314045195    -1.839238012170    -0.249026091986     1.007825032230
         H            4.133839045195    -0.936327012170    -0.661567091986     1.007825032230
         H            3.501540045195    -0.890785012170     0.990721908014     1.007825032230
         H           -3.507707954805    -0.890842012170     0.990724908014     1.007825032230
         H           -4.140065954805    -0.936331012170    -0.661541091986     1.007825032230
         H           -2.675513954805    -1.839238012170    -0.249089091986     1.007825032230

  Basis Set: AUG-CC-PVTZ
    Blend: AUG-CC-PVTZ
  Basis Set: (AUG-CC-PVTZ AUX)
    Blend: AUG-CC-PVTZ-JKFIT
	 Reference Energy          =    -312.3439070368607986 [Eh]
	 Singles Energy            =      -0.0000000000000000 [Eh]
	 Same-Spin Energy          =      -0.3388644027808803 [Eh]
	 Opposite-Spin Energy      =      -1.2315935173642423 [Eh]
	 Correlation Energy        =      -1.5704579201451225 [Eh]
	 Total Energy              =    -313.9143649570059438 [Eh]

	 ================> DF-SCS-MP2 Energies <==================
	-----------------------------------------------------------
	 SCS Same-Spin Scale       =       0.3333333333333333 [-]
	 SCS Opposite-Spin Scale   =       1.2000000000000000 [-]
	 SCS Same-Spin Energy      =      -0.1129548009269601 [Eh]
	 SCS Opposite-Spin Energy  =      -1.4779122208370907 [Eh]
	 SCS Correlation Energy    =      -1.5908670217640508 [Eh]
	 SCS Total Energy          =    -313.9347740586248392 [Eh]
	-----------------------------------------------------------

  Dipole Moment: [D]
     X:     0.0158      Y:     0.0783      Z:     0.0953     Total:     0.1244

*** Psi4 exiting successfully. Buy a developer a beer!
