                               Psi4 1.4a3.dev225

  ==> Input File <==

--------------------------------------------------------------------------
#psi4
#
memory 32 gb

molecule  {
0 1
  C        1.0769770     0.3750480     0.4036540
  C       -1.0769820     0.3750600     0.4036550
  C        0.0000030     1.4273620     0.0552210
  C       -0.0000090    -0.7130420     0.1804050
  C        2.3595160     0.3194210    -0.4060430
  C       -2.3595260     0.3194330    -0.4060330
  C        3.2195680    -0.8924030    -0.0547570
  C       -3.2195490    -0.8924170    -0.0547640
  H        1.3139090     0.4360540     1.4748590
  H       -1.3139070     0.4360710     1.4748610
  H        0.0000080     2.3782020     0.5982830
  H        0.0000040     1.6360460    -1.0223960
  H       -0.0000100    -1.0431540    -0.8674540
  H       -0.0000130    -1.5954000     0.8282360
  H        2.9313650     1.2434240    -0.2483150
  H        2.0993870     0.2926970    -1.4725700
  H       -2.0994060     0.2927390    -1.4725620
  H       -2.9313940     1.2434200    -0.2482770
  H        2.6474266    -1.8647439    -0.2462104
  H        4.1369510    -0.9193470    -0.6503860
  H        3.5046520    -0.8738050     1.0019030
  H       -3.5045960    -0.8738620     1.0019060
  H       -4.1369540    -0.9193510    -0.6503600
  H       -2.6724020    -1.8222580    -0.2379080
units angstrom
no_reorient  #important for SAPT in psi4, default
symmetry c1  #important for SAPT in psi4, default
}

set PROPERTIES_ORIGIN ["COM"]
properties('MP2/aug-cc-pvtz', properties = ['dipole'])
--------------------------------------------------------------------------

    Molecular point group: c1
  Charge       = 0
  Multiplicity = 1
  Basis Set: AUG-CC-PVTZ
    Blend: AUG-CC-PVTZ
  Basis Set: (AUG-CC-PVTZ AUX)
    Blend: AUG-CC-PVTZ-JKFIT

    Orbital Energies [Eh]
    ---------------------

    Doubly Occupied:

       1A    -11.218489     2A    -11.218313     3A    -11.215457
       4A    -11.213947     5A    -11.213360     6A    -11.211321
       7A    -11.211054     8A    -11.209136     9A     -1.140626
      10A     -1.045534    11A     -1.006549    12A     -0.897729
      13A     -0.891934    14A     -0.839477    15A     -0.768550
      16A     -0.743779    17A     -0.651667    18A     -0.615965
      19A     -0.611845    20A     -0.583485    21A     -0.572556
      22A     -0.537002    23A     -0.530642    24A     -0.525077
      25A     -0.506477    26A     -0.501885    27A     -0.480806
      28A     -0.464464    29A     -0.442165    30A     -0.441212
      31A     -0.421480    32A     -0.407007

  @DF-RHF Final Energy:  -312.34467882546164

   => Energetics <=

    Nuclear Repulsion Energy =            389.9396268719992236
    One-Electron Energy =               -1193.8906266156423044
    Two-Electron Energy =                 491.6063209181813818
    Total Energy =                       -312.3446788254616422
  Basis Set: (AUG-CC-PVTZ AUX)
    Blend: AUG-CC-PVTZ-RI
    Molecular point group: c1

    Geometry (in Angstrom), charge = 0, multiplicity = 1:

       Center              X                  Y                   Z               Mass
    ------------   -----------------  -----------------  -----------------  -----------------
         C            1.077201738636     0.358521904999     0.397286980649    12.000000000000
         C           -1.076757261364     0.358533904999     0.397287980649    12.000000000000
         C            0.000227738636     1.410835904999     0.048853980649    12.000000000000
         C            0.000215738636    -0.729568095001     0.174037980649    12.000000000000
         C            2.359740738636     0.302894904999    -0.412410019351    12.000000000000
         C           -2.359301261364     0.302906904999    -0.412400019351    12.000000000000
         C            3.219792738636    -0.908929095001    -0.061124019351    12.000000000000
         C           -3.219324261364    -0.908943095001    -0.061131019351    12.000000000000
         H            1.314133738636     0.419527904999     1.468491980649     1.007825032230
         H           -1.313682261364     0.419544904999     1.468493980649     1.007825032230
         H            0.000232738636     2.361675904999     0.591915980649     1.007825032230
         H            0.000228738636     1.619519904999    -1.028763019351     1.007825032230
         H            0.000214738636    -1.059680095001    -0.873821019351     1.007825032230
         H            0.000211738636    -1.611926095001     0.821868980649     1.007825032230
         H            2.931589738636     1.226897904999    -0.254682019351     1.007825032230
         H            2.099611738636     0.276170904999    -1.478937019351     1.007825032230
         H           -2.099181261364     0.276212904999    -1.478929019351     1.007825032230
         H           -2.931169261364     1.226893904999    -0.254644019351     1.007825032230
         H            2.647651338636    -1.881269995001    -0.252577419351     1.007825032230
         H            4.137175738636    -0.935873095001    -0.656753019351     1.007825032230
         H            3.504876738636    -0.890331095001     0.995535980649     1.007825032230
         H           -3.504371261364    -0.890388095001     0.995538980649     1.007825032230
         H           -4.136729261364    -0.935877095001    -0.656727019351     1.007825032230
         H           -2.672177261364    -1.838784095001    -0.244275019351     1.007825032230

  Basis Set: AUG-CC-PVTZ
    Blend: AUG-CC-PVTZ
  Basis Set: (AUG-CC-PVTZ AUX)
    Blend: AUG-CC-PVTZ-JKFIT
	 Reference Energy          =    -312.3446788254616422 [Eh]
	 Singles Energy            =      -0.0000000000000000 [Eh]
	 Same-Spin Energy          =      -0.3390724799271188 [Eh]
	 Opposite-Spin Energy      =      -1.2318459468410721 [Eh]
	 Correlation Energy        =      -1.5709184267681908 [Eh]
	 Total Energy              =    -313.9155972522298157 [Eh]

	 ================> DF-SCS-MP2 Energies <==================
	-----------------------------------------------------------
	 SCS Same-Spin Scale       =       0.3333333333333333 [-]
	 SCS Opposite-Spin Scale   =       1.2000000000000000 [-]
	 SCS Same-Spin Energy      =      -0.1130241599757063 [Eh]
	 SCS Opposite-Spin Energy  =      -1.4782151362092864 [Eh]
	 SCS Correlation Energy    =      -1.5912392961849926 [Eh]
	 SCS Total Energy          =    -313.9359181216466368 [Eh]
	-----------------------------------------------------------

  Dipole Moment: [D]
     X:     0.0092      Y:     0.1062      Z:     0.0866     Total:     0.1374

*** Psi4 exiting successfully. Buy a developer a beer!
