                               Psi4 1.4a3.dev225

  ==> Input File <==

--------------------------------------------------------------------------
#psi4
#
memory 32 gb

molecule  {
0 1
  C        1.0769770     0.3750480     0.4036540
  C       -1.0769820     0.3750600     0.4036550
  C        0.0000030     1.4273620     0.0552210
  C       -0.0000090    -0.7130420     0.1804050
  C        2.3595160     0.3194210    -0.4060430
  C       -2.3304225     0.3170412    -0.4502354
  C        3.2195680    -0.8924030    -0.0547570
  C       -3.2195490    -0.8924170    -0.0547640
  H        1.3139090     0.4360540     1.4748590
  H       -1.3139070     0.4360710     1.4748610
  H        0.0000080     2.3782020     0.5982830
  H        0.0000040     1.6360460    -1.0223960
  H       -0.0000100    -1.0431540    -0.8674540
  H       -0.0000130    -1.5954000     0.8282360
  H        2.9313650     1.2434240    -0.2483150
  H        2.0993870     0.2926970    -1.4725700
  H       -2.0994060     0.2927390    -1.4725620
  H       -2.9313940     1.2434200    -0.2482770
  H        2.6724260    -1.8222580    -0.2378450
  H        4.1369510    -0.9193470    -0.6503860
  H        3.5046520    -0.8738050     1.0019030
  H       -3.5045960    -0.8738620     1.0019060
  H       -4.1369540    -0.9193510    -0.6503600
  H       -2.6724020    -1.8222580    -0.2379080
units angstrom
no_reorient  #important for SAPT in psi4, default
symmetry c1  #important for SAPT in psi4, default
}

set PROPERTIES_ORIGIN ["COM"]
properties('MP2/aug-cc-pvtz', properties = ['dipole'])
--------------------------------------------------------------------------

    Molecular point group: c1
  Charge       = 0
  Multiplicity = 1
  Basis Set: AUG-CC-PVTZ
    Blend: AUG-CC-PVTZ
  Basis Set: (AUG-CC-PVTZ AUX)
    Blend: AUG-CC-PVTZ-JKFIT

    Orbital Energies [Eh]
    ---------------------

    Doubly Occupied:

       1A    -11.218515     2A    -11.218119     3A    -11.213227
       4A    -11.212632     5A    -11.210856     6A    -11.210374
       7A    -11.209878     8A    -11.209074     9A     -1.140731
      10A     -1.044514    11A     -1.005021    12A     -0.898408
      13A     -0.891905    14A     -0.841787    15A     -0.771406
      16A     -0.744537    17A     -0.651668    18A     -0.617666
      19A     -0.610373    20A     -0.585351    21A     -0.570646
      22A     -0.536940    23A     -0.530794    24A     -0.521243
      25A     -0.508333    26A     -0.503226    27A     -0.487647
      28A     -0.470523    29A     -0.443932    30A     -0.437491
      31A     -0.419973    32A     -0.403703

  @DF-RHF Final Energy:  -312.34382098238854

   => Energetics <=

    Nuclear Repulsion Energy =            390.1320438010862404
    One-Electron Energy =               -1194.2707438162162816
    Two-Electron Energy =                 491.7948790327415622
    Total Energy =                       -312.3438209823885359
  Basis Set: (AUG-CC-PVTZ AUX)
    Blend: AUG-CC-PVTZ-RI
    Molecular point group: c1

    Geometry (in Angstrom), charge = 0, multiplicity = 1:

       Center              X                  Y                   Z               Mass
    ------------   -----------------  -----------------  -----------------  -----------------
         C            1.073862283996     0.358396003297     0.401942472350    12.000000000000
         C           -1.080096716004     0.358408003297     0.401943472350    12.000000000000
         C           -0.003111716004     1.410710003297     0.053509472350    12.000000000000
         C           -0.003123716004    -0.729693996703     0.178693472350    12.000000000000
         C            2.356401283996     0.302769003297    -0.407754527650    12.000000000000
         C           -2.333537216004     0.300389203297    -0.451946927650    12.000000000000
         C            3.216453283996    -0.909054996703    -0.056468527650    12.000000000000
         C           -3.222663716004    -0.909068996703    -0.056475527650    12.000000000000
         H            1.310794283996     0.419402003297     1.473147472350     1.007825032230
         H           -1.317021716004     0.419419003297     1.473149472350     1.007825032230
         H           -0.003106716004     2.361550003297     0.596571472350     1.007825032230
         H           -0.003110716004     1.619394003297    -1.024107527650     1.007825032230
         H           -0.003124716004    -1.059805996703    -0.869165527650     1.007825032230
         H           -0.003127716004    -1.612051996703     0.826524472350     1.007825032230
         H            2.928250283996     1.226772003297    -0.250026527650     1.007825032230
         H            2.096272283996     0.276045003297    -1.474281527650     1.007825032230
         H           -2.102520716004     0.276087003297    -1.474273527650     1.007825032230
         H           -2.934508716004     1.226768003297    -0.249988527650     1.007825032230
         H            2.669311283996    -1.838909996703    -0.239556527650     1.007825032230
         H            4.133836283996    -0.935998996703    -0.652097527650     1.007825032230
         H            3.501537283996    -0.890456996703     1.000191472350     1.007825032230
         H           -3.507710716004    -0.890513996703     1.000194472350     1.007825032230
         H           -4.140068716004    -0.936002996703    -0.652071527650     1.007825032230
         H           -2.675516716004    -1.838909996703    -0.239619527650     1.007825032230

  Basis Set: AUG-CC-PVTZ
    Blend: AUG-CC-PVTZ
  Basis Set: (AUG-CC-PVTZ AUX)
    Blend: AUG-CC-PVTZ-JKFIT
	 Reference Energy          =    -312.3438209823885359 [Eh]
	 Singles Energy            =      -0.0000000000000000 [Eh]
	 Same-Spin Energy          =      -0.3389849075405700 [Eh]
	 Opposite-Spin Energy      =      -1.2315862801565718 [Eh]
	 Correlation Energy        =      -1.5705711876971418 [Eh]
	 Total Energy              =    -313.9143921700857049 [Eh]

	 ================> DF-SCS-MP2 Energies <==================
	-----------------------------------------------------------
	 SCS Same-Spin Scale       =       0.3333333333333333 [-]
	 SCS Opposite-Spin Scale   =       1.2000000000000000 [-]
	 SCS Same-Spin Energy      =      -0.1129949691801900 [Eh]
	 SCS Opposite-Spin Energy  =      -1.4779035361878861 [Eh]
	 SCS Correlation Energy    =      -1.5908985053680760 [Eh]
	 SCS Total Energy          =    -313.9347194877566380 [Eh]
	-----------------------------------------------------------

  Dipole Moment: [D]
     X:     0.0105      Y:     0.0691      Z:     0.0660     Total:     0.0961

*** Psi4 exiting successfully. Buy a developer a beer!
