                               Psi4 1.4a3.dev225

  ==> Input File <==

--------------------------------------------------------------------------
#psi4
#
memory 32 gb

molecule  {
0 1
  C        1.0769770     0.3750480     0.4036540
  C       -1.0769820     0.3750600     0.4036550
  C        0.0044425     1.3925951    -0.0468024
  C       -0.0000090    -0.7130420     0.1804050
  C        2.3595160     0.3194210    -0.4060430
  C       -2.3595260     0.3194330    -0.4060330
  C        3.2195680    -0.8924030    -0.0547570
  C       -3.2195490    -0.8924170    -0.0547640
  H        1.3139090     0.4360540     1.4748590
  H       -1.3139070     0.4360710     1.4748610
  H        0.0000080     2.3782020     0.5982830
  H        0.0000040     1.6360460    -1.0223960
  H       -0.0000100    -1.0431540    -0.8674540
  H       -0.0000130    -1.5954000     0.8282360
  H        2.9313650     1.2434240    -0.2483150
  H        2.0993870     0.2926970    -1.4725700
  H       -2.0994060     0.2927390    -1.4725620
  H       -2.9313940     1.2434200    -0.2482770
  H        2.6724260    -1.8222580    -0.2378450
  H        4.1369510    -0.9193470    -0.6503860
  H        3.5046520    -0.8738050     1.0019030
  H       -3.5045960    -0.8738620     1.0019060
  H       -4.1369540    -0.9193510    -0.6503600
  H       -2.6724020    -1.8222580    -0.2379080
units angstrom
no_reorient  #important for SAPT in psi4, default
symmetry c1  #important for SAPT in psi4, default
}

set PROPERTIES_ORIGIN ["COM"]
properties('MP2/aug-cc-pvtz', properties = ['dipole'])
--------------------------------------------------------------------------

    Molecular point group: c1
  Charge       = 0
  Multiplicity = 1
  Basis Set: AUG-CC-PVTZ
    Blend: AUG-CC-PVTZ
  Basis Set: (AUG-CC-PVTZ AUX)
    Blend: AUG-CC-PVTZ-JKFIT

    Orbital Energies [Eh]
    ---------------------

    Doubly Occupied:

       1A    -11.218901     2A    -11.218737     3A    -11.212978
       4A    -11.212912     5A    -11.211921     6A    -11.211187
       7A    -11.208879     8A    -11.208825     9A     -1.142620
      10A     -1.046215    11A     -1.007272    12A     -0.899431
      13A     -0.893069    14A     -0.840627    15A     -0.768380
      16A     -0.753496    17A     -0.645037    18A     -0.617181
      19A     -0.614953    20A     -0.582864    21A     -0.571716
      22A     -0.539923    23A     -0.539388    24A     -0.524336
      25A     -0.507981    26A     -0.507643    27A     -0.480980
      28A     -0.465775    29A     -0.451907    30A     -0.438012
      31A     -0.407468    32A     -0.406080

  @DF-RHF Final Energy:  -312.33309589382287

   => Energetics <=

    Nuclear Repulsion Energy =            390.5033787137732588
    One-Electron Energy =               -1194.9595640456200272
    Two-Electron Energy =                 492.1230894380238965
    Total Energy =                       -312.3330958938228719
  Basis Set: (AUG-CC-PVTZ AUX)
    Blend: AUG-CC-PVTZ-RI
    Molecular point group: c1

    Geometry (in Angstrom), charge = 0, multiplicity = 1:

       Center              X                  Y                   Z               Mass
    ------------   -----------------  -----------------  -----------------  -----------------
         C            1.076501904694     0.361860890747     0.408130661953    12.000000000000
         C           -1.077457095306     0.361872890747     0.408131661953    12.000000000000
         C            0.003967404694     1.379407990747    -0.042325738047    12.000000000000
         C           -0.000484095306    -0.726229109253     0.184881661953    12.000000000000
         C            2.359040904694     0.306233890747    -0.401566338047    12.000000000000
         C           -2.360001095306     0.306245890747    -0.401556338047    12.000000000000
         C            3.219092904694    -0.905590109253    -0.050280338047    12.000000000000
         C           -3.220024095306    -0.905604109253    -0.050287338047    12.000000000000
         H            1.313433904694     0.422866890747     1.479335661953     1.007825032230
         H           -1.314382095306     0.422883890747     1.479337661953     1.007825032230
         H           -0.000467095306     2.365014890747     0.602759661953     1.007825032230
         H           -0.000471095306     1.622858890747    -1.017919338047     1.007825032230
         H           -0.000485095306    -1.056341109253    -0.862977338047     1.007825032230
         H           -0.000488095306    -1.608587109253     0.832712661953     1.007825032230
         H            2.930889904694     1.230236890747    -0.243838338047     1.007825032230
         H            2.098911904694     0.279509890747    -1.468093338047     1.007825032230
         H           -2.099881095306     0.279551890747    -1.468085338047     1.007825032230
         H           -2.931869095306     1.230232890747    -0.243800338047     1.007825032230
         H            2.671950904694    -1.835445109253    -0.233368338047     1.007825032230
         H            4.136475904694    -0.932534109253    -0.645909338047     1.007825032230
         H            3.504176904694    -0.886992109253     1.006379661953     1.007825032230
         H           -3.505071095306    -0.887049109253     1.006382661953     1.007825032230
         H           -4.137429095306    -0.932538109253    -0.645883338047     1.007825032230
         H           -2.672877095306    -1.835445109253    -0.233431338047     1.007825032230

  Basis Set: AUG-CC-PVTZ
    Blend: AUG-CC-PVTZ
  Basis Set: (AUG-CC-PVTZ AUX)
    Blend: AUG-CC-PVTZ-JKFIT
	 Reference Energy          =    -312.3330958938228719 [Eh]
	 Singles Energy            =      -0.0000000000000000 [Eh]
	 Same-Spin Energy          =      -0.3391869119709316 [Eh]
	 Opposite-Spin Energy      =      -1.2320320556311815 [Eh]
	 Correlation Energy        =      -1.5712189676021131 [Eh]
	 Total Energy              =    -313.9043148614250072 [Eh]

	 ================> DF-SCS-MP2 Energies <==================
	-----------------------------------------------------------
	 SCS Same-Spin Scale       =       0.3333333333333333 [-]
	 SCS Opposite-Spin Scale   =       1.2000000000000000 [-]
	 SCS Same-Spin Energy      =      -0.1130623039903105 [Eh]
	 SCS Opposite-Spin Energy  =      -1.4784384667574177 [Eh]
	 SCS Correlation Energy    =      -1.5915007707477282 [Eh]
	 SCS Total Energy          =    -313.9245966645705721 [Eh]
	-----------------------------------------------------------

  Dipole Moment: [D]
     X:    -0.0030      Y:     0.0175      Z:     0.0187     Total:     0.0258

*** Psi4 exiting successfully. Buy a developer a beer!
