                               Psi4 1.4a3.dev225

  ==> Input File <==

--------------------------------------------------------------------------
#psi4
#
memory 32 gb

molecule  {
0 1
  C        1.0769770     0.3750480     0.4036540
  C       -1.0769820     0.3750600     0.4036550
  C        0.0000030     1.4273620     0.0552210
  C        0.0347960    -0.7482067     0.1731901
  C        2.3595160     0.3194210    -0.4060430
  C       -2.3595260     0.3194330    -0.4060330
  C        3.2195680    -0.8924030    -0.0547570
  C       -3.2195490    -0.8924170    -0.0547640
  H        1.3139090     0.4360540     1.4748590
  H       -1.3139070     0.4360710     1.4748610
  H        0.0000080     2.3782020     0.5982830
  H        0.0000040     1.6360460    -1.0223960
  H       -0.0000100    -1.0431540    -0.8674540
  H       -0.0000130    -1.5954000     0.8282360
  H        2.9313650     1.2434240    -0.2483150
  H        2.0993870     0.2926970    -1.4725700
  H       -2.0994060     0.2927390    -1.4725620
  H       -2.9313940     1.2434200    -0.2482770
  H        2.6724260    -1.8222580    -0.2378450
  H        4.1369510    -0.9193470    -0.6503860
  H        3.5046520    -0.8738050     1.0019030
  H       -3.5045960    -0.8738620     1.0019060
  H       -4.1369540    -0.9193510    -0.6503600
  H       -2.6724020    -1.8222580    -0.2379080
units angstrom
no_reorient  #important for SAPT in psi4, default
symmetry c1  #important for SAPT in psi4, default
}

set PROPERTIES_ORIGIN ["COM"]
properties('MP2/aug-cc-pvtz', properties = ['dipole'])
--------------------------------------------------------------------------

    Molecular point group: c1
  Charge       = 0
  Multiplicity = 1
  Basis Set: AUG-CC-PVTZ
    Blend: AUG-CC-PVTZ
  Basis Set: (AUG-CC-PVTZ AUX)
    Blend: AUG-CC-PVTZ-JKFIT

    Orbital Energies [Eh]
    ---------------------

    Doubly Occupied:

       1A    -11.220728     2A    -11.219575     3A    -11.213330
       4A    -11.212659     5A    -11.210834     6A    -11.209818
       7A    -11.209014     8A    -11.208889     9A     -1.134965
      10A     -1.045332    11A     -1.006049    12A     -0.898687
      13A     -0.893415    14A     -0.840615    15A     -0.767268
      16A     -0.744910    17A     -0.652504    18A     -0.615945
      19A     -0.611308    20A     -0.584635    21A     -0.571977
      22A     -0.538213    23A     -0.535683    24A     -0.523831
      25A     -0.506269    26A     -0.504828    27A     -0.482208
      28A     -0.463978    29A     -0.445308    30A     -0.439195
      31A     -0.422421    32A     -0.400048

  @DF-RHF Final Energy:  -312.34483290984417

   => Energetics <=

    Nuclear Repulsion Energy =            389.5621193127817037
    One-Electron Energy =               -1193.1450264935081123
    Two-Electron Energy =                 491.2380742708821799
    Total Energy =                       -312.3448329098441718
  Basis Set: (AUG-CC-PVTZ AUX)
    Blend: AUG-CC-PVTZ-RI
    Molecular point group: c1

    Geometry (in Angstrom), charge = 0, multiplicity = 1:

       Center              X                  Y                   Z               Mass
    ------------   -----------------  -----------------  -----------------  -----------------
         C            1.073252091107     0.361903464583     0.397983951001    12.000000000000
         C           -1.080706908893     0.361915464583     0.397984951001    12.000000000000
         C           -0.003721908893     1.414217464583     0.049550951001    12.000000000000
         C            0.031071091107    -0.761351235417     0.167520051001    12.000000000000
         C            2.355791091107     0.306276464583    -0.411713048999    12.000000000000
         C           -2.363250908893     0.306288464583    -0.411703048999    12.000000000000
         C            3.215843091107    -0.905547535417    -0.060427048999    12.000000000000
         C           -3.223273908893    -0.905561535417    -0.060434048999    12.000000000000
         H            1.310184091107     0.422909464583     1.469188951001     1.007825032230
         H           -1.317631908893     0.422926464583     1.469190951001     1.007825032230
         H           -0.003716908893     2.365057464583     0.592612951001     1.007825032230
         H           -0.003720908893     1.622901464583    -1.028066048999     1.007825032230
         H           -0.003734908893    -1.056298535417    -0.873124048999     1.007825032230
         H           -0.003737908893    -1.608544535417     0.822565951001     1.007825032230
         H            2.927640091107     1.230279464583    -0.253985048999     1.007825032230
         H            2.095662091107     0.279552464583    -1.478240048999     1.007825032230
         H           -2.103130908893     0.279594464583    -1.478232048999     1.007825032230
         H           -2.935118908893     1.230275464583    -0.253947048999     1.007825032230
         H            2.668701091107    -1.835402535417    -0.243515048999     1.007825032230
         H            4.133226091107    -0.932491535417    -0.656056048999     1.007825032230
         H            3.500927091107    -0.886949535417     0.996232951001     1.007825032230
         H           -3.508320908893    -0.887006535417     0.996235951001     1.007825032230
         H           -4.140678908893    -0.932495535417    -0.656030048999     1.007825032230
         H           -2.676126908893    -1.835402535417    -0.243578048999     1.007825032230

  Basis Set: AUG-CC-PVTZ
    Blend: AUG-CC-PVTZ
  Basis Set: (AUG-CC-PVTZ AUX)
    Blend: AUG-CC-PVTZ-JKFIT
	 Reference Energy          =    -312.3448329098441718 [Eh]
	 Singles Energy            =      -0.0000000000000000 [Eh]
	 Same-Spin Energy          =      -0.3389903024461308 [Eh]
	 Opposite-Spin Energy      =      -1.2317492057016750 [Eh]
	 Correlation Energy        =      -1.5707395081478057 [Eh]
	 Total Energy              =    -313.9155724179919957 [Eh]

	 ================> DF-SCS-MP2 Energies <==================
	-----------------------------------------------------------
	 SCS Same-Spin Scale       =       0.3333333333333333 [-]
	 SCS Opposite-Spin Scale   =       1.2000000000000000 [-]
	 SCS Same-Spin Energy      =      -0.1129967674820436 [Eh]
	 SCS Opposite-Spin Energy  =      -1.4780990468420099 [Eh]
	 SCS Correlation Energy    =      -1.5910958143240534 [Eh]
	 SCS Total Energy          =    -313.9359287241682068 [Eh]
	-----------------------------------------------------------

  Dipole Moment: [D]
     X:    -0.0219      Y:     0.0742      Z:     0.0931     Total:     0.1211

*** Psi4 exiting successfully. Buy a developer a beer!
