                               Psi4 1.4a3.dev225

  ==> Input File <==

--------------------------------------------------------------------------
#psi4
#
memory 32 gb

molecule  {
0 1
  C        1.0375561     0.4112044     0.4110724
  C       -1.0769820     0.3750600     0.4036550
  C        0.0000030     1.4273620     0.0552210
  C       -0.0000090    -0.7130420     0.1804050
  C        2.3595160     0.3194210    -0.4060430
  C       -2.3595260     0.3194330    -0.4060330
  C        3.2195680    -0.8924030    -0.0547570
  C       -3.2195490    -0.8924170    -0.0547640
  H        1.3139090     0.4360540     1.4748590
  H       -1.3139070     0.4360710     1.4748610
  H        0.0000080     2.3782020     0.5982830
  H        0.0000040     1.6360460    -1.0223960
  H       -0.0000100    -1.0431540    -0.8674540
  H       -0.0000130    -1.5954000     0.8282360
  H        2.9313650     1.2434240    -0.2483150
  H        2.0993870     0.2926970    -1.4725700
  H       -2.0994060     0.2927390    -1.4725620
  H       -2.9313940     1.2434200    -0.2482770
  H        2.6724260    -1.8222580    -0.2378450
  H        4.1369510    -0.9193470    -0.6503860
  H        3.5046520    -0.8738050     1.0019030
  H       -3.5045960    -0.8738620     1.0019060
  H       -4.1369540    -0.9193510    -0.6503600
  H       -2.6724020    -1.8222580    -0.2379080
units angstrom
no_reorient  #important for SAPT in psi4, default
symmetry c1  #important for SAPT in psi4, default
}

set PROPERTIES_ORIGIN ["COM"]
properties('MP2/aug-cc-pvtz', properties = ['dipole'])
--------------------------------------------------------------------------

    Molecular point group: c1
  Charge       = 0
  Multiplicity = 1
  Basis Set: AUG-CC-PVTZ
    Blend: AUG-CC-PVTZ
  Basis Set: (AUG-CC-PVTZ AUX)
    Blend: AUG-CC-PVTZ-JKFIT

    Orbital Energies [Eh]
    ---------------------

    Doubly Occupied:

       1A    -11.218973     2A    -11.218472     3A    -11.214171
       4A    -11.213107     5A    -11.210151     6A    -11.209393
       7A    -11.209152     8A    -11.209073     9A     -1.146234
      10A     -1.042811    11A     -1.007483    12A     -0.899029
      13A     -0.893828    14A     -0.839561    15A     -0.768613
      16A     -0.744442    17A     -0.654847    18A     -0.615129
      19A     -0.610547    20A     -0.584907    21A     -0.572623
      22A     -0.537228    23A     -0.531689    24A     -0.525052
      25A     -0.506428    26A     -0.505459    27A     -0.481942
      28A     -0.462370    29A     -0.447328    30A     -0.439007
      31A     -0.427913    32A     -0.400624

  @DF-RHF Final Energy:  -312.34390835585560

   => Energetics <=

    Nuclear Repulsion Energy =            390.3027605820177541
    One-Electron Energy =               -1194.5981663070513150
    Two-Electron Energy =                 491.9514973691779574
    Total Energy =                       -312.3439083558556035
  Basis Set: (AUG-CC-PVTZ AUX)
    Blend: AUG-CC-PVTZ-RI
    Molecular point group: c1

    Geometry (in Angstrom), charge = 0, multiplicity = 1:

       Center              X                  Y                   Z               Mass
    ------------   -----------------  -----------------  -----------------  -----------------
         C            1.041775085931     0.390426850809     0.403836248116    12.000000000000
         C           -1.072763014069     0.354282450809     0.396418848116    12.000000000000
         C            0.004221985931     1.406584450809     0.047984848116    12.000000000000
         C            0.004209985931    -0.733819549191     0.173168848116    12.000000000000
         C            2.363734985931     0.298643450809    -0.413279151884    12.000000000000
         C           -2.355307014069     0.298655450809    -0.413269151884    12.000000000000
         C            3.223786985931    -0.913180549191    -0.061993151884    12.000000000000
         C           -3.215330014069    -0.913194549191    -0.062000151884    12.000000000000
         H            1.318127985931     0.415276450809     1.467622848116     1.007825032230
         H           -1.309688014069     0.415293450809     1.467624848116     1.007825032230
         H            0.004226985931     2.357424450809     0.591046848116     1.007825032230
         H            0.004222985931     1.615268450809    -1.029632151884     1.007825032230
         H            0.004208985931    -1.063931549191    -0.874690151884     1.007825032230
         H            0.004205985931    -1.616177549191     0.820999848116     1.007825032230
         H            2.935583985931     1.222646450809    -0.255551151884     1.007825032230
         H            2.103605985931     0.271919450809    -1.479806151884     1.007825032230
         H           -2.095187014069     0.271961450809    -1.479798151884     1.007825032230
         H           -2.927175014069     1.222642450809    -0.255513151884     1.007825032230
         H            2.676644985931    -1.843035549191    -0.245081151884     1.007825032230
         H            4.141169985931    -0.940124549191    -0.657622151884     1.007825032230
         H            3.508870985931    -0.894582549191     0.994666848116     1.007825032230
         H           -3.500377014069    -0.894639549191     0.994669848116     1.007825032230
         H           -4.132735014069    -0.940128549191    -0.657596151884     1.007825032230
         H           -2.668183014069    -1.843035549191    -0.245144151884     1.007825032230

  Basis Set: AUG-CC-PVTZ
    Blend: AUG-CC-PVTZ
  Basis Set: (AUG-CC-PVTZ AUX)
    Blend: AUG-CC-PVTZ-JKFIT
	 Reference Energy          =    -312.3439083558556035 [Eh]
	 Singles Energy            =      -0.0000000000000000 [Eh]
	 Same-Spin Energy          =      -0.3391973578905959 [Eh]
	 Opposite-Spin Energy      =      -1.2315215041304124 [Eh]
	 Correlation Energy        =      -1.5707188620210082 [Eh]
	 Total Energy              =    -313.9146272178766139 [Eh]

	 ================> DF-SCS-MP2 Energies <==================
	-----------------------------------------------------------
	 SCS Same-Spin Scale       =       0.3333333333333333 [-]
	 SCS Opposite-Spin Scale   =       1.2000000000000000 [-]
	 SCS Same-Spin Energy      =      -0.1130657859635320 [Eh]
	 SCS Opposite-Spin Energy  =      -1.4778258049564947 [Eh]
	 SCS Correlation Energy    =      -1.5908915909200267 [Eh]
	 SCS Total Energy          =    -313.9347999467756267 [Eh]
	-----------------------------------------------------------

  Dipole Moment: [D]
     X:    -0.0328      Y:     0.0772      Z:     0.1038     Total:     0.1335

*** Psi4 exiting successfully. Buy a developer a beer!
