                               Psi4 1.4a3.dev225

  ==> Input File <==

--------------------------------------------------------------------------
#psi4
#
memory 32 gb

molecule  {
0 1
  C        1.0769770     0.3750480     0.4036540
  C       -1.0769820     0.3750600     0.4036550
  C        0.0000030     1.4273620     0.0552210
  C        0.0696011    -0.7833714     0.1659753
  C        2.3595160     0.3194210    -0.4060430
  C       -2.3595260     0.3194330    -0.4060330
  C        3.2195680    -0.8924030    -0.0547570
  C       -3.2195490    -0.8924170    -0.0547640
  H        1.3139090     0.4360540     1.4748590
  H       -1.3139070     0.4360710     1.4748610
  H        0.0000080     2.3782020     0.5982830
  H        0.0000040     1.6360460    -1.0223960
  H       -0.0000100    -1.0431540    -0.8674540
  H       -0.0000130    -1.5954000     0.8282360
  H        2.9313650     1.2434240    -0.2483150
  H        2.0993870     0.2926970    -1.4725700
  H       -2.0994060     0.2927390    -1.4725620
  H       -2.9313940     1.2434200    -0.2482770
  H        2.6724260    -1.8222580    -0.2378450
  H        4.1369510    -0.9193470    -0.6503860
  H        3.5046520    -0.8738050     1.0019030
  H       -3.5045960    -0.8738620     1.0019060
  H       -4.1369540    -0.9193510    -0.6503600
  H       -2.6724020    -1.8222580    -0.2379080
units angstrom
no_reorient  #important for SAPT in psi4, default
symmetry c1  #important for SAPT in psi4, default
}

set PROPERTIES_ORIGIN ["COM"]
properties('MP2/aug-cc-pvtz', properties = ['dipole'])
--------------------------------------------------------------------------

    Molecular point group: c1
  Charge       = 0
  Multiplicity = 1
  Basis Set: AUG-CC-PVTZ
    Blend: AUG-CC-PVTZ
  Basis Set: (AUG-CC-PVTZ AUX)
    Blend: AUG-CC-PVTZ-JKFIT

    Orbital Energies [Eh]
    ---------------------

    Doubly Occupied:

       1A    -11.223009     2A    -11.221075     3A    -11.213391
       4A    -11.212001     5A    -11.210934     6A    -11.208884
       7A    -11.208844     8A    -11.208607     9A     -1.130080
      10A     -1.044839    11A     -1.004757    12A     -0.900098
      13A     -0.893301    14A     -0.840304    15A     -0.765797
      16A     -0.745946    17A     -0.653590    18A     -0.615193
      19A     -0.609977    20A     -0.584705    21A     -0.571821
      22A     -0.544738    23A     -0.535640    24A     -0.522951
      25A     -0.506327    26A     -0.503268    27A     -0.482146
      28A     -0.463772    29A     -0.447875    30A     -0.440373
      31A     -0.421807    32A     -0.390079

  @DF-RHF Final Energy:  -312.33898301789981

   => Energetics <=

    Nuclear Repulsion Energy =            389.0170755662308011
    One-Electron Energy =               -1192.0598561761910332
    Two-Electron Energy =                 490.7037975920604254
    Total Energy =                       -312.3389830178998068
  Basis Set: (AUG-CC-PVTZ AUX)
    Blend: AUG-CC-PVTZ-RI
    Molecular point group: c1

    Geometry (in Angstrom), charge = 0, multiplicity = 1:

       Center              X                  Y                   Z               Mass
    ------------   -----------------  -----------------  -----------------  -----------------
         C            1.069527137234     0.365666904007     0.398756102129    12.000000000000
         C           -1.084431862766     0.365678904007     0.398757102129    12.000000000000
         C           -0.007446862766     1.417980904007     0.050323102129    12.000000000000
         C            0.062151237234    -0.792752495993     0.161077402129    12.000000000000
         C            2.352066137234     0.310039904007    -0.410940897871    12.000000000000
         C           -2.366975862766     0.310051904007    -0.410930897871    12.000000000000
         C            3.212118137234    -0.901784095993    -0.059654897871    12.000000000000
         C           -3.226998862766    -0.901798095993    -0.059661897871    12.000000000000
         H            1.306459137234     0.426672904007     1.469961102129     1.007825032230
         H           -1.321356862766     0.426689904007     1.469963102129     1.007825032230
         H           -0.007441862766     2.368820904007     0.593385102129     1.007825032230
         H           -0.007445862766     1.626664904007    -1.027293897871     1.007825032230
         H           -0.007459862766    -1.052535095993    -0.872351897871     1.007825032230
         H           -0.007462862766    -1.604781095993     0.823338102129     1.007825032230
         H            2.923915137234     1.234042904007    -0.253212897871     1.007825032230
         H            2.091937137234     0.283315904007    -1.477467897871     1.007825032230
         H           -2.106855862766     0.283357904007    -1.477459897871     1.007825032230
         H           -2.938843862766     1.234038904007    -0.253174897871     1.007825032230
         H            2.664976137234    -1.831639095993    -0.242742897871     1.007825032230
         H            4.129501137234    -0.928728095993    -0.655283897871     1.007825032230
         H            3.497202137234    -0.883186095993     0.997005102129     1.007825032230
         H           -3.512045862766    -0.883243095993     0.997008102129     1.007825032230
         H           -4.144403862766    -0.928732095993    -0.655257897871     1.007825032230
         H           -2.679851862766    -1.831639095993    -0.242805897871     1.007825032230

  Basis Set: AUG-CC-PVTZ
    Blend: AUG-CC-PVTZ
  Basis Set: (AUG-CC-PVTZ AUX)
    Blend: AUG-CC-PVTZ-JKFIT
	 Reference Energy          =    -312.3389830178998068 [Eh]
	 Singles Energy            =      -0.0000000000000000 [Eh]
	 Same-Spin Energy          =      -0.3390965721378744 [Eh]
	 Opposite-Spin Energy      =      -1.2323334660109670 [Eh]
	 Correlation Energy        =      -1.5714300381488413 [Eh]
	 Total Energy              =    -313.9104130560486396 [Eh]

	 ================> DF-SCS-MP2 Energies <==================
	-----------------------------------------------------------
	 SCS Same-Spin Scale       =       0.3333333333333333 [-]
	 SCS Opposite-Spin Scale   =       1.2000000000000000 [-]
	 SCS Same-Spin Energy      =      -0.1130321907126248 [Eh]
	 SCS Opposite-Spin Energy  =      -1.4788001592131603 [Eh]
	 SCS Correlation Energy    =      -1.5918323499257852 [Eh]
	 SCS Total Energy          =    -313.9308153678255735 [Eh]
	-----------------------------------------------------------

  Dipole Moment: [D]
     X:    -0.0488      Y:     0.0856      Z:     0.1028     Total:     0.1424

*** Psi4 exiting successfully. Buy a developer a beer!
