                               Psi4 1.4a3.dev225

  ==> Input File <==

--------------------------------------------------------------------------
#psi4
#
memory 32 gb

molecule  {
0 1
  C        1.0769770     0.3750480     0.4036540
  C       -1.0769820     0.3750600     0.4036550
  C       -0.0015619     1.4106095     0.0039658
  C       -0.0000090    -0.7130420     0.1804050
  C        2.3595160     0.3194210    -0.4060430
  C       -2.3595260     0.3194330    -0.4060330
  C        3.2195680    -0.8924030    -0.0547570
  C       -3.2195490    -0.8924170    -0.0547640
  H        1.3139090     0.4360540     1.4748590
  H       -1.3139070     0.4360710     1.4748610
  H        0.0000080     2.3782020     0.5982830
  H        0.0000040     1.6360460    -1.0223960
  H       -0.0000100    -1.0431540    -0.8674540
  H       -0.0000130    -1.5954000     0.8282360
  H        2.9313650     1.2434240    -0.2483150
  H        2.0993870     0.2926970    -1.4725700
  H       -2.0994060     0.2927390    -1.4725620
  H       -2.9313940     1.2434200    -0.2482770
  H        2.6724260    -1.8222580    -0.2378450
  H        4.1369510    -0.9193470    -0.6503860
  H        3.5046520    -0.8738050     1.0019030
  H       -3.5045960    -0.8738620     1.0019060
  H       -4.1369540    -0.9193510    -0.6503600
  H       -2.6724020    -1.8222580    -0.2379080
units angstrom
no_reorient  #important for SAPT in psi4, default
symmetry c1  #important for SAPT in psi4, default
}

set PROPERTIES_ORIGIN ["COM"]
properties('MP2/aug-cc-pvtz', properties = ['dipole'])
--------------------------------------------------------------------------

    Molecular point group: c1
  Charge       = 0
  Multiplicity = 1
  Basis Set: AUG-CC-PVTZ
    Blend: AUG-CC-PVTZ
  Basis Set: (AUG-CC-PVTZ AUX)
    Blend: AUG-CC-PVTZ-JKFIT

    Orbital Energies [Eh]
    ---------------------

    Doubly Occupied:

       1A    -11.218353     2A    -11.218280     3A    -11.213117
       4A    -11.213093     5A    -11.211534     6A    -11.210703
       7A    -11.208983     8A    -11.208963     9A     -1.141531
      10A     -1.046026    11A     -1.007283    12A     -0.899229
      13A     -0.891990    14A     -0.840642    15A     -0.768643
      16A     -0.748180    17A     -0.647193    18A     -0.616929
      19A     -0.613797    20A     -0.583909    21A     -0.571928
      22A     -0.538392    23A     -0.535199    24A     -0.524517
      25A     -0.507608    26A     -0.507097    27A     -0.481628
      28A     -0.464932    29A     -0.447158    30A     -0.439584
      31A     -0.414771    32A     -0.407030

  @DF-RHF Final Energy:  -312.34340180908850

   => Energetics <=

    Nuclear Repulsion Energy =            390.3121648719964014
    One-Electron Energy =               -1194.6146902003777086
    Two-Electron Energy =                 491.9591235192928025
    Total Energy =                       -312.3434018090885047
  Basis Set: (AUG-CC-PVTZ AUX)
    Blend: AUG-CC-PVTZ-RI
    Molecular point group: c1

    Geometry (in Angstrom), charge = 0, multiplicity = 1:

       Center              X                  Y                   Z               Mass
    ------------   -----------------  -----------------  -----------------  -----------------
         C            1.077144514916     0.359932931653     0.402697285716    12.000000000000
         C           -1.076814485084     0.359944931653     0.402698285716    12.000000000000
         C           -0.001394385084     1.395494431653     0.003009085716    12.000000000000
         C            0.000158514916    -0.728157068347     0.179448285716    12.000000000000
         C            2.359683514916     0.304305931653    -0.406999714284    12.000000000000
         C           -2.359358485084     0.304317931653    -0.406989714284    12.000000000000
         C            3.219735514916    -0.907518068347    -0.055713714284    12.000000000000
         C           -3.219381485084    -0.907532068347    -0.055720714284    12.000000000000
         H            1.314076514916     0.420938931653     1.473902285716     1.007825032230
         H           -1.313739485084     0.420955931653     1.473904285716     1.007825032230
         H            0.000175514916     2.363086931653     0.597326285716     1.007825032230
         H            0.000171514916     1.620930931653    -1.023352714284     1.007825032230
         H            0.000157514916    -1.058269068347    -0.868410714284     1.007825032230
         H            0.000154514916    -1.610515068347     0.827279285716     1.007825032230
         H            2.931532514916     1.228308931653    -0.249271714284     1.007825032230
         H            2.099554514916     0.277581931653    -1.473526714284     1.007825032230
         H           -2.099238485084     0.277623931653    -1.473518714284     1.007825032230
         H           -2.931226485084     1.228304931653    -0.249233714284     1.007825032230
         H            2.672593514916    -1.837373068347    -0.238801714284     1.007825032230
         H            4.137118514916    -0.934462068347    -0.651342714284     1.007825032230
         H            3.504819514916    -0.888920068347     1.000946285716     1.007825032230
         H           -3.504428485084    -0.888977068347     1.000949285716     1.007825032230
         H           -4.136786485084    -0.934466068347    -0.651316714284     1.007825032230
         H           -2.672234485084    -1.837373068347    -0.238864714284     1.007825032230

  Basis Set: AUG-CC-PVTZ
    Blend: AUG-CC-PVTZ
  Basis Set: (AUG-CC-PVTZ AUX)
    Blend: AUG-CC-PVTZ-JKFIT
	 Reference Energy          =    -312.3434018090885047 [Eh]
	 Singles Energy            =      -0.0000000000000000 [Eh]
	 Same-Spin Energy          =      -0.3390822735104677 [Eh]
	 Opposite-Spin Energy      =      -1.2316164822535955 [Eh]
	 Correlation Energy        =      -1.5706987557640633 [Eh]
	 Total Energy              =    -313.9141005648525606 [Eh]

	 ================> DF-SCS-MP2 Energies <==================
	-----------------------------------------------------------
	 SCS Same-Spin Scale       =       0.3333333333333333 [-]
	 SCS Opposite-Spin Scale   =       1.2000000000000000 [-]
	 SCS Same-Spin Energy      =      -0.1130274245034892 [Eh]
	 SCS Opposite-Spin Energy  =      -1.4779397787043147 [Eh]
	 SCS Correlation Energy    =      -1.5909672032078039 [Eh]
	 SCS Total Energy          =    -313.9343690122963153 [Eh]
	-----------------------------------------------------------

  Dipole Moment: [D]
     X:     0.0011      Y:     0.0529      Z:     0.0476     Total:     0.0712

*** Psi4 exiting successfully. Buy a developer a beer!
