                               Psi4 1.4a3.dev225

  ==> Input File <==

--------------------------------------------------------------------------
#psi4
#
memory 32 gb

molecule  {
0 1
  C        1.0769770     0.3750480     0.4036540
  C       -1.0769820     0.3750600     0.4036550
  C        0.0000030     1.4273620     0.0552210
  C       -0.0000090    -0.7130420     0.1804050
  C        2.3595160     0.3194210    -0.4060430
  C       -2.3595260     0.3194330    -0.4060330
  C        3.2195680    -0.8924030    -0.0547570
  C       -3.2195490    -0.8924170    -0.0547640
  H        1.3139090     0.4360540     1.4748590
  H       -1.3139070     0.4360710     1.4748610
  H        0.0000080     2.3782020     0.5982830
  H        0.0000040     1.6360460    -1.0223960
  H       -0.0000100    -1.0431540    -0.8674540
  H       -0.0000130    -1.5954000     0.8282360
  H        2.9313650     1.2434240    -0.2483150
  H        2.0993870     0.2926970    -1.4725700
  H       -2.0994060     0.2927390    -1.4725620
  H       -2.9313940     1.2434200    -0.2482770
  H        2.6724260    -1.8222580    -0.2378450
  H        4.1369510    -0.9193470    -0.6503860
  H        3.5046520    -0.8738050     1.0019030
  H       -3.5045960    -0.8738620     1.0019060
  H       -4.1461211    -0.8849371    -0.6365716
  H       -2.6724020    -1.8222580    -0.2379080
units angstrom
no_reorient  #important for SAPT in psi4, default
symmetry c1  #important for SAPT in psi4, default
}

set PROPERTIES_ORIGIN ["COM"]
properties('MP2/aug-cc-pvtz', properties = ['dipole'])
--------------------------------------------------------------------------

    Molecular point group: c1
  Charge       = 0
  Multiplicity = 1
  Basis Set: AUG-CC-PVTZ
    Blend: AUG-CC-PVTZ
  Basis Set: (AUG-CC-PVTZ AUX)
    Blend: AUG-CC-PVTZ-JKFIT

    Orbital Energies [Eh]
    ---------------------

    Doubly Occupied:

       1A    -11.218340     2A    -11.218174     3A    -11.213357
       4A    -11.213163     5A    -11.211402     6A    -11.210874
       7A    -11.209216     8A    -11.209154     9A     -1.140578
      10A     -1.046014    11A     -1.007511    12A     -0.899093
      13A     -0.891972    14A     -0.840782    15A     -0.768946
      16A     -0.743710    17A     -0.651665    18A     -0.617144
      19A     -0.613106    20A     -0.584812    21A     -0.571613
      22A     -0.537141    23A     -0.530682    24A     -0.523640
      25A     -0.508901    26A     -0.505822    27A     -0.482475
      28A     -0.464076    29A     -0.442053    30A     -0.440941
      31A     -0.421527    32A     -0.406587

  @DF-RHF Final Energy:  -312.34657159588704

   => Energetics <=

    Nuclear Repulsion Energy =            390.1291534217243111
    One-Electron Energy =               -1194.2625085477407083
    Two-Electron Energy =                 491.7867835301292985
    Total Energy =                       -312.3465715958870419
  Basis Set: (AUG-CC-PVTZ AUX)
    Blend: AUG-CC-PVTZ-RI
    Molecular point group: c1

    Geometry (in Angstrom), charge = 0, multiplicity = 1:

       Center              X                  Y                   Z               Mass
    ------------   -----------------  -----------------  -----------------  -----------------
         C            1.077059431749     0.357830699605     0.397087853655    12.000000000000
         C           -1.076899568251     0.357842699605     0.397088853655    12.000000000000
         C            0.000085431749     1.410144699605     0.048654853655    12.000000000000
         C            0.000073431749    -0.730259300395     0.173838853655    12.000000000000
         C            2.359598431749     0.302203699605    -0.412609146345    12.000000000000
         C           -2.359443568251     0.302215699605    -0.412599146345    12.000000000000
         C            3.219650431749    -0.909620300395    -0.061323146345    12.000000000000
         C           -3.219466568251    -0.909634300395    -0.061330146345    12.000000000000
         H            1.313991431749     0.418836699605     1.468292853655     1.007825032230
         H           -1.313824568251     0.418853699605     1.468294853655     1.007825032230
         H            0.000090431749     2.360984699605     0.591716853655     1.007825032230
         H            0.000086431749     1.618828699605    -1.028962146345     1.007825032230
         H            0.000072431749    -1.060371300395    -0.874020146345     1.007825032230
         H            0.000069431749    -1.612617300395     0.821669853655     1.007825032230
         H            2.931447431749     1.226206699605    -0.254881146345     1.007825032230
         H            2.099469431749     0.275479699605    -1.479136146345     1.007825032230
         H           -2.099323568251     0.275521699605    -1.479128146345     1.007825032230
         H           -2.931311568251     1.226202699605    -0.254843146345     1.007825032230
         H            2.672508431749    -1.839475300395    -0.244411146345     1.007825032230
         H            4.137033431749    -0.936564300395    -0.656952146345     1.007825032230
         H            3.504734431749    -0.891022300395     0.995336853655     1.007825032230
         H           -3.504513568251    -0.891079300395     0.995339853655     1.007825032230
         H           -4.146038668251    -0.902154400395    -0.643137746345     1.007825032230
         H           -2.672319568251    -1.839475300395    -0.244474146345     1.007825032230

  Basis Set: AUG-CC-PVTZ
    Blend: AUG-CC-PVTZ
  Basis Set: (AUG-CC-PVTZ AUX)
    Blend: AUG-CC-PVTZ-JKFIT
	 Reference Energy          =    -312.3465715958870419 [Eh]
	 Singles Energy            =      -0.0000000000000000 [Eh]
	 Same-Spin Energy          =      -0.3390844445677449 [Eh]
	 Opposite-Spin Energy      =      -1.2315435223653688 [Eh]
	 Correlation Energy        =      -1.5706279669331138 [Eh]
	 Total Energy              =    -313.9171995628201444 [Eh]

	 ================> DF-SCS-MP2 Energies <==================
	-----------------------------------------------------------
	 SCS Same-Spin Scale       =       0.3333333333333333 [-]
	 SCS Opposite-Spin Scale   =       1.2000000000000000 [-]
	 SCS Same-Spin Energy      =      -0.1130281481892483 [Eh]
	 SCS Opposite-Spin Energy  =      -1.4778522268384424 [Eh]
	 SCS Correlation Energy    =      -1.5908803750276908 [Eh]
	 SCS Total Energy          =    -313.9374519709147080 [Eh]
	-----------------------------------------------------------

  Dipole Moment: [D]
     X:    -0.0054      Y:     0.0829      Z:     0.0892     Total:     0.1219

*** Psi4 exiting successfully. Buy a developer a beer!
