                               Psi4 1.4a3.dev225

  ==> Input File <==

--------------------------------------------------------------------------
#psi4
#
memory 32 gb

molecule  {
0 1
  C        1.0769770     0.3750480     0.4036540
  C       -1.0769820     0.3750600     0.4036550
  C        0.0000030     1.4273620     0.0552210
  C       -0.0000090    -0.7130420     0.1804050
  C        2.3595160     0.3194210    -0.4060430
  C       -2.3595260     0.3194330    -0.4060330
  C        3.2195680    -0.8924030    -0.0547570
  C       -3.2195490    -0.8924170    -0.0547640
  H        1.3139090     0.4360540     1.4748590
  H       -1.3139070     0.4360710     1.4748610
  H        0.0000080     2.3782020     0.5982830
  H        0.0000040     1.6360460    -1.0223960
  H       -0.0000100    -1.0431540    -0.8674540
  H       -0.0000130    -1.5954000     0.8282360
  H        2.9313650     1.2434240    -0.2483150
  H        2.0993870     0.2926970    -1.4725700
  H       -2.0994060     0.2927390    -1.4725620
  H       -2.9313940     1.2434200    -0.2482770
  H        2.6624262    -1.8392524    -0.2411912
  H        4.1369510    -0.9193470    -0.6503860
  H        3.5046520    -0.8738050     1.0019030
  H       -3.5045960    -0.8738620     1.0019060
  H       -4.1369540    -0.9193510    -0.6503600
  H       -2.6724020    -1.8222580    -0.2379080
units angstrom
no_reorient  #important for SAPT in psi4, default
symmetry c1  #important for SAPT in psi4, default
}

set PROPERTIES_ORIGIN ["COM"]
properties('MP2/aug-cc-pvtz', properties = ['dipole'])
--------------------------------------------------------------------------

    Molecular point group: c1
  Charge       = 0
  Multiplicity = 1
  Basis Set: AUG-CC-PVTZ
    Blend: AUG-CC-PVTZ
  Basis Set: (AUG-CC-PVTZ AUX)
    Blend: AUG-CC-PVTZ-JKFIT

    Orbital Energies [Eh]
    ---------------------

    Doubly Occupied:

       1A    -11.218411     2A    -11.218333     3A    -11.213657
       4A    -11.213371     5A    -11.211641     6A    -11.211365
       7A    -11.211009     8A    -11.209154     9A     -1.140624
      10A     -1.045772    11A     -1.007037    12A     -0.898549
      13A     -0.891972    14A     -0.840376    15A     -0.768853
      16A     -0.743760    17A     -0.651715    18A     -0.616425
      19A     -0.612357    20A     -0.584215    21A     -0.572344
      22A     -0.536979    23A     -0.530670    24A     -0.524889
      25A     -0.506777    26A     -0.504409    27A     -0.481817
      28A     -0.464343    29A     -0.442133    30A     -0.441186
      31A     -0.421564    32A     -0.406920

  @DF-RHF Final Energy:  -312.34622362582996

   => Energetics <=

    Nuclear Repulsion Energy =            390.0445580152866683
    One-Electron Energy =               -1194.0963112873305363
    Two-Electron Energy =                 491.7055296462139609
    Total Energy =                       -312.3462236258299640
  Basis Set: (AUG-CC-PVTZ AUX)
    Blend: AUG-CC-PVTZ-RI
    Molecular point group: c1

    Geometry (in Angstrom), charge = 0, multiplicity = 1:

       Center              X                  Y                   Z               Mass
    ------------   -----------------  -----------------  -----------------  -----------------
         C            1.077066916381     0.358292777455     0.397241866122    12.000000000000
         C           -1.076892083619     0.358304777455     0.397242866122    12.000000000000
         C            0.000092916381     1.410606777455     0.048808866122    12.000000000000
         C            0.000080916381    -0.729797222545     0.173992866122    12.000000000000
         C            2.359605916381     0.302665777455    -0.412455133878    12.000000000000
         C           -2.359436083619     0.302677777455    -0.412445133878    12.000000000000
         C            3.219657916381    -0.909158222545    -0.061169133878    12.000000000000
         C           -3.219459083619    -0.909172222545    -0.061176133878    12.000000000000
         H            1.313998916381     0.419298777455     1.468446866122     1.007825032230
         H           -1.313817083619     0.419315777455     1.468448866122     1.007825032230
         H            0.000097916381     2.361446777455     0.591870866122     1.007825032230
         H            0.000093916381     1.619290777455    -1.028808133878     1.007825032230
         H            0.000079916381    -1.059909222545    -0.873866133878     1.007825032230
         H            0.000076916381    -1.612155222545     0.821823866122     1.007825032230
         H            2.931454916381     1.226668777455    -0.254727133878     1.007825032230
         H            2.099476916381     0.275941777455    -1.478982133878     1.007825032230
         H           -2.099316083619     0.275983777455    -1.478974133878     1.007825032230
         H           -2.931304083619     1.226664777455    -0.254689133878     1.007825032230
         H            2.662516116381    -1.856007622545    -0.247603333878     1.007825032230
         H            4.137040916381    -0.936102222545    -0.656798133878     1.007825032230
         H            3.504741916381    -0.890560222545     0.995490866122     1.007825032230
         H           -3.504506083619    -0.890617222545     0.995493866122     1.007825032230
         H           -4.136864083619    -0.936106222545    -0.656772133878     1.007825032230
         H           -2.672312083619    -1.839013222545    -0.244320133878     1.007825032230

  Basis Set: AUG-CC-PVTZ
    Blend: AUG-CC-PVTZ
  Basis Set: (AUG-CC-PVTZ AUX)
    Blend: AUG-CC-PVTZ-JKFIT
	 Reference Energy          =    -312.3462236258299640 [Eh]
	 Singles Energy            =      -0.0000000000000000 [Eh]
	 Same-Spin Energy          =      -0.3390765438119508 [Eh]
	 Opposite-Spin Energy      =      -1.2316450057154622 [Eh]
	 Correlation Energy        =      -1.5707215495274129 [Eh]
	 Total Energy              =    -313.9169451753573981 [Eh]

	 ================> DF-SCS-MP2 Energies <==================
	-----------------------------------------------------------
	 SCS Same-Spin Scale       =       0.3333333333333333 [-]
	 SCS Opposite-Spin Scale   =       1.2000000000000000 [-]
	 SCS Same-Spin Energy      =      -0.1130255146039836 [Eh]
	 SCS Opposite-Spin Energy  =      -1.4779740068585545 [Eh]
	 SCS Correlation Energy    =      -1.5909995214625381 [Eh]
	 SCS Total Energy          =    -313.9372231472925137 [Eh]
	-----------------------------------------------------------

  Dipole Moment: [D]
     X:     0.0035      Y:     0.0866      Z:     0.0844     Total:     0.1210

*** Psi4 exiting successfully. Buy a developer a beer!
