                               Psi4 1.4a3.dev225

  ==> Input File <==

--------------------------------------------------------------------------
#psi4
#
memory 32 gb

molecule  {
0 1
  C        1.0769770     0.3750480     0.4036540
  C       -1.0769820     0.3750600     0.4036550
  C        0.0000030     1.4273620     0.0552210
  C       -0.0000090    -0.7130420     0.1804050
  C        2.3595160     0.3194210    -0.4060430
  C       -2.3595260     0.3194330    -0.4060330
  C        3.3322169    -1.0511267    -0.0087459
  C       -3.2195490    -0.8924170    -0.0547640
  H        1.3139090     0.4360540     1.4748590
  H       -1.3139070     0.4360710     1.4748610
  H        0.0000080     2.3782020     0.5982830
  H        0.0000040     1.6360460    -1.0223960
  H       -0.0000100    -1.0431540    -0.8674540
  H       -0.0000130    -1.5954000     0.8282360
  H        2.9313650     1.2434240    -0.2483150
  H        2.0993870     0.2926970    -1.4725700
  H       -2.0994060     0.2927390    -1.4725620
  H       -2.9313940     1.2434200    -0.2482770
  H        2.6724260    -1.8222580    -0.2378450
  H        4.1369510    -0.9193470    -0.6503860
  H        3.5046520    -0.8738050     1.0019030
  H       -3.5045960    -0.8738620     1.0019060
  H       -4.1369540    -0.9193510    -0.6503600
  H       -2.6724020    -1.8222580    -0.2379080
units angstrom
no_reorient  #important for SAPT in psi4, default
symmetry c1  #important for SAPT in psi4, default
}

set PROPERTIES_ORIGIN ["COM"]
properties('MP2/aug-cc-pvtz', properties = ['dipole'])
--------------------------------------------------------------------------

    Molecular point group: c1
  Charge       = 0
  Multiplicity = 1
  Basis Set: AUG-CC-PVTZ
    Blend: AUG-CC-PVTZ
  Basis Set: (AUG-CC-PVTZ AUX)
    Blend: AUG-CC-PVTZ-JKFIT

    Orbital Energies [Eh]
    ---------------------

    Doubly Occupied:

       1A    -11.220711     2A    -11.218592     3A    -11.218395
       4A    -11.213395     5A    -11.211229     6A    -11.211120
       7A    -11.209205     8A    -11.205871     9A     -1.139216
      10A     -1.037413    11A     -0.993145    12A     -0.905788
      13A     -0.891952    14A     -0.847308    15A     -0.767532
      16A     -0.742992    17A     -0.651371    18A     -0.616212
      19A     -0.612226    20A     -0.589712    21A     -0.578408
      22A     -0.542711    23A     -0.531368    24A     -0.529183
      25A     -0.518363    26A     -0.495846    27A     -0.479644
      28A     -0.466723    29A     -0.442872    30A     -0.430532
      31A     -0.416432    32A     -0.394368

  @DF-RHF Final Energy:  -312.31985196159167

   => Energetics <=

    Nuclear Repulsion Energy =            387.5139881348482618
    One-Electron Energy =               -1189.0080126031555210
    Two-Electron Energy =                 489.1741725067156494
    Total Energy =                       -312.3198519615916666
  Basis Set: (AUG-CC-PVTZ AUX)
    Blend: AUG-CC-PVTZ-RI
    Molecular point group: c1

    Geometry (in Angstrom), charge = 0, multiplicity = 1:

       Center              X                  Y                   Z               Mass
    ------------   -----------------  -----------------  -----------------  -----------------
         C            1.064920986274     0.375127146621     0.392287533095    12.000000000000
         C           -1.089038013726     0.375139146621     0.392288533095    12.000000000000
         C           -0.012053013726     1.427441146621     0.043854533095    12.000000000000
         C           -0.012065013726    -0.712962853379     0.169038533095    12.000000000000
         C            2.347459986274     0.319500146621    -0.417409466905    12.000000000000
         C           -2.371582013726     0.319512146621    -0.417399466905    12.000000000000
         C            3.320160886274    -1.051047553379    -0.020112366905    12.000000000000
         C           -3.231605013726    -0.892337853379    -0.066130466905    12.000000000000
         H            1.301852986274     0.436133146621     1.463492533095     1.007825032230
         H           -1.325963013726     0.436150146621     1.463494533095     1.007825032230
         H           -0.012048013726     2.378281146621     0.586916533095     1.007825032230
         H           -0.012052013726     1.636125146621    -1.033762466905     1.007825032230
         H           -0.012066013726    -1.043074853379    -0.878820466905     1.007825032230
         H           -0.012069013726    -1.595320853379     0.816869533095     1.007825032230
         H            2.919308986274     1.243503146621    -0.259681466905     1.007825032230
         H            2.087330986274     0.292776146621    -1.483936466905     1.007825032230
         H           -2.111462013726     0.292818146621    -1.483928466905     1.007825032230
         H           -2.943450013726     1.243499146621    -0.259643466905     1.007825032230
         H            2.660369986274    -1.822178853379    -0.249211466905     1.007825032230
         H            4.124894986274    -0.919267853379    -0.661752466905     1.007825032230
         H            3.492595986274    -0.873725853379     0.990536533095     1.007825032230
         H           -3.516652013726    -0.873782853379     0.990539533095     1.007825032230
         H           -4.149010013726    -0.919271853379    -0.661726466905     1.007825032230
         H           -2.684458013726    -1.822178853379    -0.249274466905     1.007825032230

  Basis Set: AUG-CC-PVTZ
    Blend: AUG-CC-PVTZ
  Basis Set: (AUG-CC-PVTZ AUX)
    Blend: AUG-CC-PVTZ-JKFIT
	 Reference Energy          =    -312.3198519615916666 [Eh]
	 Singles Energy            =      -0.0000000000000000 [Eh]
	 Same-Spin Energy          =      -0.3391719924944051 [Eh]
	 Opposite-Spin Energy      =      -1.2330160729451882 [Eh]
	 Correlation Energy        =      -1.5721880654395934 [Eh]
	 Total Energy              =    -313.8920400270312712 [Eh]

	 ================> DF-SCS-MP2 Energies <==================
	-----------------------------------------------------------
	 SCS Same-Spin Scale       =       0.3333333333333333 [-]
	 SCS Opposite-Spin Scale   =       1.2000000000000000 [-]
	 SCS Same-Spin Energy      =      -0.1130573308314684 [Eh]
	 SCS Opposite-Spin Energy  =      -1.4796192875342258 [Eh]
	 SCS Correlation Energy    =      -1.5926766183656942 [Eh]
	 SCS Total Energy          =    -313.9125285799573817 [Eh]
	-----------------------------------------------------------

  Dipole Moment: [D]
     X:    -0.0666      Y:     0.1380      Z:     0.0813     Total:     0.1735

*** Psi4 exiting successfully. Buy a developer a beer!
