                               Psi4 1.4a3.dev225

  ==> Input File <==

--------------------------------------------------------------------------
#psi4
#
memory 32 gb

molecule  {
0 1
  C        0.9992515     0.3726258     0.2651199
  C       -1.0769820     0.3750600     0.4036550
  C        0.0000030     1.4273620     0.0552210
  C       -0.0000090    -0.7130420     0.1804050
  C        2.3595160     0.3194210    -0.4060430
  C       -2.3595260     0.3194330    -0.4060330
  C        3.2195680    -0.8924030    -0.0547570
  C       -3.2195490    -0.8924170    -0.0547640
  H        1.3139090     0.4360540     1.4748590
  H       -1.3139070     0.4360710     1.4748610
  H        0.0000080     2.3782020     0.5982830
  H        0.0000040     1.6360460    -1.0223960
  H       -0.0000100    -1.0431540    -0.8674540
  H       -0.0000130    -1.5954000     0.8282360
  H        2.9313650     1.2434240    -0.2483150
  H        2.0993870     0.2926970    -1.4725700
  H       -2.0994060     0.2927390    -1.4725620
  H       -2.9313940     1.2434200    -0.2482770
  H        2.6724260    -1.8222580    -0.2378450
  H        4.1369510    -0.9193470    -0.6503860
  H        3.5046520    -0.8738050     1.0019030
  H       -3.5045960    -0.8738620     1.0019060
  H       -4.1369540    -0.9193510    -0.6503600
  H       -2.6724020    -1.8222580    -0.2379080
units angstrom
no_reorient  #important for SAPT in psi4, default
symmetry c1  #important for SAPT in psi4, default
}

set PROPERTIES_ORIGIN ["COM"]
properties('MP2/aug-cc-pvtz', properties = ['dipole'])
--------------------------------------------------------------------------

    Molecular point group: c1
  Charge       = 0
  Multiplicity = 1
  Basis Set: AUG-CC-PVTZ
    Blend: AUG-CC-PVTZ
  Basis Set: (AUG-CC-PVTZ AUX)
    Blend: AUG-CC-PVTZ-JKFIT

    Orbital Energies [Eh]
    ---------------------

    Doubly Occupied:

       1A    -11.226988     2A    -11.221160     3A    -11.215480
       4A    -11.214374     5A    -11.211327     6A    -11.209941
       7A    -11.209922     8A    -11.209342     9A     -1.160273
      10A     -1.046617    11A     -1.011960    12A     -0.904555
      13A     -0.900378    14A     -0.844905    15A     -0.768644
      16A     -0.728768    17A     -0.661791    18A     -0.621948
      19A     -0.612930    20A     -0.586663    21A     -0.575043
      22A     -0.540358    23A     -0.531926    24A     -0.525505
      25A     -0.511291    26A     -0.502790    27A     -0.485590
      28A     -0.461456    29A     -0.457685    30A     -0.433122
      31A     -0.416609    32A     -0.397908

  @DF-RHF Final Energy:  -312.32005074854953

   => Energetics <=

    Nuclear Repulsion Energy =            391.6803560431063147
    One-Electron Energy =               -1197.1863204246797068
    Two-Electron Energy =                 493.1859136330239153
    Total Energy =                       -312.3200507485495336
  Basis Set: (AUG-CC-PVTZ AUX)
    Blend: AUG-CC-PVTZ-RI
    Molecular point group: c1

    Geometry (in Angstrom), charge = 0, multiplicity = 1:

       Center              X                  Y                   Z               Mass
    ------------   -----------------  -----------------  -----------------  -----------------
         C            1.007569967563     0.355977056803     0.273504054630    12.000000000000
         C           -1.068663532437     0.358411256803     0.412039154630    12.000000000000
         C            0.008321467563     1.410713256803     0.063605154630    12.000000000000
         C            0.008309467563    -0.729690743197     0.188789154630    12.000000000000
         C            2.367834467563     0.302772256803    -0.397658845370    12.000000000000
         C           -2.351207532437     0.302784256803    -0.397648845370    12.000000000000
         C            3.227886467563    -0.909051743197    -0.046372845370    12.000000000000
         C           -3.211230532437    -0.909065743197    -0.046379845370    12.000000000000
         H            1.322227467563     0.419405256803     1.483243154630     1.007825032230
         H           -1.305588532437     0.419422256803     1.483245154630     1.007825032230
         H            0.008326467563     2.361553256803     0.606667154630     1.007825032230
         H            0.008322467563     1.619397256803    -1.014011845370     1.007825032230
         H            0.008308467563    -1.059802743197    -0.859069845370     1.007825032230
         H            0.008305467563    -1.612048743197     0.836620154630     1.007825032230
         H            2.939683467563     1.226775256803    -0.239930845370     1.007825032230
         H            2.107705467563     0.276048256803    -1.464185845370     1.007825032230
         H           -2.091087532437     0.276090256803    -1.464177845370     1.007825032230
         H           -2.923075532437     1.226771256803    -0.239892845370     1.007825032230
         H            2.680744467563    -1.838906743197    -0.229460845370     1.007825032230
         H            4.145269467563    -0.935995743197    -0.642001845370     1.007825032230
         H            3.512970467563    -0.890453743197     1.010287154630     1.007825032230
         H           -3.496277532437    -0.890510743197     1.010290154630     1.007825032230
         H           -4.128635532437    -0.935999743197    -0.641975845370     1.007825032230
         H           -2.664083532437    -1.838906743197    -0.229523845370     1.007825032230

  Basis Set: AUG-CC-PVTZ
    Blend: AUG-CC-PVTZ
  Basis Set: (AUG-CC-PVTZ AUX)
    Blend: AUG-CC-PVTZ-JKFIT
	 Reference Energy          =    -312.3200507485495336 [Eh]
	 Singles Energy            =      -0.0000000000000000 [Eh]
	 Same-Spin Energy          =      -0.3405409131099592 [Eh]
	 Opposite-Spin Energy      =      -1.2334035932587397 [Eh]
	 Correlation Energy        =      -1.5739445063686990 [Eh]
	 Total Energy              =    -313.8939952549182522 [Eh]

	 ================> DF-SCS-MP2 Energies <==================
	-----------------------------------------------------------
	 SCS Same-Spin Scale       =       0.3333333333333333 [-]
	 SCS Opposite-Spin Scale   =       1.2000000000000000 [-]
	 SCS Same-Spin Energy      =      -0.1135136377033197 [Eh]
	 SCS Opposite-Spin Energy  =      -1.4800843119104876 [Eh]
	 SCS Correlation Energy    =      -1.5935979496138073 [Eh]
	 SCS Total Energy          =    -313.9136486981633425 [Eh]
	-----------------------------------------------------------

  Dipole Moment: [D]
     X:    -0.0855      Y:     0.0562      Z:    -0.0120     Total:     0.1030

*** Psi4 exiting successfully. Buy a developer a beer!
