                               Psi4 1.4a3.dev225

  ==> Input File <==

--------------------------------------------------------------------------
#psi4
#
memory 32 gb

molecule  {
0 1
  C        1.0769770     0.3750480     0.4036540
  C       -1.0769820     0.3750600     0.4036550
  C        0.0000030     1.4273620     0.0552210
  C       -0.0000090    -0.7130420     0.1804050
  C        2.3595160     0.3194210    -0.4060430
  C       -2.3595260     0.3194330    -0.4060330
  C        3.2195680    -0.8924030    -0.0547570
  C       -3.2195490    -0.8924170    -0.0547640
  H        1.3139090     0.4360540     1.4748590
  H       -1.3139070     0.4360710     1.4748610
  H        0.0000080     2.3782020     0.5982830
  H        0.0000040     1.6360460    -1.0223960
  H       -0.0000100    -1.0431540    -0.8674540
  H       -0.0000130    -1.5954000     0.8282360
  H        2.8792855     1.1592731    -0.2626796
  H        2.0993870     0.2926970    -1.4725700
  H       -2.0994060     0.2927390    -1.4725620
  H       -2.9313940     1.2434200    -0.2482770
  H        2.6724260    -1.8222580    -0.2378450
  H        4.1369510    -0.9193470    -0.6503860
  H        3.5046520    -0.8738050     1.0019030
  H       -3.5045960    -0.8738620     1.0019060
  H       -4.1369540    -0.9193510    -0.6503600
  H       -2.6724020    -1.8222580    -0.2379080
units angstrom
no_reorient  #important for SAPT in psi4, default
symmetry c1  #important for SAPT in psi4, default
}

set PROPERTIES_ORIGIN ["COM"]
properties('MP2/aug-cc-pvtz', properties = ['dipole'])
--------------------------------------------------------------------------

    Molecular point group: c1
  Charge       = 0
  Multiplicity = 1
  Basis Set: AUG-CC-PVTZ
    Blend: AUG-CC-PVTZ
  Basis Set: (AUG-CC-PVTZ AUX)
    Blend: AUG-CC-PVTZ-JKFIT

    Orbital Energies [Eh]
    ---------------------

    Doubly Occupied:

       1A    -11.217972     2A    -11.217442     3A    -11.213082
       4A    -11.210745     5A    -11.210591     6A    -11.208922
       7A    -11.208203     8A    -11.200409     9A     -1.140502
      10A     -1.048392    11A     -1.009168    12A     -0.899013
      13A     -0.891943    14A     -0.844484    15A     -0.773993
      16A     -0.743450    17A     -0.652075    18A     -0.623599
      19A     -0.613393    20A     -0.586156    21A     -0.571718
      22A     -0.536619    23A     -0.530245    24A     -0.524291
      25A     -0.510091    26A     -0.505946    27A     -0.484094
      28A     -0.463669    29A     -0.443153    30A     -0.441536
      31A     -0.421798    32A     -0.406761

  @DF-RHF Final Energy:  -312.34092269363884

   => Energetics <=

    Nuclear Repulsion Energy =            390.6218834452023998
    One-Electron Energy =               -1195.2187048519192558
    Two-Electron Energy =                 492.2558987130779542
    Total Energy =                       -312.3409226936388450
  Basis Set: (AUG-CC-PVTZ AUX)
    Blend: AUG-CC-PVTZ-RI
    Molecular point group: c1

    Geometry (in Angstrom), charge = 0, multiplicity = 1:

       Center              X                  Y                   Z               Mass
    ------------   -----------------  -----------------  -----------------  -----------------
         C            1.077445145136     0.358896406269     0.397340903799    12.000000000000
         C           -1.076513854864     0.358908406269     0.397341903799    12.000000000000
         C            0.000471145136     1.411210406269     0.048907903799    12.000000000000
         C            0.000459145136    -0.729193593731     0.174091903799    12.000000000000
         C            2.359984145136     0.303269406269    -0.412356096201    12.000000000000
         C           -2.359057854864     0.303281406269    -0.412346096201    12.000000000000
         C            3.220036145136    -0.908554593731    -0.061070096201    12.000000000000
         C           -3.219080854864    -0.908568593731    -0.061077096201    12.000000000000
         H            1.314377145136     0.419902406269     1.468545903799     1.007825032230
         H           -1.313438854864     0.419919406269     1.468547903799     1.007825032230
         H            0.000476145136     2.362050406269     0.591969903799     1.007825032230
         H            0.000472145136     1.619894406269    -1.028709096201     1.007825032230
         H            0.000458145136    -1.059305593731    -0.873767096201     1.007825032230
         H            0.000455145136    -1.611551593731     0.821922903799     1.007825032230
         H            2.879753645136     1.143121506269    -0.268992696201     1.007825032230
         H            2.099855145136     0.276545406269    -1.478883096201     1.007825032230
         H           -2.098937854864     0.276587406269    -1.478875096201     1.007825032230
         H           -2.930925854864     1.227268406269    -0.254590096201     1.007825032230
         H            2.672894145136    -1.838409593731    -0.244158096201     1.007825032230
         H            4.137419145136    -0.935498593731    -0.656699096201     1.007825032230
         H            3.505120145136    -0.889956593731     0.995589903799     1.007825032230
         H           -3.504127854864    -0.890013593731     0.995592903799     1.007825032230
         H           -4.136485854864    -0.935502593731    -0.656673096201     1.007825032230
         H           -2.671933854864    -1.838409593731    -0.244221096201     1.007825032230

  Basis Set: AUG-CC-PVTZ
    Blend: AUG-CC-PVTZ
  Basis Set: (AUG-CC-PVTZ AUX)
    Blend: AUG-CC-PVTZ-JKFIT
	 Reference Energy          =    -312.3409226936388450 [Eh]
	 Singles Energy            =      -0.0000000000000000 [Eh]
	 Same-Spin Energy          =      -0.3390966985639445 [Eh]
	 Opposite-Spin Energy      =      -1.2310003635097069 [Eh]
	 Correlation Energy        =      -1.5700970620736514 [Eh]
	 Total Energy              =    -313.9110197557125161 [Eh]

	 ================> DF-SCS-MP2 Energies <==================
	-----------------------------------------------------------
	 SCS Same-Spin Scale       =       0.3333333333333333 [-]
	 SCS Opposite-Spin Scale   =       1.2000000000000000 [-]
	 SCS Same-Spin Energy      =      -0.1130322328546482 [Eh]
	 SCS Opposite-Spin Energy  =      -1.4772004362116482 [Eh]
	 SCS Correlation Energy    =      -1.5902326690662965 [Eh]
	 SCS Total Energy          =    -313.9311553627051694 [Eh]
	-----------------------------------------------------------

  Dipole Moment: [D]
     X:     0.0443      Y:     0.1340      Z:     0.0791     Total:     0.1618

*** Psi4 exiting successfully. Buy a developer a beer!
