                               Psi4 1.4a3.dev225

  ==> Input File <==

--------------------------------------------------------------------------
#psi4
#
memory 32 gb

molecule  {
0 1
  C        1.0769770     0.3750480     0.4036540
  C       -1.0769820     0.3750600     0.4036550
  C        0.0000030     1.4273620     0.0552210
  C       -0.0000090    -0.7130420     0.1804050
  C        2.3595160     0.3194210    -0.4060430
  C       -2.3595260     0.3194330    -0.4060330
  C        3.2195680    -0.8924030    -0.0547570
  C       -3.2195490    -0.8924170    -0.0547640
  H        1.3139090     0.4360540     1.4748590
  H       -1.3139070     0.4360710     1.4748610
  H        0.0000080     2.3782020     0.5982830
  H        0.0000040     1.6360460    -1.0223960
  H       -0.0000100    -1.0431540    -0.8674540
  H       -0.0000130    -1.5954000     0.8282360
  H        2.9313650     1.2434240    -0.2483150
  H        2.0993870     0.2926970    -1.4725700
  H       -2.0994060     0.2927390    -1.4725620
  H       -2.9313940     1.2434200    -0.2482770
  H        2.6724260    -1.8222580    -0.2378450
  H        4.0531041    -0.9168844    -0.5959467
  H        3.5046520    -0.8738050     1.0019030
  H       -3.5045960    -0.8738620     1.0019060
  H       -4.1369540    -0.9193510    -0.6503600
  H       -2.6724020    -1.8222580    -0.2379080
units angstrom
no_reorient  #important for SAPT in psi4, default
symmetry c1  #important for SAPT in psi4, default
}

set PROPERTIES_ORIGIN ["COM"]
properties('MP2/aug-cc-pvtz', properties = ['dipole'])
--------------------------------------------------------------------------

    Molecular point group: c1
  Charge       = 0
  Multiplicity = 1
  Basis Set: AUG-CC-PVTZ
    Blend: AUG-CC-PVTZ
  Basis Set: (AUG-CC-PVTZ AUX)
    Blend: AUG-CC-PVTZ-JKFIT

    Orbital Energies [Eh]
    ---------------------

    Doubly Occupied:

       1A    -11.217889     2A    -11.217620     3A    -11.213045
       4A    -11.212497     5A    -11.210861     6A    -11.210342
       7A    -11.208893     8A    -11.196462     9A     -1.140099
      10A     -1.047097    11A     -1.009844    12A     -0.903732
      13A     -0.891462    14A     -0.844619    15A     -0.769141
      16A     -0.743205    17A     -0.651472    18A     -0.616659
      19A     -0.615265    20A     -0.584077    21A     -0.580518
      22A     -0.537424    23A     -0.530270    24A     -0.528947
      25A     -0.508171    26A     -0.506020    27A     -0.481800
      28A     -0.464466    29A     -0.442053    30A     -0.440621
      31A     -0.421051    32A     -0.407000

  @DF-RHF Final Energy:  -312.34063548281881

   => Energetics <=

    Nuclear Repulsion Energy =            390.5882975880535355
    One-Electron Energy =               -1195.1526203911423636
    Two-Electron Energy =                 492.2236873202699599
    Total Energy =                       -312.3406354828188114
  Basis Set: (AUG-CC-PVTZ AUX)
    Blend: AUG-CC-PVTZ-RI
    Molecular point group: c1

    Geometry (in Angstrom), charge = 0, multiplicity = 1:

       Center              X                  Y                   Z               Mass
    ------------   -----------------  -----------------  -----------------  -----------------
         C            1.077730682917     0.358117890351     0.396722467511    12.000000000000
         C           -1.076228317083     0.358129890351     0.396723467511    12.000000000000
         C            0.000756682917     1.410431890351     0.048289467511    12.000000000000
         C            0.000744682917    -0.729972109649     0.173473467511    12.000000000000
         C            2.360269682917     0.302490890351    -0.412974532489    12.000000000000
         C           -2.358772317083     0.302502890351    -0.412964532489    12.000000000000
         C            3.220321682917    -0.909333109649    -0.061688532489    12.000000000000
         C           -3.218795317083    -0.909347109649    -0.061695532489    12.000000000000
         H            1.314662682917     0.419123890351     1.467927467511     1.007825032230
         H           -1.313153317083     0.419140890351     1.467929467511     1.007825032230
         H            0.000761682917     2.361271890351     0.591351467511     1.007825032230
         H            0.000757682917     1.619115890351    -1.029327532489     1.007825032230
         H            0.000743682917    -1.060084109649    -0.874385532489     1.007825032230
         H            0.000740682917    -1.612330109649     0.821304467511     1.007825032230
         H            2.932118682917     1.226493890351    -0.255246532489     1.007825032230
         H            2.100140682917     0.275766890351    -1.479501532489     1.007825032230
         H           -2.098652317083     0.275808890351    -1.479493532489     1.007825032230
         H           -2.930640317083     1.226489890351    -0.255208532489     1.007825032230
         H            2.673179682917    -1.839188109649    -0.244776532489     1.007825032230
         H            4.053857782917    -0.933814509649    -0.602878232489     1.007825032230
         H            3.505405682917    -0.890735109649     0.994971467511     1.007825032230
         H           -3.503842317083    -0.890792109649     0.994974467511     1.007825032230
         H           -4.136200317083    -0.936281109649    -0.657291532489     1.007825032230
         H           -2.671648317083    -1.839188109649    -0.244839532489     1.007825032230

  Basis Set: AUG-CC-PVTZ
    Blend: AUG-CC-PVTZ
  Basis Set: (AUG-CC-PVTZ AUX)
    Blend: AUG-CC-PVTZ-JKFIT
	 Reference Energy          =    -312.3406354828188114 [Eh]
	 Singles Energy            =      -0.0000000000000000 [Eh]
	 Same-Spin Energy          =      -0.3391507315174278 [Eh]
	 Opposite-Spin Energy      =      -1.2310806601683280 [Eh]
	 Correlation Energy        =      -1.5702313916857558 [Eh]
	 Total Energy              =    -313.9108668745045634 [Eh]

	 ================> DF-SCS-MP2 Energies <==================
	-----------------------------------------------------------
	 SCS Same-Spin Scale       =       0.3333333333333333 [-]
	 SCS Opposite-Spin Scale   =       1.2000000000000000 [-]
	 SCS Same-Spin Energy      =      -0.1130502438391426 [Eh]
	 SCS Opposite-Spin Energy  =      -1.4772967922019935 [Eh]
	 SCS Correlation Energy    =      -1.5903470360411360 [Eh]
	 SCS Total Energy          =    -313.9309825188599348 [Eh]
	-----------------------------------------------------------

  Dipole Moment: [D]
     X:     0.0727      Y:     0.0547      Z:     0.0584     Total:     0.1080

*** Psi4 exiting successfully. Buy a developer a beer!
