                               Psi4 1.4a3.dev225

  ==> Input File <==

--------------------------------------------------------------------------
#psi4
#
memory 32 gb

molecule  {
0 1
  C        1.0769770     0.3750480     0.4036540
  C       -1.0769820     0.3750600     0.4036550
  C        0.0000030     1.4273620     0.0552210
  C       -0.0000090    -0.7130420     0.1804050
  C        2.3595160     0.3194210    -0.4060430
  C       -2.3595260     0.3194330    -0.4060330
  C        3.2195680    -0.8924030    -0.0547570
  C       -3.2195490    -0.8924170    -0.0547640
  H        1.3139090     0.4360540     1.4748590
  H       -1.3139070     0.4360710     1.4748610
  H        0.0000080     2.3782020     0.5982830
  H        0.0000040     1.6360460    -1.0223960
  H       -0.0000100    -1.0431540    -0.8674540
  H       -0.0000130    -1.5954000     0.8282360
  H        2.9313650     1.2434240    -0.2483150
  H        2.0993870     0.2926970    -1.4725700
  H       -2.0994060     0.2927390    -1.4725620
  H       -2.9313940     1.2434200    -0.2482770
  H        2.6724260    -1.8222580    -0.2378450
  H        4.1369510    -0.9193470    -0.6503860
  H        3.5046520    -0.8738050     1.0019030
  H       -3.5045960    -0.8738620     1.0019060
  H       -4.1610590    -0.8161786    -0.6068860
  H       -2.6724020    -1.8222580    -0.2379080
units angstrom
no_reorient  #important for SAPT in psi4, default
symmetry c1  #important for SAPT in psi4, default
}

set PROPERTIES_ORIGIN ["COM"]
properties('MP2/aug-cc-pvtz', properties = ['dipole'])
--------------------------------------------------------------------------

    Molecular point group: c1
  Charge       = 0
  Multiplicity = 1
  Basis Set: AUG-CC-PVTZ
    Blend: AUG-CC-PVTZ
  Basis Set: (AUG-CC-PVTZ AUX)
    Blend: AUG-CC-PVTZ-JKFIT

    Orbital Energies [Eh]
    ---------------------

    Doubly Occupied:

       1A    -11.218299     2A    -11.217802     3A    -11.213312
       4A    -11.212778     5A    -11.211415     6A    -11.210649
       7A    -11.209330     8A    -11.209131     9A     -1.140479
      10A     -1.046149    11A     -1.007761    12A     -0.898991
      13A     -0.891920    14A     -0.840347    15A     -0.768715
      16A     -0.743630    17A     -0.651499    18A     -0.618432
      19A     -0.613603    20A     -0.585349    21A     -0.570105
      22A     -0.537481    23A     -0.530666    24A     -0.521430
      25A     -0.511561    26A     -0.505770    27A     -0.482700
      28A     -0.463642    29A     -0.441972    30A     -0.440394
      31A     -0.421348    32A     -0.405895

  @DF-RHF Final Energy:  -312.34543442233070

   => Energetics <=

    Nuclear Repulsion Energy =            390.1587571057992250
    One-Electron Energy =               -1194.3232695058688932
    Two-Electron Energy =                 491.8190779777390276
    Total Energy =                       -312.3454344223306975
  Basis Set: (AUG-CC-PVTZ AUX)
    Blend: AUG-CC-PVTZ-RI
    Molecular point group: c1

    Geometry (in Angstrom), charge = 0, multiplicity = 1:

       Center              X                  Y                   Z               Mass
    ------------   -----------------  -----------------  -----------------  -----------------
         C            1.077193699420     0.357212671390     0.396821027904    12.000000000000
         C           -1.076765300580     0.357224671390     0.396822027904    12.000000000000
         C            0.000219699420     1.409526671390     0.048388027904    12.000000000000
         C            0.000207699420    -0.730877328610     0.173572027904    12.000000000000
         C            2.359732699420     0.301585671390    -0.412875972096    12.000000000000
         C           -2.359309300580     0.301597671390    -0.412865972096    12.000000000000
         C            3.219784699420    -0.910238328610    -0.061589972096    12.000000000000
         C           -3.219332300580    -0.910252328610    -0.061596972096    12.000000000000
         H            1.314125699420     0.418218671390     1.468026027904     1.007825032230
         H           -1.313690300580     0.418235671390     1.468028027904     1.007825032230
         H            0.000224699420     2.360366671390     0.591450027904     1.007825032230
         H            0.000220699420     1.618210671390    -1.029228972096     1.007825032230
         H            0.000206699420    -1.060989328610    -0.874286972096     1.007825032230
         H            0.000203699420    -1.613235328610     0.821403027904     1.007825032230
         H            2.931581699420     1.225588671390    -0.255147972096     1.007825032230
         H            2.099603699420     0.274861671390    -1.479402972096     1.007825032230
         H           -2.099189300580     0.274903671390    -1.479394972096     1.007825032230
         H           -2.931177300580     1.225584671390    -0.255109972096     1.007825032230
         H            2.672642699420    -1.840093328610    -0.244677972096     1.007825032230
         H            4.137167699420    -0.937182328610    -0.657218972096     1.007825032230
         H            3.504868699420    -0.891640328610     0.995070027904     1.007825032230
         H           -3.504379300580    -0.891697328610     0.995073027904     1.007825032230
         H           -4.160842300580    -0.834013928610    -0.613718972096     1.007825032230
         H           -2.672185300580    -1.840093328610    -0.244740972096     1.007825032230

  Basis Set: AUG-CC-PVTZ
    Blend: AUG-CC-PVTZ
  Basis Set: (AUG-CC-PVTZ AUX)
    Blend: AUG-CC-PVTZ-JKFIT
	 Reference Energy          =    -312.3454344223306975 [Eh]
	 Singles Energy            =      -0.0000000000000000 [Eh]
	 Same-Spin Energy          =      -0.3391329245648415 [Eh]
	 Opposite-Spin Energy      =      -1.2316435644106991 [Eh]
	 Correlation Energy        =      -1.5707764889755405 [Eh]
	 Total Energy              =    -313.9162109113062229 [Eh]

	 ================> DF-SCS-MP2 Energies <==================
	-----------------------------------------------------------
	 SCS Same-Spin Scale       =       0.3333333333333333 [-]
	 SCS Opposite-Spin Scale   =       1.2000000000000000 [-]
	 SCS Same-Spin Energy      =      -0.1130443081882805 [Eh]
	 SCS Opposite-Spin Energy  =      -1.4779722772928390 [Eh]
	 SCS Correlation Energy    =      -1.5910165854811193 [Eh]
	 SCS Total Energy          =    -313.9364510078117974 [Eh]
	-----------------------------------------------------------

  Dipole Moment: [D]
     X:    -0.0143      Y:     0.0992      Z:     0.1018     Total:     0.1429

*** Psi4 exiting successfully. Buy a developer a beer!
