                               Psi4 1.4a3.dev225

  ==> Input File <==

--------------------------------------------------------------------------
#psi4
#
memory 32 gb

molecule  {
0 1
  C        1.0235428     0.3734994     0.3121917
  C       -1.0769820     0.3750600     0.4036550
  C        0.0000030     1.4273620     0.0552210
  C       -0.0000090    -0.7130420     0.1804050
  C        2.3595160     0.3194210    -0.4060430
  C       -2.3595260     0.3194330    -0.4060330
  C        3.2195680    -0.8924030    -0.0547570
  C       -3.2195490    -0.8924170    -0.0547640
  H        1.3139090     0.4360540     1.4748590
  H       -1.3139070     0.4360710     1.4748610
  H        0.0000080     2.3782020     0.5982830
  H        0.0000040     1.6360460    -1.0223960
  H       -0.0000100    -1.0431540    -0.8674540
  H       -0.0000130    -1.5954000     0.8282360
  H        2.9313650     1.2434240    -0.2483150
  H        2.0993870     0.2926970    -1.4725700
  H       -2.0994060     0.2927390    -1.4725620
  H       -2.9313940     1.2434200    -0.2482770
  H        2.6724260    -1.8222580    -0.2378450
  H        4.1369510    -0.9193470    -0.6503860
  H        3.5046520    -0.8738050     1.0019030
  H       -3.5045960    -0.8738620     1.0019060
  H       -4.1369540    -0.9193510    -0.6503600
  H       -2.6724020    -1.8222580    -0.2379080
units angstrom
no_reorient  #important for SAPT in psi4, default
symmetry c1  #important for SAPT in psi4, default
}

set PROPERTIES_ORIGIN ["COM"]
properties('MP2/aug-cc-pvtz', properties = ['dipole'])
--------------------------------------------------------------------------

    Molecular point group: c1
  Charge       = 0
  Multiplicity = 1
  Basis Set: AUG-CC-PVTZ
    Blend: AUG-CC-PVTZ
  Basis Set: (AUG-CC-PVTZ AUX)
    Blend: AUG-CC-PVTZ-JKFIT

    Orbital Energies [Eh]
    ---------------------

    Doubly Occupied:

       1A    -11.223429     2A    -11.220065     3A    -11.214410
       4A    -11.213941     5A    -11.210566     6A    -11.209990
       7A    -11.209607     8A    -11.209480     9A     -1.153531
      10A     -1.046202    11A     -1.010442    12A     -0.900256
      13A     -0.899507    14A     -0.843463    15A     -0.767762
      16A     -0.733540    17A     -0.658637    18A     -0.619353
      19A     -0.613444    20A     -0.585688    21A     -0.573961
      22A     -0.537608    23A     -0.531516    24A     -0.525437
      25A     -0.509873    26A     -0.503873    27A     -0.484284
      28A     -0.459480    29A     -0.453433    30A     -0.430639
      31A     -0.421266    32A     -0.407576

  @DF-RHF Final Energy:  -312.33405417285871

   => Energetics <=

    Nuclear Repulsion Energy =            391.1913214643048491
    One-Electron Energy =               -1196.2862342637320126
    Two-Electron Energy =                 492.7608586265685062
    Total Energy =                       -312.3340541728587141
  Basis Set: (AUG-CC-PVTZ AUX)
    Blend: AUG-CC-PVTZ-RI
    Molecular point group: c1

    Geometry (in Angstrom), charge = 0, multiplicity = 1:

       Center              X                  Y                   Z               Mass
    ------------   -----------------  -----------------  -----------------  -----------------
         C            1.029261534420     0.356757161318     0.315538079024    12.000000000000
         C           -1.071263265580     0.358317761318     0.407001379024    12.000000000000
         C            0.005721734420     1.410619761318     0.058567379024    12.000000000000
         C            0.005709734420    -0.729784238682     0.183751379024    12.000000000000
         C            2.365234734420     0.302678761318    -0.402696620976    12.000000000000
         C           -2.353807265580     0.302690761318    -0.402686620976    12.000000000000
         C            3.225286734420    -0.909145238682    -0.051410620976    12.000000000000
         C           -3.213830265580    -0.909159238682    -0.051417620976    12.000000000000
         H            1.319627734420     0.419311761318     1.478205379024     1.007825032230
         H           -1.308188265580     0.419328761318     1.478207379024     1.007825032230
         H            0.005726734420     2.361459761318     0.601629379024     1.007825032230
         H            0.005722734420     1.619303761318    -1.019049620976     1.007825032230
         H            0.005708734420    -1.059896238682    -0.864107620976     1.007825032230
         H            0.005705734420    -1.612142238682     0.831582379024     1.007825032230
         H            2.937083734420     1.226681761318    -0.244968620976     1.007825032230
         H            2.105105734420     0.275954761318    -1.469223620976     1.007825032230
         H           -2.093687265580     0.275996761318    -1.469215620976     1.007825032230
         H           -2.925675265580     1.226677761318    -0.244930620976     1.007825032230
         H            2.678144734420    -1.839000238682    -0.234498620976     1.007825032230
         H            4.142669734420    -0.936089238682    -0.647039620976     1.007825032230
         H            3.510370734420    -0.890547238682     1.005249379024     1.007825032230
         H           -3.498877265580    -0.890604238682     1.005252379024     1.007825032230
         H           -4.131235265580    -0.936093238682    -0.647013620976     1.007825032230
         H           -2.666683265580    -1.839000238682    -0.234561620976     1.007825032230

  Basis Set: AUG-CC-PVTZ
    Blend: AUG-CC-PVTZ
  Basis Set: (AUG-CC-PVTZ AUX)
    Blend: AUG-CC-PVTZ-JKFIT
	 Reference Energy          =    -312.3340541728587141 [Eh]
	 Singles Energy            =      -0.0000000000000000 [Eh]
	 Same-Spin Energy          =      -0.3399317077388683 [Eh]
	 Opposite-Spin Energy      =      -1.2324581307437115 [Eh]
	 Correlation Energy        =      -1.5723898384825796 [Eh]
	 Total Energy              =    -313.9064440113413070 [Eh]

	 ================> DF-SCS-MP2 Energies <==================
	-----------------------------------------------------------
	 SCS Same-Spin Scale       =       0.3333333333333333 [-]
	 SCS Opposite-Spin Scale   =       1.2000000000000000 [-]
	 SCS Same-Spin Energy      =      -0.1133105692462894 [Eh]
	 SCS Opposite-Spin Energy  =      -1.4789497568924537 [Eh]
	 SCS Correlation Energy    =      -1.5922603261387431 [Eh]
	 SCS Total Energy          =    -313.9263144989974421 [Eh]
	-----------------------------------------------------------

  Dipole Moment: [D]
     X:    -0.0508      Y:     0.0631      Z:     0.0300     Total:     0.0864

*** Psi4 exiting successfully. Buy a developer a beer!
