                               Psi4 1.4a3.dev225

  ==> Input File <==

--------------------------------------------------------------------------
#psi4
#
memory 32 gb

molecule  {
0 1
  C        1.0769770     0.3750480     0.4036540
  C       -1.0769820     0.3750600     0.4036550
  C       -0.0348387     1.4614059     0.0439487
  C       -0.0000090    -0.7130420     0.1804050
  C        2.3595160     0.3194210    -0.4060430
  C       -2.3595260     0.3194330    -0.4060330
  C        3.2195680    -0.8924030    -0.0547570
  C       -3.2195490    -0.8924170    -0.0547640
  H        1.3139090     0.4360540     1.4748590
  H       -1.3139070     0.4360710     1.4748610
  H        0.0000080     2.3782020     0.5982830
  H        0.0000040     1.6360460    -1.0223960
  H       -0.0000100    -1.0431540    -0.8674540
  H       -0.0000130    -1.5954000     0.8282360
  H        2.9313650     1.2434240    -0.2483150
  H        2.0993870     0.2926970    -1.4725700
  H       -2.0994060     0.2927390    -1.4725620
  H       -2.9313940     1.2434200    -0.2482770
  H        2.6724260    -1.8222580    -0.2378450
  H        4.1369510    -0.9193470    -0.6503860
  H        3.5046520    -0.8738050     1.0019030
  H       -3.5045960    -0.8738620     1.0019060
  H       -4.1369540    -0.9193510    -0.6503600
  H       -2.6724020    -1.8222580    -0.2379080
units angstrom
no_reorient  #important for SAPT in psi4, default
symmetry c1  #important for SAPT in psi4, default
}

set PROPERTIES_ORIGIN ["COM"]
properties('MP2/aug-cc-pvtz', properties = ['dipole'])
--------------------------------------------------------------------------

    Molecular point group: c1
  Charge       = 0
  Multiplicity = 1
  Basis Set: AUG-CC-PVTZ
    Blend: AUG-CC-PVTZ
  Basis Set: (AUG-CC-PVTZ AUX)
    Blend: AUG-CC-PVTZ-JKFIT

    Orbital Energies [Eh]
    ---------------------

    Doubly Occupied:

       1A    -11.220699     2A    -11.219537     3A    -11.213246
       4A    -11.212679     5A    -11.211212     6A    -11.209456
       7A    -11.209122     8A    -11.208670     9A     -1.134973
      10A     -1.045375    11A     -1.005954    12A     -0.898653
      13A     -0.893096    14A     -0.840908    15A     -0.767661
      16A     -0.744748    17A     -0.652095    18A     -0.616574
      19A     -0.611325    20A     -0.585200    21A     -0.569957
      22A     -0.536913    23A     -0.535640    24A     -0.524426
      25A     -0.507471    26A     -0.505236    27A     -0.482568
      28A     -0.463932    29A     -0.445118    30A     -0.439330
      31A     -0.422962    32A     -0.399223

  @DF-RHF Final Energy:  -312.34484786851363

   => Energetics <=

    Nuclear Repulsion Energy =            389.4819957440486746
    One-Electron Energy =               -1192.9857673807885021
    Two-Electron Energy =                 491.1589237682262592
    Total Energy =                       -312.3448478685136251
  Basis Set: (AUG-CC-PVTZ AUX)
    Blend: AUG-CC-PVTZ-RI
    Molecular point group: c1

    Geometry (in Angstrom), charge = 0, multiplicity = 1:

       Center              X                  Y                   Z               Mass
    ------------   -----------------  -----------------  -----------------  -----------------
         C            1.080705905202     0.354496537361     0.398418187014    12.000000000000
         C           -1.073253094798     0.354508537361     0.398419187014    12.000000000000
         C           -0.031109794798     1.440854437361     0.038712887014    12.000000000000
         C            0.003719905202    -0.733593462639     0.175169187014    12.000000000000
         C            2.363244905202     0.298869537361    -0.411278812986    12.000000000000
         C           -2.355797094798     0.298881537361    -0.411268812986    12.000000000000
         C            3.223296905202    -0.912954462639    -0.059992812986    12.000000000000
         C           -3.215820094798    -0.912968462639    -0.059999812986    12.000000000000
         H            1.317637905202     0.415502537361     1.469623187014     1.007825032230
         H           -1.310178094798     0.415519537361     1.469625187014     1.007825032230
         H            0.003736905202     2.357650537361     0.593047187014     1.007825032230
         H            0.003732905202     1.615494537361    -1.027631812986     1.007825032230
         H            0.003718905202    -1.063705462639    -0.872689812986     1.007825032230
         H            0.003715905202    -1.615951462639     0.823000187014     1.007825032230
         H            2.935093905202     1.222872537361    -0.253550812986     1.007825032230
         H            2.103115905202     0.272145537361    -1.477805812986     1.007825032230
         H           -2.095677094798     0.272187537361    -1.477797812986     1.007825032230
         H           -2.927665094798     1.222868537361    -0.253512812986     1.007825032230
         H            2.676154905202    -1.842809462639    -0.243080812986     1.007825032230
         H            4.140679905202    -0.939898462639    -0.655621812986     1.007825032230
         H            3.508380905202    -0.894356462639     0.996667187014     1.007825032230
         H           -3.500867094798    -0.894413462639     0.996670187014     1.007825032230
         H           -4.133225094798    -0.939902462639    -0.655595812986     1.007825032230
         H           -2.668673094798    -1.842809462639    -0.243143812986     1.007825032230

  Basis Set: AUG-CC-PVTZ
    Blend: AUG-CC-PVTZ
  Basis Set: (AUG-CC-PVTZ AUX)
    Blend: AUG-CC-PVTZ-JKFIT
	 Reference Energy          =    -312.3448478685136251 [Eh]
	 Singles Energy            =      -0.0000000000000000 [Eh]
	 Same-Spin Energy          =      -0.3389607151038740 [Eh]
	 Opposite-Spin Energy      =      -1.2317297285018733 [Eh]
	 Correlation Energy        =      -1.5706904436057474 [Eh]
	 Total Energy              =    -313.9155383121193950 [Eh]

	 ================> DF-SCS-MP2 Energies <==================
	-----------------------------------------------------------
	 SCS Same-Spin Scale       =       0.3333333333333333 [-]
	 SCS Opposite-Spin Scale   =       1.2000000000000000 [-]
	 SCS Same-Spin Energy      =      -0.1129869050346247 [Eh]
	 SCS Opposite-Spin Energy  =      -1.4780756742022481 [Eh]
	 SCS Correlation Energy    =      -1.5910625792368727 [Eh]
	 SCS Total Energy          =    -313.9359104477504729 [Eh]
	-----------------------------------------------------------

  Dipole Moment: [D]
     X:     0.0265      Y:     0.0834      Z:     0.0924     Total:     0.1273

*** Psi4 exiting successfully. Buy a developer a beer!
