                               Psi4 1.4a3.dev225

  ==> Input File <==

--------------------------------------------------------------------------
#psi4
#
memory 32 gb

molecule  {
0 1
  C        1.0769770     0.3750480     0.4036540
  C       -1.0769820     0.3750600     0.4036550
  C       -0.0044371     1.3925953    -0.0468025
  C       -0.0000090    -0.7130420     0.1804050
  C        2.3595160     0.3194210    -0.4060430
  C       -2.3595260     0.3194330    -0.4060330
  C        3.2195680    -0.8924030    -0.0547570
  C       -3.2195490    -0.8924170    -0.0547640
  H        1.3139090     0.4360540     1.4748590
  H       -1.3139070     0.4360710     1.4748610
  H        0.0000080     2.3782020     0.5982830
  H        0.0000040     1.6360460    -1.0223960
  H       -0.0000100    -1.0431540    -0.8674540
  H       -0.0000130    -1.5954000     0.8282360
  H        2.9313650     1.2434240    -0.2483150
  H        2.0993870     0.2926970    -1.4725700
  H       -2.0994060     0.2927390    -1.4725620
  H       -2.9313940     1.2434200    -0.2482770
  H        2.6724260    -1.8222580    -0.2378450
  H        4.1369510    -0.9193470    -0.6503860
  H        3.5046520    -0.8738050     1.0019030
  H       -3.5045960    -0.8738620     1.0019060
  H       -4.1369540    -0.9193510    -0.6503600
  H       -2.6724020    -1.8222580    -0.2379080
units angstrom
no_reorient  #important for SAPT in psi4, default
symmetry c1  #important for SAPT in psi4, default
}

set PROPERTIES_ORIGIN ["COM"]
properties('MP2/aug-cc-pvtz', properties = ['dipole'])
--------------------------------------------------------------------------

    Molecular point group: c1
  Charge       = 0
  Multiplicity = 1
  Basis Set: AUG-CC-PVTZ
    Blend: AUG-CC-PVTZ
  Basis Set: (AUG-CC-PVTZ AUX)
    Blend: AUG-CC-PVTZ-JKFIT

    Orbital Energies [Eh]
    ---------------------

    Doubly Occupied:

       1A    -11.218901     2A    -11.218737     3A    -11.212978
       4A    -11.212912     5A    -11.211921     6A    -11.211187
       7A    -11.208879     8A    -11.208825     9A     -1.142620
      10A     -1.046215    11A     -1.007272    12A     -0.899431
      13A     -0.893069    14A     -0.840627    15A     -0.768380
      16A     -0.753496    17A     -0.645037    18A     -0.617181
      19A     -0.614953    20A     -0.582864    21A     -0.571716
      22A     -0.539923    23A     -0.539388    24A     -0.524336
      25A     -0.507981    26A     -0.507643    27A     -0.480980
      28A     -0.465775    29A     -0.451907    30A     -0.438012
      31A     -0.407468    32A     -0.406080

  @DF-RHF Final Energy:  -312.33309587878625

   => Energetics <=

    Nuclear Repulsion Energy =            390.5033753787641899
    One-Electron Energy =               -1194.9595574668476274
    Two-Electron Energy =                 492.1230862092971847
    Total Energy =                       -312.3330958787862528
  Basis Set: (AUG-CC-PVTZ AUX)
    Blend: AUG-CC-PVTZ-RI
    Molecular point group: c1

    Geometry (in Angstrom), charge = 0, multiplicity = 1:

       Center              X                  Y                   Z               Mass
    ------------   -----------------  -----------------  -----------------  -----------------
         C            1.077452228078     0.361860869342     0.408130672655    12.000000000000
         C           -1.076506771922     0.361872869342     0.408131672655    12.000000000000
         C           -0.003961871922     1.379408169342    -0.042325827345    12.000000000000
         C            0.000466228078    -0.726229130658     0.184881672655    12.000000000000
         C            2.359991228078     0.306233869342    -0.401566327345    12.000000000000
         C           -2.359050771922     0.306245869342    -0.401556327345    12.000000000000
         C            3.220043228078    -0.905590130658    -0.050280327345    12.000000000000
         C           -3.219073771922    -0.905604130658    -0.050287327345    12.000000000000
         H            1.314384228078     0.422866869342     1.479335672655     1.007825032230
         H           -1.313431771922     0.422883869342     1.479337672655     1.007825032230
         H            0.000483228078     2.365014869342     0.602759672655     1.007825032230
         H            0.000479228078     1.622858869342    -1.017919327345     1.007825032230
         H            0.000465228078    -1.056341130658    -0.862977327345     1.007825032230
         H            0.000462228078    -1.608587130658     0.832712672655     1.007825032230
         H            2.931840228078     1.230236869342    -0.243838327345     1.007825032230
         H            2.099862228078     0.279509869342    -1.468093327345     1.007825032230
         H           -2.098930771922     0.279551869342    -1.468085327345     1.007825032230
         H           -2.930918771922     1.230232869342    -0.243800327345     1.007825032230
         H            2.672901228078    -1.835445130658    -0.233368327345     1.007825032230
         H            4.137426228078    -0.932534130658    -0.645909327345     1.007825032230
         H            3.505127228078    -0.886992130658     1.006379672655     1.007825032230
         H           -3.504120771922    -0.887049130658     1.006382672655     1.007825032230
         H           -4.136478771922    -0.932538130658    -0.645883327345     1.007825032230
         H           -2.671926771922    -1.835445130658    -0.233431327345     1.007825032230

  Basis Set: AUG-CC-PVTZ
    Blend: AUG-CC-PVTZ
  Basis Set: (AUG-CC-PVTZ AUX)
    Blend: AUG-CC-PVTZ-JKFIT
	 Reference Energy          =    -312.3330958787862528 [Eh]
	 Singles Energy            =      -0.0000000000000000 [Eh]
	 Same-Spin Energy          =      -0.3391869106106453 [Eh]
	 Opposite-Spin Energy      =      -1.2320320563976350 [Eh]
	 Correlation Energy        =      -1.5712189670082803 [Eh]
	 Total Energy              =    -313.9043148457945449 [Eh]

	 ================> DF-SCS-MP2 Energies <==================
	-----------------------------------------------------------
	 SCS Same-Spin Scale       =       0.3333333333333333 [-]
	 SCS Opposite-Spin Scale   =       1.2000000000000000 [-]
	 SCS Same-Spin Energy      =      -0.1130623035368818 [Eh]
	 SCS Opposite-Spin Energy  =      -1.4784384676771620 [Eh]
	 SCS Correlation Energy    =      -1.5915007712140439 [Eh]
	 SCS Total Energy          =    -313.9245966500002964 [Eh]
	-----------------------------------------------------------

  Dipole Moment: [D]
     X:     0.0030      Y:     0.0175      Z:     0.0187     Total:     0.0258

*** Psi4 exiting successfully. Buy a developer a beer!
