                               Psi4 1.4a3.dev225

  ==> Input File <==

--------------------------------------------------------------------------
#psi4
#
memory 32 gb

molecule  {
0 1
  C        1.0769770     0.3750480     0.4036540
  C       -1.0769820     0.3750600     0.4036550
  C        0.0000030     1.4273620     0.0552210
  C       -0.0000090    -0.7130420     0.1804050
  C        2.3595160     0.3194210    -0.4060430
  C       -2.3595260     0.3194330    -0.4060330
  C        3.2195680    -0.8924030    -0.0547570
  C       -3.2195490    -0.8924170    -0.0547640
  H        1.3139090     0.4360540     1.4748590
  H       -1.3139070     0.4360710     1.4748610
  H        0.0000080     2.3782020     0.5982830
  H        0.0000040     1.6360460    -1.0223960
  H       -0.0000100    -1.0431540    -0.8674540
  H       -0.0000130    -1.5954000     0.8282360
  H        2.9313650     1.2434240    -0.2483150
  H        2.0993870     0.2926970    -1.4725700
  H       -2.0994060     0.2927390    -1.4725620
  H       -2.9313940     1.2434200    -0.2482770
  H        2.7724236    -1.6523145    -0.2043832
  H        4.1369510    -0.9193470    -0.6503860
  H        3.5046520    -0.8738050     1.0019030
  H       -3.5045960    -0.8738620     1.0019060
  H       -4.1369540    -0.9193510    -0.6503600
  H       -2.6724020    -1.8222580    -0.2379080
units angstrom
no_reorient  #important for SAPT in psi4, default
symmetry c1  #important for SAPT in psi4, default
}

set PROPERTIES_ORIGIN ["COM"]
properties('MP2/aug-cc-pvtz', properties = ['dipole'])
--------------------------------------------------------------------------

    Molecular point group: c1
  Charge       = 0
  Multiplicity = 1
  Basis Set: AUG-CC-PVTZ
    Blend: AUG-CC-PVTZ
  Basis Set: (AUG-CC-PVTZ AUX)
    Blend: AUG-CC-PVTZ-JKFIT

    Orbital Energies [Eh]
    ---------------------

    Doubly Occupied:

       1A    -11.218489     2A    -11.218044     3A    -11.213440
       4A    -11.211619     5A    -11.211469     6A    -11.210813
       7A    -11.209255     8A    -11.183774     9A     -1.140813
      10A     -1.050457    11A     -1.013639    12A     -0.909304
      13A     -0.892164    14A     -0.849002    15A     -0.771917
      16A     -0.743707    17A     -0.652584    18A     -0.627726
      19A     -0.613604    20A     -0.589896    21A     -0.571342
      22A     -0.538745    23A     -0.530996    24A     -0.526229
      25A     -0.521891    26A     -0.505626    27A     -0.484274
      28A     -0.463740    29A     -0.441997    30A     -0.440939
      31A     -0.421946    32A     -0.406473

  @DF-RHF Final Energy:  -312.31266874002785

   => Energetics <=

    Nuclear Repulsion Energy =            390.9692599259359440
    One-Electron Energy =               -1195.7920355705364273
    Two-Electron Energy =                 492.5101069045726376
    Total Energy =                       -312.3126687400278456
  Basis Set: (AUG-CC-PVTZ AUX)
    Blend: AUG-CC-PVTZ-RI
    Molecular point group: c1

    Geometry (in Angstrom), charge = 0, multiplicity = 1:

       Center              X                  Y                   Z               Mass
    ------------   -----------------  -----------------  -----------------  -----------------
         C            1.076078216850     0.356612506702     0.396911021463    12.000000000000
         C           -1.077880783150     0.356624506702     0.396912021463    12.000000000000
         C           -0.000895783150     1.408926506702     0.048478021463    12.000000000000
         C           -0.000907783150    -0.731477493298     0.173662021463    12.000000000000
         C            2.358617216850     0.300985506702    -0.412785978537    12.000000000000
         C           -2.360424783150     0.300997506702    -0.412775978537    12.000000000000
         C            3.218669216850    -0.910838493298    -0.061499978537    12.000000000000
         C           -3.220447783150    -0.910852493298    -0.061506978537    12.000000000000
         H            1.313010216850     0.417618506702     1.468116021463     1.007825032230
         H           -1.314805783150     0.417635506702     1.468118021463     1.007825032230
         H           -0.000890783150     2.359766506702     0.591540021463     1.007825032230
         H           -0.000894783150     1.617610506702    -1.029138978537     1.007825032230
         H           -0.000908783150    -1.061589493298    -0.874196978537     1.007825032230
         H           -0.000911783150    -1.613835493298     0.821493021463     1.007825032230
         H            2.930466216850     1.224988506702    -0.255057978537     1.007825032230
         H            2.098488216850     0.274261506702    -1.479312978537     1.007825032230
         H           -2.100304783150     0.274303506702    -1.479304978537     1.007825032230
         H           -2.932292783150     1.224984506702    -0.255019978537     1.007825032230
         H            2.771524816850    -1.670749993298    -0.211126178537     1.007825032230
         H            4.136052216850    -0.937782493298    -0.657128978537     1.007825032230
         H            3.503753216850    -0.892240493298     0.995160021463     1.007825032230
         H           -3.505494783150    -0.892297493298     0.995163021463     1.007825032230
         H           -4.137852783150    -0.937786493298    -0.657102978537     1.007825032230
         H           -2.673300783150    -1.840693493298    -0.244650978537     1.007825032230

  Basis Set: AUG-CC-PVTZ
    Blend: AUG-CC-PVTZ
  Basis Set: (AUG-CC-PVTZ AUX)
    Blend: AUG-CC-PVTZ-JKFIT
	 Reference Energy          =    -312.3126687400278456 [Eh]
	 Singles Energy            =      -0.0000000000000000 [Eh]
	 Same-Spin Energy          =      -0.3392077280316269 [Eh]
	 Opposite-Spin Energy      =      -1.2309594852418471 [Eh]
	 Correlation Energy        =      -1.5701672132734741 [Eh]
	 Total Energy              =    -313.8828359533013099 [Eh]

	 ================> DF-SCS-MP2 Energies <==================
	-----------------------------------------------------------
	 SCS Same-Spin Scale       =       0.3333333333333333 [-]
	 SCS Opposite-Spin Scale   =       1.2000000000000000 [-]
	 SCS Same-Spin Energy      =      -0.1130692426772090 [Eh]
	 SCS Opposite-Spin Energy  =      -1.4771513822902165 [Eh]
	 SCS Correlation Energy    =      -1.5902206249674253 [Eh]
	 SCS Total Energy          =    -313.9028893649952465 [Eh]
	-----------------------------------------------------------

  Dipole Moment: [D]
     X:    -0.0235      Y:    -0.0170      Z:     0.0743     Total:     0.0798

*** Psi4 exiting successfully. Buy a developer a beer!
