                               Psi4 1.4a3.dev225

  ==> Input File <==

--------------------------------------------------------------------------
#psi4
#
memory 32 gb

molecule  {
0 1
  C        1.0769770     0.3750480     0.4036540
  C       -1.0769820     0.3750600     0.4036550
  C        0.0000030     1.4273620     0.0552210
  C       -0.0000090    -0.7130420     0.1804050
  C        2.3595160     0.3194210    -0.4060430
  C       -2.3595260     0.3194330    -0.4060330
  C        3.2195680    -0.8924030    -0.0547570
  C       -3.2982703    -0.8248117    -0.0304361
  H        1.3139090     0.4360540     1.4748590
  H       -1.3139070     0.4360710     1.4748610
  H        0.0000080     2.3782020     0.5982830
  H        0.0000040     1.6360460    -1.0223960
  H       -0.0000100    -1.0431540    -0.8674540
  H       -0.0000130    -1.5954000     0.8282360
  H        2.9313650     1.2434240    -0.2483150
  H        2.0993870     0.2926970    -1.4725700
  H       -2.0994060     0.2927390    -1.4725620
  H       -2.9313940     1.2434200    -0.2482770
  H        2.6724260    -1.8222580    -0.2378450
  H        4.1369510    -0.9193470    -0.6503860
  H        3.5046520    -0.8738050     1.0019030
  H       -3.5045960    -0.8738620     1.0019060
  H       -4.1369540    -0.9193510    -0.6503600
  H       -2.6724020    -1.8222580    -0.2379080
units angstrom
no_reorient  #important for SAPT in psi4, default
symmetry c1  #important for SAPT in psi4, default
}

set PROPERTIES_ORIGIN ["COM"]
properties('MP2/aug-cc-pvtz', properties = ['dipole'])
--------------------------------------------------------------------------

    Molecular point group: c1
  Charge       = 0
  Multiplicity = 1
  Basis Set: AUG-CC-PVTZ
    Blend: AUG-CC-PVTZ
  Basis Set: (AUG-CC-PVTZ AUX)
    Blend: AUG-CC-PVTZ-JKFIT

    Orbital Energies [Eh]
    ---------------------

    Doubly Occupied:

       1A    -11.219512     2A    -11.218434     3A    -11.214215
       4A    -11.213461     5A    -11.211806     6A    -11.211259
       7A    -11.211213     8A    -11.209158     9A     -1.140771
      10A     -1.046008    11A     -1.008097    12A     -0.900560
      13A     -0.891955    14A     -0.841893    15A     -0.769337
      16A     -0.744086    17A     -0.652117    18A     -0.618207
      19A     -0.610986    20A     -0.586573    21A     -0.577405
      22A     -0.542563    23A     -0.530882    24A     -0.530601
      25A     -0.509441    26A     -0.495086    27A     -0.471245
      28A     -0.467088    29A     -0.443160    30A     -0.437337
      31A     -0.419823    32A     -0.409033

  @DF-RHF Final Energy:  -312.33596357321017

   => Energetics <=

    Nuclear Repulsion Energy =            389.6695971598567212
    One-Electron Energy =               -1193.3045004664465978
    Two-Electron Energy =                 491.2989397333797115
    Total Energy =                       -312.3359635732101651
  Basis Set: (AUG-CC-PVTZ AUX)
    Blend: AUG-CC-PVTZ-RI
    Molecular point group: c1

    Geometry (in Angstrom), charge = 0, multiplicity = 1:

       Center              X                  Y                   Z               Mass
    ------------   -----------------  -----------------  -----------------  -----------------
         C            1.085402041286     0.350904688266     0.394608138978    12.000000000000
         C           -1.068556958714     0.350916688266     0.394609138978    12.000000000000
         C            0.008428041286     1.403218688266     0.046175138978    12.000000000000
         C            0.008416041286    -0.737185311734     0.171359138978    12.000000000000
         C            2.367941041286     0.295277688266    -0.415088861022    12.000000000000
         C           -2.351100958714     0.295289688266    -0.415078861022    12.000000000000
         C            3.227993041286    -0.916546311734    -0.063802861022    12.000000000000
         C           -3.289845258714    -0.848955011734    -0.039481961022    12.000000000000
         H            1.322334041286     0.411910688266     1.465813138978     1.007825032230
         H           -1.305481958714     0.411927688266     1.465815138978     1.007825032230
         H            0.008433041286     2.354058688266     0.589237138978     1.007825032230
         H            0.008429041286     1.611902688266    -1.031441861022     1.007825032230
         H            0.008415041286    -1.067297311734    -0.876499861022     1.007825032230
         H            0.008412041286    -1.619543311734     0.819190138978     1.007825032230
         H            2.939790041286     1.219280688266    -0.257360861022     1.007825032230
         H            2.107812041286     0.268553688266    -1.481615861022     1.007825032230
         H           -2.090980958714     0.268595688266    -1.481607861022     1.007825032230
         H           -2.922968958714     1.219276688266    -0.257322861022     1.007825032230
         H            2.680851041286    -1.846401311734    -0.246890861022     1.007825032230
         H            4.145376041286    -0.943490311734    -0.659431861022     1.007825032230
         H            3.513077041286    -0.897948311734     0.992857138978     1.007825032230
         H           -3.496170958714    -0.898005311734     0.992860138978     1.007825032230
         H           -4.128528958714    -0.943494311734    -0.659405861022     1.007825032230
         H           -2.663976958714    -1.846401311734    -0.246953861022     1.007825032230

  Basis Set: AUG-CC-PVTZ
    Blend: AUG-CC-PVTZ
  Basis Set: (AUG-CC-PVTZ AUX)
    Blend: AUG-CC-PVTZ-JKFIT
	 Reference Energy          =    -312.3359635732101651 [Eh]
	 Singles Energy            =      -0.0000000000000000 [Eh]
	 Same-Spin Energy          =      -0.3391923003375290 [Eh]
	 Opposite-Spin Energy      =      -1.2319332439347614 [Eh]
	 Correlation Energy        =      -1.5711255442722905 [Eh]
	 Total Energy              =    -313.9070891174824283 [Eh]

	 ================> DF-SCS-MP2 Energies <==================
	-----------------------------------------------------------
	 SCS Same-Spin Scale       =       0.3333333333333333 [-]
	 SCS Opposite-Spin Scale   =       1.2000000000000000 [-]
	 SCS Same-Spin Energy      =      -0.1130641001125097 [Eh]
	 SCS Opposite-Spin Energy  =      -1.4783198927217136 [Eh]
	 SCS Correlation Energy    =      -1.5913839928342233 [Eh]
	 SCS Total Energy          =    -313.9273475660443751 [Eh]
	-----------------------------------------------------------

  Dipole Moment: [D]
     X:    -0.0123      Y:     0.1152      Z:     0.0971     Total:     0.1512

*** Psi4 exiting successfully. Buy a developer a beer!
