                               Psi4 1.4a3.dev225

  ==> Input File <==

--------------------------------------------------------------------------
#psi4
#
memory 32 gb

molecule  {
0 1
  C        1.0769770     0.3750480     0.4036540
  C       -1.0769820     0.3750600     0.4036550
  C        0.0000030     1.4273620     0.0552210
  C       -0.0000090    -0.7130420     0.1804050
  C        2.3595160     0.3194210    -0.4060430
  C       -2.3595260     0.3194330    -0.4060330
  C        3.2195680    -0.8924030    -0.0547570
  C       -3.2195490    -0.8924170    -0.0547640
  H        1.3139090     0.4360540     1.4748590
  H       -1.3139070     0.4360710     1.4748610
  H        0.0000080     2.3782020     0.5982830
  H        0.0000040     1.6360460    -1.0223960
  H       -0.0000098    -0.9830587    -0.6766962
  H       -0.0000130    -1.5954000     0.8282360
  H        2.9313650     1.2434240    -0.2483150
  H        2.0993870     0.2926970    -1.4725700
  H       -2.0994060     0.2927390    -1.4725620
  H       -2.9313940     1.2434200    -0.2482770
  H        2.6724260    -1.8222580    -0.2378450
  H        4.1369510    -0.9193470    -0.6503860
  H        3.5046520    -0.8738050     1.0019030
  H       -3.5045960    -0.8738620     1.0019060
  H       -4.1369540    -0.9193510    -0.6503600
  H       -2.6724020    -1.8222580    -0.2379080
units angstrom
no_reorient  #important for SAPT in psi4, default
symmetry c1  #important for SAPT in psi4, default
}

set PROPERTIES_ORIGIN ["COM"]
properties('MP2/aug-cc-pvtz', properties = ['dipole'])
--------------------------------------------------------------------------

    Molecular point group: c1
  Charge       = 0
  Multiplicity = 1
  Basis Set: AUG-CC-PVTZ
    Blend: AUG-CC-PVTZ
  Basis Set: (AUG-CC-PVTZ AUX)
    Blend: AUG-CC-PVTZ-JKFIT

    Orbital Energies [Eh]
    ---------------------

    Doubly Occupied:

       1A    -11.216582     2A    -11.216552     3A    -11.213313
       4A    -11.213312     5A    -11.210377     6A    -11.209343
       7A    -11.209343     8A    -11.185899     9A     -1.143881
      10A     -1.045794    11A     -1.008183    12A     -0.911937
      13A     -0.898725    14A     -0.840949    15A     -0.768322
      16A     -0.760006    17A     -0.651015    18A     -0.616896
      19A     -0.614008    20A     -0.588994    21A     -0.572101
      22A     -0.552100    23A     -0.536456    24A     -0.524753
      25A     -0.507662    26A     -0.505458    27A     -0.483122
      28A     -0.463945    29A     -0.445435    30A     -0.440205
      31A     -0.420338    32A     -0.405764

  @DF-RHF Final Energy:  -312.31419580887240

   => Energetics <=

    Nuclear Repulsion Energy =            391.1631306407078341
    One-Electron Energy =               -1196.1931129397491986
    Two-Electron Energy =                 492.7157864901690232
    Total Energy =                       -312.3141958088723982
  Basis Set: (AUG-CC-PVTZ AUX)
    Blend: AUG-CC-PVTZ-RI
    Molecular point group: c1

    Geometry (in Angstrom), charge = 0, multiplicity = 1:

       Center              X                  Y                   Z               Mass
    ------------   -----------------  -----------------  -----------------  -----------------
         C            1.076977032481     0.357599865166     0.395497183668    12.000000000000
         C           -1.076981967519     0.357611865166     0.395498183668    12.000000000000
         C            0.000003032481     1.409913865166     0.047064183668    12.000000000000
         C           -0.000008967519    -0.730490134834     0.172248183668    12.000000000000
         C            2.359516032481     0.301972865166    -0.414199816332    12.000000000000
         C           -2.359525967519     0.301984865166    -0.414189816332    12.000000000000
         C            3.219568032481    -0.909851134834    -0.062913816332    12.000000000000
         C           -3.219548967519    -0.909865134834    -0.062920816332    12.000000000000
         H            1.313909032481     0.418605865166     1.466702183668     1.007825032230
         H           -1.313906967519     0.418622865166     1.466704183668     1.007825032230
         H            0.000008032481     2.360753865166     0.590126183668     1.007825032230
         H            0.000004032481     1.618597865166    -1.030552816332     1.007825032230
         H           -0.000009767519    -1.000506834834    -0.684853016332     1.007825032230
         H           -0.000012967519    -1.612848134834     0.820079183668     1.007825032230
         H            2.931365032481     1.225975865166    -0.256471816332     1.007825032230
         H            2.099387032481     0.275248865166    -1.480726816332     1.007825032230
         H           -2.099405967519     0.275290865166    -1.480718816332     1.007825032230
         H           -2.931393967519     1.225971865166    -0.256433816332     1.007825032230
         H            2.672426032481    -1.839706134834    -0.246001816332     1.007825032230
         H            4.136951032481    -0.936795134834    -0.658542816332     1.007825032230
         H            3.504652032481    -0.891253134834     0.993746183668     1.007825032230
         H           -3.504595967519    -0.891310134834     0.993749183668     1.007825032230
         H           -4.136953967519    -0.936799134834    -0.658516816332     1.007825032230
         H           -2.672401967519    -1.839706134834    -0.246064816332     1.007825032230

  Basis Set: AUG-CC-PVTZ
    Blend: AUG-CC-PVTZ
  Basis Set: (AUG-CC-PVTZ AUX)
    Blend: AUG-CC-PVTZ-JKFIT
	 Reference Energy          =    -312.3141958088723982 [Eh]
	 Singles Energy            =      -0.0000000000000000 [Eh]
	 Same-Spin Energy          =      -0.3389381024726503 [Eh]
	 Opposite-Spin Energy      =      -1.2307065009068392 [Eh]
	 Correlation Energy        =      -1.5696446033794895 [Eh]
	 Total Energy              =    -313.8838404122519137 [Eh]

	 ================> DF-SCS-MP2 Energies <==================
	-----------------------------------------------------------
	 SCS Same-Spin Scale       =       0.3333333333333333 [-]
	 SCS Opposite-Spin Scale   =       1.2000000000000000 [-]
	 SCS Same-Spin Energy      =      -0.1129793674908834 [Eh]
	 SCS Opposite-Spin Energy  =      -1.4768478010882069 [Eh]
	 SCS Correlation Energy    =      -1.5898271685790903 [Eh]
	 SCS Total Energy          =    -313.9040229774514614 [Eh]
	-----------------------------------------------------------

  Dipole Moment: [D]
     X:    -0.0000      Y:     0.0247      Z:    -0.0042     Total:     0.0250

*** Psi4 exiting successfully. Buy a developer a beer!
