                               Psi4 1.4a3.dev225

  ==> Input File <==

--------------------------------------------------------------------------
#psi4
#
memory 32 gb

molecule  {
0 1
  C        1.0769770     0.3750480     0.4036540
  C       -1.0769820     0.3750600     0.4036550
  C        0.0000030     1.4273620     0.0552210
  C       -0.0000090    -0.7130420     0.1804050
  C        2.3595160     0.3194210    -0.4060430
  C       -2.3595260     0.3194330    -0.4060330
  C        3.2195680    -0.8924030    -0.0547570
  C       -3.2195490    -0.8924170    -0.0547640
  H        1.3139090     0.4360540     1.4748590
  H       -1.3139070     0.4360710     1.4748610
  H        0.0000080     2.3782020     0.5982830
  H        0.0000040     1.6360460    -1.0223960
  H       -0.0000100    -1.0431540    -0.8674540
  H       -0.0000130    -1.5954000     0.8282360
  H        2.9313650     1.2434240    -0.2483150
  H        2.0993870     0.2926970    -1.4725700
  H       -2.0994060     0.2927390    -1.4725620
  H       -2.9313940     1.2434200    -0.2482770
  H        2.6724260    -1.8222580    -0.2378450
  H        4.1369510    -0.9193470    -0.6503860
  H        3.5046520    -0.8738050     1.0019030
  H       -3.5045960    -0.8738620     1.0019060
  H       -4.1027978    -1.0222283    -0.6873085
  H       -2.6724020    -1.8222580    -0.2379080
units angstrom
no_reorient  #important for SAPT in psi4, default
symmetry c1  #important for SAPT in psi4, default
}

set PROPERTIES_ORIGIN ["COM"]
properties('MP2/aug-cc-pvtz', properties = ['dipole'])
--------------------------------------------------------------------------

    Molecular point group: c1
  Charge       = 0
  Multiplicity = 1
  Basis Set: AUG-CC-PVTZ
    Blend: AUG-CC-PVTZ
  Basis Set: (AUG-CC-PVTZ AUX)
    Blend: AUG-CC-PVTZ-JKFIT

    Orbital Energies [Eh]
    ---------------------

    Doubly Occupied:

       1A    -11.218841     2A    -11.218401     3A    -11.214095
       4A    -11.213438     5A    -11.211367     6A    -11.211277
       7A    -11.209198     8A    -11.209049     9A     -1.140763
      10A     -1.045889    11A     -1.007219    12A     -0.899507
      13A     -0.892055    14A     -0.841842    15A     -0.769503
      16A     -0.743855    17A     -0.652028    18A     -0.617033
      19A     -0.610957    20A     -0.585523    21A     -0.573082
      22A     -0.536583    23A     -0.530710    24A     -0.528086
      25A     -0.507046    26A     -0.500625    27A     -0.481570
      28A     -0.464686    29A     -0.442464    30A     -0.441529
      31A     -0.421851    32A     -0.407454

  @DF-RHF Final Energy:  -312.34548262553244

   => Energetics <=

    Nuclear Repulsion Energy =            390.0897494008319768
    One-Electron Energy =               -1194.1754112030193937
    Two-Electron Energy =                 491.7401791766549195
    Total Energy =                       -312.3454826255324406
  Basis Set: (AUG-CC-PVTZ AUX)
    Blend: AUG-CC-PVTZ-RI
    Molecular point group: c1

    Geometry (in Angstrom), charge = 0, multiplicity = 1:

       Center              X                  Y                   Z               Mass
    ------------   -----------------  -----------------  -----------------  -----------------
         C            1.076670025032     0.359064726455     0.397543896700    12.000000000000
         C           -1.077288974968     0.359076726455     0.397544896700    12.000000000000
         C           -0.000303974968     1.411378726455     0.049110896700    12.000000000000
         C           -0.000315974968    -0.729025273545     0.174294896700    12.000000000000
         C            2.359209025032     0.303437726455    -0.412153103300    12.000000000000
         C           -2.359832974968     0.303449726455    -0.412143103300    12.000000000000
         C            3.219261025032    -0.908386273545    -0.060867103300    12.000000000000
         C           -3.219855974968    -0.908400273545    -0.060874103300    12.000000000000
         H            1.313602025032     0.420070726455     1.468748896700     1.007825032230
         H           -1.314213974968     0.420087726455     1.468750896700     1.007825032230
         H           -0.000298974968     2.362218726455     0.592172896700     1.007825032230
         H           -0.000302974968     1.620062726455    -1.028506103300     1.007825032230
         H           -0.000316974968    -1.059137273545    -0.873564103300     1.007825032230
         H           -0.000319974968    -1.611383273545     0.822125896700     1.007825032230
         H            2.931058025032     1.227440726455    -0.254425103300     1.007825032230
         H            2.099080025032     0.276713726455    -1.478680103300     1.007825032230
         H           -2.099712974968     0.276755726455    -1.478672103300     1.007825032230
         H           -2.931700974968     1.227436726455    -0.254387103300     1.007825032230
         H            2.672119025032    -1.838241273545    -0.243955103300     1.007825032230
         H            4.136644025032    -0.935330273545    -0.656496103300     1.007825032230
         H            3.504345025032    -0.889788273545     0.995792896700     1.007825032230
         H           -3.504902974968    -0.889845273545     0.995795896700     1.007825032230
         H           -4.103104774968    -1.038211573545    -0.693418603300     1.007825032230
         H           -2.672708974968    -1.838241273545    -0.244018103300     1.007825032230

  Basis Set: AUG-CC-PVTZ
    Blend: AUG-CC-PVTZ
  Basis Set: (AUG-CC-PVTZ AUX)
    Blend: AUG-CC-PVTZ-JKFIT
	 Reference Energy          =    -312.3454826255324406 [Eh]
	 Singles Energy            =      -0.0000000000000000 [Eh]
	 Same-Spin Energy          =      -0.3391458646578167 [Eh]
	 Opposite-Spin Energy      =      -1.2315719656561741 [Eh]
	 Correlation Energy        =      -1.5707178303139908 [Eh]
	 Total Energy              =    -313.9162004558464218 [Eh]

	 ================> DF-SCS-MP2 Energies <==================
	-----------------------------------------------------------
	 SCS Same-Spin Scale       =       0.3333333333333333 [-]
	 SCS Opposite-Spin Scale   =       1.2000000000000000 [-]
	 SCS Same-Spin Energy      =      -0.1130486215526056 [Eh]
	 SCS Opposite-Spin Energy  =      -1.4778863587874089 [Eh]
	 SCS Correlation Energy    =      -1.5909349803400146 [Eh]
	 SCS Total Energy          =    -313.9364176058724638 [Eh]
	-----------------------------------------------------------

  Dipole Moment: [D]
     X:     0.0198      Y:     0.0454      Z:     0.0658     Total:     0.0823

*** Psi4 exiting successfully. Buy a developer a beer!
