                               Psi4 1.4a3.dev225

  ==> Input File <==

--------------------------------------------------------------------------
#psi4
#
memory 32 gb

molecule  {
0 1
  C        1.0769770     0.3750480     0.4036540
  C       -1.0769820     0.3750600     0.4036550
  C        0.0000030     1.4273620     0.0552210
  C       -0.0000090    -0.7130420     0.1804050
  C        2.3595160     0.3194210    -0.4060430
  C       -2.3595260     0.3194330    -0.4060330
  C        3.2195680    -0.8924030    -0.0547570
  C       -3.2195490    -0.8924170    -0.0547640
  H        1.3139090     0.4360540     1.4748590
  H       -1.3139070     0.4360710     1.4748610
  H        0.0000080     2.3782020     0.5982830
  H        0.0000040     1.6360460    -1.0223960
  H       -0.0000100    -1.0431540    -0.8674540
  H       -0.0000130    -1.5954000     0.8282360
  H        2.9313650     1.2434240    -0.2483150
  H        2.0993870     0.2926970    -1.4725700
  H       -2.0994060     0.2927390    -1.4725620
  H       -2.9313940     1.2434200    -0.2482770
  H        2.6724260    -1.8222580    -0.2378450
  H        4.1369510    -0.9193470    -0.6503860
  H        3.4994431    -0.8741448     0.9825962
  H       -3.5045960    -0.8738620     1.0019060
  H       -4.1369540    -0.9193510    -0.6503600
  H       -2.6724020    -1.8222580    -0.2379080
units angstrom
no_reorient  #important for SAPT in psi4, default
symmetry c1  #important for SAPT in psi4, default
}

set PROPERTIES_ORIGIN ["COM"]
properties('MP2/aug-cc-pvtz', properties = ['dipole'])
--------------------------------------------------------------------------

    Molecular point group: c1
  Charge       = 0
  Multiplicity = 1
  Basis Set: AUG-CC-PVTZ
    Blend: AUG-CC-PVTZ
  Basis Set: (AUG-CC-PVTZ AUX)
    Blend: AUG-CC-PVTZ-JKFIT

    Orbital Energies [Eh]
    ---------------------

    Doubly Occupied:

       1A    -11.218342     2A    -11.218300     3A    -11.213351
       4A    -11.213125     5A    -11.211357     6A    -11.210947
       7A    -11.209145     8A    -11.206630     9A     -1.140598
      10A     -1.046172    11A     -1.007815    12A     -0.899827
      13A     -0.891964    14A     -0.841675    15A     -0.769315
      16A     -0.743757    17A     -0.651726    18A     -0.617192
      19A     -0.612617    20A     -0.585625    21A     -0.572234
      22A     -0.537808    23A     -0.530652    24A     -0.524714
      25A     -0.508053    26A     -0.505512    27A     -0.482948
      28A     -0.464556    29A     -0.442078    30A     -0.441082
      31A     -0.421564    32A     -0.406793

  @DF-RHF Final Energy:  -312.34671489710104

   => Energetics <=

    Nuclear Repulsion Energy =            390.1996288343813717
    One-Electron Energy =               -1194.3977330792690736
    Two-Electron Energy =                 491.8513893477866077
    Total Energy =                       -312.3467148971010374
  Basis Set: (AUG-CC-PVTZ AUX)
    Blend: AUG-CC-PVTZ-RI
    Molecular point group: c1

    Geometry (in Angstrom), charge = 0, multiplicity = 1:

       Center              X                  Y                   Z               Mass
    ------------   -----------------  -----------------  -----------------  -----------------
         C            1.077023853903     0.358143079415     0.397385326220    12.000000000000
         C           -1.076935146097     0.358155079415     0.397386326220    12.000000000000
         C            0.000049853903     1.410457079415     0.048952326220    12.000000000000
         C            0.000037853903    -0.729946920585     0.174136326220    12.000000000000
         C            2.359562853903     0.302516079415    -0.412311673780    12.000000000000
         C           -2.359479146097     0.302528079415    -0.412301673780    12.000000000000
         C            3.219614853903    -0.909307920585    -0.061025673780    12.000000000000
         C           -3.219502146097    -0.909321920585    -0.061032673780    12.000000000000
         H            1.313955853903     0.419149079415     1.468590326220     1.007825032230
         H           -1.313860146097     0.419166079415     1.468592326220     1.007825032230
         H            0.000054853903     2.361297079415     0.592014326220     1.007825032230
         H            0.000050853903     1.619141079415    -1.028664673780     1.007825032230
         H            0.000036853903    -1.060058920585    -0.873722673780     1.007825032230
         H            0.000033853903    -1.612304920585     0.821967326220     1.007825032230
         H            2.931411853903     1.226519079415    -0.254583673780     1.007825032230
         H            2.099433853903     0.275792079415    -1.478838673780     1.007825032230
         H           -2.099359146097     0.275834079415    -1.478830673780     1.007825032230
         H           -2.931347146097     1.226515079415    -0.254545673780     1.007825032230
         H            2.672472853903    -1.839162920585    -0.244113673780     1.007825032230
         H            4.136997853903    -0.936251920585    -0.656654673780     1.007825032230
         H            3.499489953903    -0.891049720585     0.976327526220     1.007825032230
         H           -3.504549146097    -0.890766920585     0.995637326220     1.007825032230
         H           -4.136907146097    -0.936255920585    -0.656628673780     1.007825032230
         H           -2.672355146097    -1.839162920585    -0.244176673780     1.007825032230

  Basis Set: AUG-CC-PVTZ
    Blend: AUG-CC-PVTZ
  Basis Set: (AUG-CC-PVTZ AUX)
    Blend: AUG-CC-PVTZ-JKFIT
	 Reference Energy          =    -312.3467148971010374 [Eh]
	 Singles Energy            =      -0.0000000000000000 [Eh]
	 Same-Spin Energy          =      -0.3390915604454831 [Eh]
	 Opposite-Spin Energy      =      -1.2314172046582796 [Eh]
	 Correlation Energy        =      -1.5705087651037628 [Eh]
	 Total Energy              =    -313.9172236622047762 [Eh]

	 ================> DF-SCS-MP2 Energies <==================
	-----------------------------------------------------------
	 SCS Same-Spin Scale       =       0.3333333333333333 [-]
	 SCS Opposite-Spin Scale   =       1.2000000000000000 [-]
	 SCS Same-Spin Energy      =      -0.1130305201484944 [Eh]
	 SCS Opposite-Spin Energy  =      -1.4777006455899355 [Eh]
	 SCS Correlation Energy    =      -1.5907311657384298 [Eh]
	 SCS Total Energy          =    -313.9374460628394559 [Eh]
	-----------------------------------------------------------

  Dipole Moment: [D]
     X:     0.0060      Y:     0.0716      Z:     0.0951     Total:     0.1192

*** Psi4 exiting successfully. Buy a developer a beer!
