                               Psi4 1.4a3.dev225

  ==> Input File <==

--------------------------------------------------------------------------
#psi4
#
memory 32 gb

molecule  {
0 1
  C        1.0769770     0.3750480     0.4036540
  C       -1.0769820     0.3750600     0.4036550
  C        0.0000030     1.4273620     0.0552210
  C       -0.0000090    -0.7130420     0.1804050
  C        2.3595160     0.3194210    -0.4060430
  C       -2.3595260     0.3194330    -0.4060330
  C        3.2195680    -0.8924030    -0.0547570
  C       -3.2195490    -0.8924170    -0.0547640
  H        1.3139090     0.4360540     1.4748590
  H       -1.3139070     0.4360710     1.4748610
  H        0.0000080     2.3782020     0.5982830
  H        0.0000040     1.6360460    -1.0223960
  H       -0.0000100    -1.0431540    -0.8674540
  H       -0.0000130    -1.5954000     0.8282360
  H        2.9313650     1.2434240    -0.2483150
  H        2.0993870     0.2926970    -1.4725700
  H       -2.0994060     0.2927390    -1.4725620
  H       -2.9313940     1.2434200    -0.2482770
  H        2.6724260    -1.8222580    -0.2378450
  H        4.1369510    -0.9193470    -0.6503860
  H        3.5046520    -0.8738050     1.0019030
  H       -3.5045960    -0.8738620     1.0019060
  H       -4.1541594    -0.8505323    -0.6220744
  H       -2.6724020    -1.8222580    -0.2379080
units angstrom
no_reorient  #important for SAPT in psi4, default
symmetry c1  #important for SAPT in psi4, default
}

set PROPERTIES_ORIGIN ["COM"]
properties('MP2/aug-cc-pvtz', properties = ['dipole'])
--------------------------------------------------------------------------

    Molecular point group: c1
  Charge       = 0
  Multiplicity = 1
  Basis Set: AUG-CC-PVTZ
    Blend: AUG-CC-PVTZ
  Basis Set: (AUG-CC-PVTZ AUX)
    Blend: AUG-CC-PVTZ-JKFIT

    Orbital Energies [Eh]
    ---------------------

    Doubly Occupied:

       1A    -11.218319     2A    -11.217992     3A    -11.213335
       4A    -11.212963     5A    -11.211409     6A    -11.210763
       7A    -11.209271     8A    -11.209143     9A     -1.140529
      10A     -1.046075    11A     -1.007627    12A     -0.899034
      13A     -0.891947    14A     -0.840557    15A     -0.768827
      16A     -0.743670    17A     -0.651581    18A     -0.617661
      19A     -0.613427    20A     -0.585031    21A     -0.570899
      22A     -0.537306    23A     -0.530674    24A     -0.522509
      25A     -0.510271    26A     -0.505867    27A     -0.482598
      28A     -0.463867    29A     -0.442008    30A     -0.440682
      31A     -0.421439    32A     -0.406264

  @DF-RHF Final Energy:  -312.34614349078498

   => Energetics <=

    Nuclear Repulsion Energy =            390.1431277985353745
    One-Electron Energy =               -1194.2914613148263925
    Two-Electron Energy =                 491.8021900255060359
    Total Energy =                       -312.3461434907849821
  Basis Set: (AUG-CC-PVTZ AUX)
    Blend: AUG-CC-PVTZ-RI
    Molecular point group: c1

    Geometry (in Angstrom), charge = 0, multiplicity = 1:

       Center              X                  Y                   Z               Mass
    ------------   -----------------  -----------------  -----------------  -----------------
         C            1.077131683124     0.357521455844     0.396957547167    12.000000000000
         C           -1.076827316876     0.357533455844     0.396958547167    12.000000000000
         C            0.000157683124     1.409835455844     0.048524547167    12.000000000000
         C            0.000145683124    -0.730568544156     0.173708547167    12.000000000000
         C            2.359670683124     0.301894455844    -0.412739452833    12.000000000000
         C           -2.359371316876     0.301906455844    -0.412729452833    12.000000000000
         C            3.219722683124    -0.909929544156    -0.061453452833    12.000000000000
         C           -3.219394316876    -0.909943544156    -0.061460452833    12.000000000000
         H            1.314063683124     0.418527455844     1.468162547167     1.007825032230
         H           -1.313752316876     0.418544455844     1.468164547167     1.007825032230
         H            0.000162683124     2.360675455844     0.591586547167     1.007825032230
         H            0.000158683124     1.618519455844    -1.029092452833     1.007825032230
         H            0.000144683124    -1.060680544156    -0.874150452833     1.007825032230
         H            0.000141683124    -1.612926544156     0.821539547167     1.007825032230
         H            2.931519683124     1.225897455844    -0.255011452833     1.007825032230
         H            2.099541683124     0.275170455844    -1.479266452833     1.007825032230
         H           -2.099251316876     0.275212455844    -1.479258452833     1.007825032230
         H           -2.931239316876     1.225893455844    -0.254973452833     1.007825032230
         H            2.672580683124    -1.839784544156    -0.244541452833     1.007825032230
         H            4.137105683124    -0.936873544156    -0.657082452833     1.007825032230
         H            3.504806683124    -0.891331544156     0.995206547167     1.007825032230
         H           -3.504441316876    -0.891388544156     0.995209547167     1.007825032230
         H           -4.154004716876    -0.868058844156    -0.628770852833     1.007825032230
         H           -2.672247316876    -1.839784544156    -0.244604452833     1.007825032230

  Basis Set: AUG-CC-PVTZ
    Blend: AUG-CC-PVTZ
  Basis Set: (AUG-CC-PVTZ AUX)
    Blend: AUG-CC-PVTZ-JKFIT
	 Reference Energy          =    -312.3461434907849821 [Eh]
	 Singles Energy            =      -0.0000000000000000 [Eh]
	 Same-Spin Energy          =      -0.3391021490881553 [Eh]
	 Opposite-Spin Energy      =      -1.2315843777075917 [Eh]
	 Correlation Energy        =      -1.5706865267957468 [Eh]
	 Total Energy              =    -313.9168300175807076 [Eh]

	 ================> DF-SCS-MP2 Energies <==================
	-----------------------------------------------------------
	 SCS Same-Spin Scale       =       0.3333333333333333 [-]
	 SCS Opposite-Spin Scale   =       1.2000000000000000 [-]
	 SCS Same-Spin Energy      =      -0.1130340496960518 [Eh]
	 SCS Opposite-Spin Energy  =      -1.4779012532491100 [Eh]
	 SCS Correlation Energy    =      -1.5909353029451618 [Eh]
	 SCS Total Energy          =    -313.9370787937301657 [Eh]
	-----------------------------------------------------------

  Dipole Moment: [D]
     X:    -0.0102      Y:     0.0912      Z:     0.0954     Total:     0.1324

*** Psi4 exiting successfully. Buy a developer a beer!
