                               Psi4 1.4a3.dev225

  ==> Input File <==

--------------------------------------------------------------------------
#psi4
#
memory 32 gb

molecule  {
0 1
  C        1.0769770     0.3750480     0.4036540
  C       -1.0769820     0.3750600     0.4036550
  C        0.0000030     1.4273620     0.0552210
  C       -0.0000090    -0.7130420     0.1804050
  C        2.3595160     0.3194210    -0.4060430
  C       -2.3595260     0.3194330    -0.4060330
  C        3.2195680    -0.8924030    -0.0547570
  C       -3.1991985    -0.9084081    -0.0611182
  H        1.3139090     0.4360540     1.4748590
  H       -1.3139070     0.4360710     1.4748610
  H        0.0000080     2.3782020     0.5982830
  H        0.0000040     1.6360460    -1.0223960
  H       -0.0000100    -1.0431540    -0.8674540
  H       -0.0000130    -1.5954000     0.8282360
  H        2.9313650     1.2434240    -0.2483150
  H        2.0993870     0.2926970    -1.4725700
  H       -2.0994060     0.2927390    -1.4725620
  H       -2.9313940     1.2434200    -0.2482770
  H        2.6724260    -1.8222580    -0.2378450
  H        4.1369510    -0.9193470    -0.6503860
  H        3.5046520    -0.8738050     1.0019030
  H       -3.5045960    -0.8738620     1.0019060
  H       -4.1369540    -0.9193510    -0.6503600
  H       -2.6724020    -1.8222580    -0.2379080
units angstrom
no_reorient  #important for SAPT in psi4, default
symmetry c1  #important for SAPT in psi4, default
}

set PROPERTIES_ORIGIN ["COM"]
properties('MP2/aug-cc-pvtz', properties = ['dipole'])
--------------------------------------------------------------------------

    Molecular point group: c1
  Charge       = 0
  Multiplicity = 1
  Basis Set: AUG-CC-PVTZ
    Blend: AUG-CC-PVTZ
  Basis Set: (AUG-CC-PVTZ AUX)
    Blend: AUG-CC-PVTZ-JKFIT

    Orbital Energies [Eh]
    ---------------------

    Doubly Occupied:

       1A    -11.218367     2A    -11.218136     3A    -11.213466
       4A    -11.213379     5A    -11.211472     6A    -11.210815
       7A    -11.209274     8A    -11.209181     9A     -1.140650
      10A     -1.046098    11A     -1.007401    12A     -0.899038
      13A     -0.892047    14A     -0.841107    15A     -0.769247
      16A     -0.743713    17A     -0.651762    18A     -0.618011
      19A     -0.612592    20A     -0.585206    21A     -0.570404
      22A     -0.536254    23A     -0.530720    24A     -0.523644
      25A     -0.511741    26A     -0.504978    27A     -0.482166
      28A     -0.463193    29A     -0.442093    30A     -0.441459
      31A     -0.421867    32A     -0.406196

  @DF-RHF Final Energy:  -312.34589845235951

   => Energetics <=

    Nuclear Repulsion Energy =            390.2358048185774919
    One-Electron Energy =               -1194.4720570665290325
    Two-Electron Energy =                 491.8903537955920910
    Total Energy =                       -312.3458984523595063
  Basis Set: (AUG-CC-PVTZ AUX)
    Blend: AUG-CC-PVTZ-RI
    Molecular point group: c1

    Geometry (in Angstrom), charge = 0, multiplicity = 1:

       Center              X                  Y                   Z               Mass
    ------------   -----------------  -----------------  -----------------  -----------------
         C            1.074799058240     0.359851444173     0.397891836116    12.000000000000
         C           -1.079159941760     0.359863444173     0.397892836116    12.000000000000
         C           -0.002174941760     1.412165444173     0.049458836116    12.000000000000
         C           -0.002186941760    -0.728238555827     0.174642836116    12.000000000000
         C            2.357338058240     0.304224444173    -0.411805163884    12.000000000000
         C           -2.361703941760     0.304236444173    -0.411795163884    12.000000000000
         C            3.217390058240    -0.907599555827    -0.060519163884    12.000000000000
         C           -3.201376441760    -0.923604655827    -0.066880363884    12.000000000000
         H            1.311731058240     0.420857444173     1.469096836116     1.007825032230
         H           -1.316084941760     0.420874444173     1.469098836116     1.007825032230
         H           -0.002169941760     2.363005444173     0.592520836116     1.007825032230
         H           -0.002173941760     1.620849444173    -1.028158163884     1.007825032230
         H           -0.002187941760    -1.058350555827    -0.873216163884     1.007825032230
         H           -0.002190941760    -1.610596555827     0.822473836116     1.007825032230
         H            2.929187058240     1.228227444173    -0.254077163884     1.007825032230
         H            2.097209058240     0.277500444173    -1.478332163884     1.007825032230
         H           -2.101583941760     0.277542444173    -1.478324163884     1.007825032230
         H           -2.933571941760     1.228223444173    -0.254039163884     1.007825032230
         H            2.670248058240    -1.837454555827    -0.243607163884     1.007825032230
         H            4.134773058240    -0.934543555827    -0.656148163884     1.007825032230
         H            3.502474058240    -0.889001555827     0.996140836116     1.007825032230
         H           -3.506773941760    -0.889058555827     0.996143836116     1.007825032230
         H           -4.139131941760    -0.934547555827    -0.656122163884     1.007825032230
         H           -2.674579941760    -1.837454555827    -0.243670163884     1.007825032230

  Basis Set: AUG-CC-PVTZ
    Blend: AUG-CC-PVTZ
  Basis Set: (AUG-CC-PVTZ AUX)
    Blend: AUG-CC-PVTZ-JKFIT
	 Reference Energy          =    -312.3458984523595063 [Eh]
	 Singles Energy            =      -0.0000000000000000 [Eh]
	 Same-Spin Energy          =      -0.3391054842705655 [Eh]
	 Opposite-Spin Energy      =      -1.2315847951432328 [Eh]
	 Correlation Energy        =      -1.5706902794137982 [Eh]
	 Total Energy              =    -313.9165887317732881 [Eh]

	 ================> DF-SCS-MP2 Energies <==================
	-----------------------------------------------------------
	 SCS Same-Spin Scale       =       0.3333333333333333 [-]
	 SCS Opposite-Spin Scale   =       1.2000000000000000 [-]
	 SCS Same-Spin Energy      =      -0.1130351614235218 [Eh]
	 SCS Opposite-Spin Energy  =      -1.4779017541718793 [Eh]
	 SCS Correlation Energy    =      -1.5909369155954012 [Eh]
	 SCS Total Energy          =    -313.9368353679549273 [Eh]
	-----------------------------------------------------------

  Dipole Moment: [D]
     X:     0.0054      Y:     0.0706      Z:     0.0795     Total:     0.1064

*** Psi4 exiting successfully. Buy a developer a beer!
