                               Psi4 1.4a3.dev225

  ==> Input File <==

--------------------------------------------------------------------------
#psi4
#
memory 32 gb

molecule  {
0 1
  C        1.0769770     0.3750480     0.4036540
  C       -1.0769820     0.3750600     0.4036550
  C        0.0000030     1.4273620     0.0552210
  C       -0.0000090    -0.7130420     0.1804050
  C        2.3595160     0.3194210    -0.4060430
  C       -2.3595260     0.3194330    -0.4060330
  C        3.2083031    -0.8765306    -0.0593581
  C       -3.2195490    -0.8924170    -0.0547640
  H        1.3139090     0.4360540     1.4748590
  H       -1.3139070     0.4360710     1.4748610
  H        0.0000080     2.3782020     0.5982830
  H        0.0000040     1.6360460    -1.0223960
  H       -0.0000100    -1.0431540    -0.8674540
  H       -0.0000130    -1.5954000     0.8282360
  H        2.9313650     1.2434240    -0.2483150
  H        2.0993870     0.2926970    -1.4725700
  H       -2.0994060     0.2927390    -1.4725620
  H       -2.9313940     1.2434200    -0.2482770
  H        2.6724260    -1.8222580    -0.2378450
  H        4.1369510    -0.9193470    -0.6503860
  H        3.5046520    -0.8738050     1.0019030
  H       -3.5045960    -0.8738620     1.0019060
  H       -4.1369540    -0.9193510    -0.6503600
  H       -2.6724020    -1.8222580    -0.2379080
units angstrom
no_reorient  #important for SAPT in psi4, default
symmetry c1  #important for SAPT in psi4, default
}

set PROPERTIES_ORIGIN ["COM"]
properties('MP2/aug-cc-pvtz', properties = ['dipole'])
--------------------------------------------------------------------------

    Molecular point group: c1
  Charge       = 0
  Multiplicity = 1
  Basis Set: AUG-CC-PVTZ
    Blend: AUG-CC-PVTZ
  Basis Set: (AUG-CC-PVTZ AUX)
    Blend: AUG-CC-PVTZ-JKFIT

    Orbital Energies [Eh]
    ---------------------

    Doubly Occupied:

       1A    -11.218430     2A    -11.218376     3A    -11.213404
       4A    -11.212572     5A    -11.211455     6A    -11.211016
       7A    -11.210167     8A    -11.209181     9A     -1.140913
      10A     -1.047682    11A     -1.008947    12A     -0.898623
      13A     -0.892034    14A     -0.840115    15A     -0.769280
      16A     -0.743891    17A     -0.651862    18A     -0.617218
      19A     -0.612979    20A     -0.584700    21A     -0.572708
      22A     -0.538041    23A     -0.530731    24A     -0.526002
      25A     -0.506378    26A     -0.504539    27A     -0.480949
      28A     -0.463666    29A     -0.442052    30A     -0.441934
      31A     -0.421883    32A     -0.406985

  @DF-RHF Final Energy:  -312.34615076198537

   => Energetics <=

    Nuclear Repulsion Energy =            390.3924267390293039
    One-Electron Energy =               -1194.7797289037973769
    Two-Electron Energy =                 492.0411514027826456
    Total Energy =                       -312.3461507619853705
  Basis Set: (AUG-CC-PVTZ AUX)
    Blend: AUG-CC-PVTZ-RI
    Molecular point group: c1

    Geometry (in Angstrom), charge = 0, multiplicity = 1:

       Center              X                  Y                   Z               Mass
    ------------   -----------------  -----------------  -----------------  -----------------
         C            1.078182640149     0.356441309803     0.397704213709    12.000000000000
         C           -1.075776359851     0.356453309803     0.397705213709    12.000000000000
         C            0.001208640149     1.408755309803     0.049271213709    12.000000000000
         C            0.001196640149    -0.731648690197     0.174455213709    12.000000000000
         C            2.360721640149     0.300814309803    -0.411992786291    12.000000000000
         C           -2.358320359851     0.300826309803    -0.411982786291    12.000000000000
         C            3.209508740149    -0.895137290197    -0.065307886291    12.000000000000
         C           -3.218343359851    -0.911023690197    -0.060713786291    12.000000000000
         H            1.315114640149     0.417447309803     1.468909213709     1.007825032230
         H           -1.312701359851     0.417464309803     1.468911213709     1.007825032230
         H            0.001213640149     2.359595309803     0.592333213709     1.007825032230
         H            0.001209640149     1.617439309803    -1.028345786291     1.007825032230
         H            0.001195640149    -1.061760690197    -0.873403786291     1.007825032230
         H            0.001192640149    -1.614006690197     0.822286213709     1.007825032230
         H            2.932570640149     1.224817309803    -0.254264786291     1.007825032230
         H            2.100592640149     0.274090309803    -1.478519786291     1.007825032230
         H           -2.098200359851     0.274132309803    -1.478511786291     1.007825032230
         H           -2.930188359851     1.224813309803    -0.254226786291     1.007825032230
         H            2.673631640149    -1.840864690197    -0.243794786291     1.007825032230
         H            4.138156640149    -0.937953690197    -0.656335786291     1.007825032230
         H            3.505857640149    -0.892411690197     0.995953213709     1.007825032230
         H           -3.503390359851    -0.892468690197     0.995956213709     1.007825032230
         H           -4.135748359851    -0.937957690197    -0.656309786291     1.007825032230
         H           -2.671196359851    -1.840864690197    -0.243857786291     1.007825032230

  Basis Set: AUG-CC-PVTZ
    Blend: AUG-CC-PVTZ
  Basis Set: (AUG-CC-PVTZ AUX)
    Blend: AUG-CC-PVTZ-JKFIT
	 Reference Energy          =    -312.3461507619853705 [Eh]
	 Singles Energy            =      -0.0000000000000000 [Eh]
	 Same-Spin Energy          =      -0.3392110337284238 [Eh]
	 Opposite-Spin Energy      =      -1.2316270807502689 [Eh]
	 Correlation Energy        =      -1.5708381144786927 [Eh]
	 Total Energy              =    -313.9169888764640746 [Eh]

	 ================> DF-SCS-MP2 Energies <==================
	-----------------------------------------------------------
	 SCS Same-Spin Scale       =       0.3333333333333333 [-]
	 SCS Opposite-Spin Scale   =       1.2000000000000000 [-]
	 SCS Same-Spin Energy      =      -0.1130703445761412 [Eh]
	 SCS Opposite-Spin Energy  =      -1.4779524969003226 [Eh]
	 SCS Correlation Energy    =      -1.5910228414764638 [Eh]
	 SCS Total Energy          =    -313.9371736034618152 [Eh]
	-----------------------------------------------------------

  Dipole Moment: [D]
     X:    -0.0005      Y:     0.0743      Z:     0.0816     Total:     0.1104

*** Psi4 exiting successfully. Buy a developer a beer!
