                               Psi4 1.4a3.dev225

  ==> Input File <==

--------------------------------------------------------------------------
#psi4
#
memory 32 gb

molecule  {
0 1
  C        1.0769770     0.3750480     0.4036540
  C       -1.0769820     0.3750600     0.4036550
  C        0.0000030     1.4273620     0.0552210
  C       -0.0000090    -0.7130420     0.1804050
  C        2.3595160     0.3194210    -0.4060430
  C       -2.3595260     0.3194330    -0.4060330
  C        3.2195680    -0.8924030    -0.0547570
  C       -3.2195490    -0.8924170    -0.0547640
  H        1.3139090     0.4360540     1.4748590
  H       -1.3139070     0.4360710     1.4748610
  H        0.0000080     2.3782020     0.5982830
  H        0.0000040     1.6360460    -1.0223960
  H       -0.0000100    -1.0431540    -0.8674540
  H       -0.0000130    -1.5954000     0.8282360
  H        2.9313650     1.2434240    -0.2483150
  H        2.0993870     0.2926970    -1.4725700
  H       -2.0994060     0.2927390    -1.4725620
  H       -2.9313940     1.2434200    -0.2482770
  H        2.6724260    -1.8222580    -0.2378450
  H        4.1369510    -0.9193470    -0.6503860
  H        3.5176743    -0.8729555     1.0501699
  H       -3.5045960    -0.8738620     1.0019060
  H       -4.1369540    -0.9193510    -0.6503600
  H       -2.6724020    -1.8222580    -0.2379080
units angstrom
no_reorient  #important for SAPT in psi4, default
symmetry c1  #important for SAPT in psi4, default
}

set PROPERTIES_ORIGIN ["COM"]
properties('MP2/aug-cc-pvtz', properties = ['dipole'])
--------------------------------------------------------------------------

    Molecular point group: c1
  Charge       = 0
  Multiplicity = 1
  Basis Set: AUG-CC-PVTZ
    Blend: AUG-CC-PVTZ
  Basis Set: (AUG-CC-PVTZ AUX)
    Blend: AUG-CC-PVTZ-JKFIT

    Orbital Energies [Eh]
    ---------------------

    Doubly Occupied:

       1A    -11.218476     2A    -11.218431     3A    -11.215509
       4A    -11.213960     5A    -11.213454     6A    -11.211499
       7A    -11.211082     8A    -11.209223     9A     -1.140717
      10A     -1.045590    11A     -1.006588    12A     -0.897788
      13A     -0.892086    14A     -0.839559    15A     -0.768544
      16A     -0.743740    17A     -0.651832    18A     -0.616363
      19A     -0.612698    20A     -0.582822    21A     -0.572131
      22A     -0.535140    23A     -0.530798    24A     -0.524950
      25A     -0.507570    26A     -0.504486    27A     -0.480522
      28A     -0.463256    29A     -0.442206    30A     -0.441388
      31A     -0.421751    32A     -0.407067

  @DF-RHF Final Energy:  -312.34471604864234

   => Energetics <=

    Nuclear Repulsion Energy =            389.9185108133955282
    One-Electron Energy =               -1193.8440041823746469
    Two-Electron Energy =                 491.5807773203367788
    Total Energy =                       -312.3447160486423400
  Basis Set: (AUG-CC-PVTZ AUX)
    Blend: AUG-CC-PVTZ-RI
    Molecular point group: c1

    Geometry (in Angstrom), charge = 0, multiplicity = 1:

       Center              X                  Y                   Z               Mass
    ------------   -----------------  -----------------  -----------------  -----------------
         C            1.076859984767     0.358132389523     0.396777947450    12.000000000000
         C           -1.077099015233     0.358144389523     0.396778947450    12.000000000000
         C           -0.000114015233     1.410446389523     0.048344947450    12.000000000000
         C           -0.000126015233    -0.729957610477     0.173528947450    12.000000000000
         C            2.359398984767     0.302505389523    -0.412919052550    12.000000000000
         C           -2.359643015233     0.302517389523    -0.412909052550    12.000000000000
         C            3.219450984767    -0.909318610477    -0.061633052550    12.000000000000
         C           -3.219666015233    -0.909332610477    -0.061640052550    12.000000000000
         H            1.313791984767     0.419138389523     1.467982947450     1.007825032230
         H           -1.314024015233     0.419155389523     1.467984947450     1.007825032230
         H           -0.000109015233     2.361286389523     0.591406947450     1.007825032230
         H           -0.000113015233     1.619130389523    -1.029272052550     1.007825032230
         H           -0.000127015233    -1.060069610477    -0.874330052550     1.007825032230
         H           -0.000130015233    -1.612315610477     0.821359947450     1.007825032230
         H            2.931247984767     1.226508389523    -0.255191052550     1.007825032230
         H            2.099269984767     0.275781389523    -1.479446052550     1.007825032230
         H           -2.099523015233     0.275823389523    -1.479438052550     1.007825032230
         H           -2.931511015233     1.226504389523    -0.255153052550     1.007825032230
         H            2.672308984767    -1.839173610477    -0.244721052550     1.007825032230
         H            4.136833984767    -0.936262610477    -0.657262052550     1.007825032230
         H            3.517557284767    -0.889871110477     1.043293847450     1.007825032230
         H           -3.504713015233    -0.890777610477     0.995029947450     1.007825032230
         H           -4.137071015233    -0.936266610477    -0.657236052550     1.007825032230
         H           -2.672519015233    -1.839173610477    -0.244784052550     1.007825032230

  Basis Set: AUG-CC-PVTZ
    Blend: AUG-CC-PVTZ
  Basis Set: (AUG-CC-PVTZ AUX)
    Blend: AUG-CC-PVTZ-JKFIT
	 Reference Energy          =    -312.3447160486423400 [Eh]
	 Singles Energy            =      -0.0000000000000000 [Eh]
	 Same-Spin Energy          =      -0.3390527033464777 [Eh]
	 Opposite-Spin Energy      =      -1.2318187608235891 [Eh]
	 Correlation Energy        =      -1.5708714641700667 [Eh]
	 Total Energy              =    -313.9155875128124080 [Eh]

	 ================> DF-SCS-MP2 Energies <==================
	-----------------------------------------------------------
	 SCS Same-Spin Scale       =       0.3333333333333333 [-]
	 SCS Opposite-Spin Scale   =       1.2000000000000000 [-]
	 SCS Same-Spin Energy      =      -0.1130175677821592 [Eh]
	 SCS Opposite-Spin Energy  =      -1.4781825129883068 [Eh]
	 SCS Correlation Energy    =      -1.5912000807704660 [Eh]
	 SCS Total Energy          =    -313.9359161294128171 [Eh]
	-----------------------------------------------------------

  Dipole Moment: [D]
     X:    -0.0164      Y:     0.0810      Z:     0.0505     Total:     0.0968

*** Psi4 exiting successfully. Buy a developer a beer!
