                               Psi4 1.4a3.dev225

  ==> Input File <==

--------------------------------------------------------------------------
#psi4
#
memory 32 gb

molecule  {
0 1
  C        1.0769770     0.3750480     0.4036540
  C       -1.0769820     0.3750600     0.4036550
  C        0.0696864     1.3592741     0.0777657
  C       -0.0000090    -0.7130420     0.1804050
  C        2.3595160     0.3194210    -0.4060430
  C       -2.3595260     0.3194330    -0.4060330
  C        3.2195680    -0.8924030    -0.0547570
  C       -3.2195490    -0.8924170    -0.0547640
  H        1.3139090     0.4360540     1.4748590
  H       -1.3139070     0.4360710     1.4748610
  H        0.0000080     2.3782020     0.5982830
  H        0.0000040     1.6360460    -1.0223960
  H       -0.0000100    -1.0431540    -0.8674540
  H       -0.0000130    -1.5954000     0.8282360
  H        2.9313650     1.2434240    -0.2483150
  H        2.0993870     0.2926970    -1.4725700
  H       -2.0994060     0.2927390    -1.4725620
  H       -2.9313940     1.2434200    -0.2482770
  H        2.6724260    -1.8222580    -0.2378450
  H        4.1369510    -0.9193470    -0.6503860
  H        3.5046520    -0.8738050     1.0019030
  H       -3.5045960    -0.8738620     1.0019060
  H       -4.1369540    -0.9193510    -0.6503600
  H       -2.6724020    -1.8222580    -0.2379080
units angstrom
no_reorient  #important for SAPT in psi4, default
symmetry c1  #important for SAPT in psi4, default
}

set PROPERTIES_ORIGIN ["COM"]
properties('MP2/aug-cc-pvtz', properties = ['dipole'])
--------------------------------------------------------------------------

    Molecular point group: c1
  Charge       = 0
  Multiplicity = 1
  Basis Set: AUG-CC-PVTZ
    Blend: AUG-CC-PVTZ
  Basis Set: (AUG-CC-PVTZ AUX)
    Blend: AUG-CC-PVTZ-JKFIT

    Orbital Energies [Eh]
    ---------------------

    Doubly Occupied:

       1A    -11.216906     2A    -11.215831     3A    -11.214900
       4A    -11.214148     5A    -11.213191     6A    -11.212518
       7A    -11.210240     8A    -11.209450     9A     -1.154731
      10A     -1.047635    11A     -1.010526    12A     -0.904626
      13A     -0.887141    14A     -0.841579    15A     -0.772788
      16A     -0.741475    17A     -0.651746    18A     -0.617877
      19A     -0.615390    20A     -0.584781    21A     -0.578701
      22A     -0.540006    23A     -0.526680    24A     -0.520361
      25A     -0.508564    26A     -0.505259    27A     -0.481628
      28A     -0.465515    29A     -0.453342    30A     -0.433341
      31A     -0.421697    32A     -0.405364

  @DF-RHF Final Energy:  -312.33572366519445

   => Energetics <=

    Nuclear Repulsion Energy =            391.4283495606141514
    One-Electron Energy =               -1196.7722730808736742
    Two-Electron Energy =                 493.0081998550650724
    Total Energy =                       -312.3357236651944504
  Basis Set: (AUG-CC-PVTZ AUX)
    Blend: AUG-CC-PVTZ-RI
    Molecular point group: c1

    Geometry (in Angstrom), charge = 0, multiplicity = 1:

       Center              X                  Y                   Z               Mass
    ------------   -----------------  -----------------  -----------------  -----------------
         C            1.069519292432     0.365427011459     0.394798982784    12.000000000000
         C           -1.084439707568     0.365439011459     0.394799982784    12.000000000000
         C            0.062228692432     1.349653111459     0.068910682784    12.000000000000
         C           -0.007466707568    -0.722662988541     0.171549982784    12.000000000000
         C            2.352058292432     0.309800011459    -0.414898017216    12.000000000000
         C           -2.366983707568     0.309812011459    -0.414888017216    12.000000000000
         C            3.212110292432    -0.902023988541    -0.063612017216    12.000000000000
         C           -3.227006707568    -0.902037988541    -0.063619017216    12.000000000000
         H            1.306451292432     0.426433011459     1.466003982784     1.007825032230
         H           -1.321364707568     0.426450011459     1.466005982784     1.007825032230
         H           -0.007449707568     2.368581011459     0.589427982784     1.007825032230
         H           -0.007453707568     1.626425011459    -1.031251017216     1.007825032230
         H           -0.007467707568    -1.052774988541    -0.876309017216     1.007825032230
         H           -0.007470707568    -1.605020988541     0.819380982784     1.007825032230
         H            2.923907292432     1.233803011459    -0.257170017216     1.007825032230
         H            2.091929292432     0.283076011459    -1.481425017216     1.007825032230
         H           -2.106863707568     0.283118011459    -1.481417017216     1.007825032230
         H           -2.938851707568     1.233799011459    -0.257132017216     1.007825032230
         H            2.664968292432    -1.831878988541    -0.246700017216     1.007825032230
         H            4.129493292432    -0.928967988541    -0.659241017216     1.007825032230
         H            3.497194292432    -0.883425988541     0.993047982784     1.007825032230
         H           -3.512053707568    -0.883482988541     0.993050982784     1.007825032230
         H           -4.144411707568    -0.928971988541    -0.659215017216     1.007825032230
         H           -2.679859707568    -1.831878988541    -0.246763017216     1.007825032230

  Basis Set: AUG-CC-PVTZ
    Blend: AUG-CC-PVTZ
  Basis Set: (AUG-CC-PVTZ AUX)
    Blend: AUG-CC-PVTZ-JKFIT
	 Reference Energy          =    -312.3357236651944504 [Eh]
	 Singles Energy            =      -0.0000000000000000 [Eh]
	 Same-Spin Energy          =      -0.3399379894371109 [Eh]
	 Opposite-Spin Energy      =      -1.2322159374327579 [Eh]
	 Correlation Energy        =      -1.5721539268698688 [Eh]
	 Total Energy              =    -313.9078775920643238 [Eh]

	 ================> DF-SCS-MP2 Energies <==================
	-----------------------------------------------------------
	 SCS Same-Spin Scale       =       0.3333333333333333 [-]
	 SCS Opposite-Spin Scale   =       1.2000000000000000 [-]
	 SCS Same-Spin Energy      =      -0.1133126631457036 [Eh]
	 SCS Opposite-Spin Energy  =      -1.4786591249193095 [Eh]
	 SCS Correlation Energy    =      -1.5919717880650130 [Eh]
	 SCS Total Energy          =    -313.9276954532594459 [Eh]
	-----------------------------------------------------------

  Dipole Moment: [D]
     X:    -0.0385      Y:     0.0137      Z:     0.0678     Total:     0.0792

*** Psi4 exiting successfully. Buy a developer a beer!
