                               Psi4 1.4a3.dev225

  ==> Input File <==

--------------------------------------------------------------------------
#psi4
#
memory 32 gb

molecule  {
0 1
  C        1.0961983     0.3564698     0.3998422
  C       -1.0769820     0.3750600     0.4036550
  C        0.0000030     1.4273620     0.0552210
  C       -0.0000090    -0.7130420     0.1804050
  C        2.3595160     0.3194210    -0.4060430
  C       -2.3595260     0.3194330    -0.4060330
  C        3.2195680    -0.8924030    -0.0547570
  C       -3.2195490    -0.8924170    -0.0547640
  H        1.3139090     0.4360540     1.4748590
  H       -1.3139070     0.4360710     1.4748610
  H        0.0000080     2.3782020     0.5982830
  H        0.0000040     1.6360460    -1.0223960
  H       -0.0000100    -1.0431540    -0.8674540
  H       -0.0000130    -1.5954000     0.8282360
  H        2.9313650     1.2434240    -0.2483150
  H        2.0993870     0.2926970    -1.4725700
  H       -2.0994060     0.2927390    -1.4725620
  H       -2.9313940     1.2434200    -0.2482770
  H        2.6724260    -1.8222580    -0.2378450
  H        4.1369510    -0.9193470    -0.6503860
  H        3.5046520    -0.8738050     1.0019030
  H       -3.5045960    -0.8738620     1.0019060
  H       -4.1369540    -0.9193510    -0.6503600
  H       -2.6724020    -1.8222580    -0.2379080
units angstrom
no_reorient  #important for SAPT in psi4, default
symmetry c1  #important for SAPT in psi4, default
}

set PROPERTIES_ORIGIN ["COM"]
properties('MP2/aug-cc-pvtz', properties = ['dipole'])
--------------------------------------------------------------------------

    Molecular point group: c1
  Charge       = 0
  Multiplicity = 1
  Basis Set: AUG-CC-PVTZ
    Blend: AUG-CC-PVTZ
  Basis Set: (AUG-CC-PVTZ AUX)
    Blend: AUG-CC-PVTZ-JKFIT

    Orbital Energies [Eh]
    ---------------------

    Doubly Occupied:

       1A    -11.218556     2A    -11.218152     3A    -11.213535
       4A    -11.212944     5A    -11.212099     6A    -11.211809
       7A    -11.209190     8A    -11.209052     9A     -1.138315
      10A     -1.047808    11A     -1.007311    12A     -0.899762
      13A     -0.890828    14A     -0.841628    15A     -0.769251
      16A     -0.743393    17A     -0.650373    18A     -0.618008
      19A     -0.613720    20A     -0.584642    21A     -0.572211
      22A     -0.536989    23A     -0.530288    24A     -0.524593
      25A     -0.508463    26A     -0.505416    27A     -0.482545
      28A     -0.465543    29A     -0.443284    30A     -0.439927
      31A     -0.419021    32A     -0.406486

  @DF-RHF Final Energy:  -312.34596806041532

   => Energetics <=

    Nuclear Repulsion Energy =            390.0381559161559721
    One-Electron Energy =               -1194.0779611812311032
    Two-Electron Energy =                 491.6938372046597578
    Total Energy =                       -312.3459680604153164
  Basis Set: (AUG-CC-PVTZ AUX)
    Blend: AUG-CC-PVTZ-RI
    Molecular point group: c1

    Geometry (in Angstrom), charge = 0, multiplicity = 1:

       Center              X                  Y                   Z               Mass
    ------------   -----------------  -----------------  -----------------  -----------------
         C            1.094141208860     0.341550123945     0.393807940281    12.000000000000
         C           -1.079039091140     0.360140323945     0.397620740281    12.000000000000
         C           -0.002054091140     1.412442323945     0.049186740281    12.000000000000
         C           -0.002066091140    -0.727961676055     0.174370740281    12.000000000000
         C            2.357458908860     0.304501323945    -0.412077259719    12.000000000000
         C           -2.361583091140     0.304513323945    -0.412067259719    12.000000000000
         C            3.217510908860    -0.907322676055    -0.060791259719    12.000000000000
         C           -3.221606091140    -0.907336676055    -0.060798259719    12.000000000000
         H            1.311851908860     0.421134323945     1.468824740281     1.007825032230
         H           -1.315964091140     0.421151323945     1.468826740281     1.007825032230
         H           -0.002049091140     2.363282323945     0.592248740281     1.007825032230
         H           -0.002053091140     1.621126323945    -1.028430259719     1.007825032230
         H           -0.002067091140    -1.058073676055    -0.873488259719     1.007825032230
         H           -0.002070091140    -1.610319676055     0.822201740281     1.007825032230
         H            2.929307908860     1.228504323945    -0.254349259719     1.007825032230
         H            2.097329908860     0.277777323945    -1.478604259719     1.007825032230
         H           -2.101463091140     0.277819323945    -1.478596259719     1.007825032230
         H           -2.933451091140     1.228500323945    -0.254311259719     1.007825032230
         H            2.670368908860    -1.837177676055    -0.243879259719     1.007825032230
         H            4.134893908860    -0.934266676055    -0.656420259719     1.007825032230
         H            3.502594908860    -0.888724676055     0.995868740281     1.007825032230
         H           -3.506653091140    -0.888781676055     0.995871740281     1.007825032230
         H           -4.139011091140    -0.934270676055    -0.656394259719     1.007825032230
         H           -2.674459091140    -1.837177676055    -0.243942259719     1.007825032230

  Basis Set: AUG-CC-PVTZ
    Blend: AUG-CC-PVTZ
  Basis Set: (AUG-CC-PVTZ AUX)
    Blend: AUG-CC-PVTZ-JKFIT
	 Reference Energy          =    -312.3459680604153164 [Eh]
	 Singles Energy            =      -0.0000000000000000 [Eh]
	 Same-Spin Energy          =      -0.3391354870572482 [Eh]
	 Opposite-Spin Energy      =      -1.2317073064622810 [Eh]
	 Correlation Energy        =      -1.5708427935195290 [Eh]
	 Total Energy              =    -313.9168108539348623 [Eh]

	 ================> DF-SCS-MP2 Energies <==================
	-----------------------------------------------------------
	 SCS Same-Spin Scale       =       0.3333333333333333 [-]
	 SCS Opposite-Spin Scale   =       1.2000000000000000 [-]
	 SCS Same-Spin Energy      =      -0.1130451623524160 [Eh]
	 SCS Opposite-Spin Energy  =      -1.4780487677547371 [Eh]
	 SCS Correlation Energy    =      -1.5910939301071532 [Eh]
	 SCS Total Energy          =    -313.9370619905224657 [Eh]
	-----------------------------------------------------------

  Dipole Moment: [D]
     X:     0.0138      Y:     0.0726      Z:     0.0727     Total:     0.1037

*** Psi4 exiting successfully. Buy a developer a beer!
