                               Psi4 1.4a3.dev225

  ==> Input File <==

--------------------------------------------------------------------------
#psi4
#
memory 32 gb

molecule  {
0 1
  C        1.0769770     0.3750480     0.4036540
  C       -1.0769820     0.3750600     0.4036550
  C        0.0000030     1.4273620     0.0552210
  C       -0.0000090    -0.7130420     0.1804050
  C        2.3595160     0.3194210    -0.4060430
  C       -2.3595260     0.3194330    -0.4060330
  C        3.2195680    -0.8924030    -0.0547570
  C       -3.1913877    -0.8527352    -0.0662662
  H        1.3139090     0.4360540     1.4748590
  H       -1.3139070     0.4360710     1.4748610
  H        0.0000080     2.3782020     0.5982830
  H        0.0000040     1.6360460    -1.0223960
  H       -0.0000100    -1.0431540    -0.8674540
  H       -0.0000130    -1.5954000     0.8282360
  H        2.9313650     1.2434240    -0.2483150
  H        2.0993870     0.2926970    -1.4725700
  H       -2.0994060     0.2927390    -1.4725620
  H       -2.9313940     1.2434200    -0.2482770
  H        2.6724260    -1.8222580    -0.2378450
  H        4.1369510    -0.9193470    -0.6503860
  H        3.5046520    -0.8738050     1.0019030
  H       -3.5045960    -0.8738620     1.0019060
  H       -4.1369540    -0.9193510    -0.6503600
  H       -2.6724020    -1.8222580    -0.2379080
units angstrom
no_reorient  #important for SAPT in psi4, default
symmetry c1  #important for SAPT in psi4, default
}

set PROPERTIES_ORIGIN ["COM"]
properties('MP2/aug-cc-pvtz', properties = ['dipole'])
--------------------------------------------------------------------------

    Molecular point group: c1
  Charge       = 0
  Multiplicity = 1
  Basis Set: AUG-CC-PVTZ
    Blend: AUG-CC-PVTZ
  Basis Set: (AUG-CC-PVTZ AUX)
    Blend: AUG-CC-PVTZ-JKFIT

    Orbital Energies [Eh]
    ---------------------

    Doubly Occupied:

       1A    -11.218561     2A    -11.218442     3A    -11.213451
       4A    -11.212123     5A    -11.211563     6A    -11.211096
       7A    -11.211058     8A    -11.209211     9A     -1.141418
      10A     -1.050734    11A     -1.011179    12A     -0.897883
      13A     -0.892098    14A     -0.838637    15A     -0.769584
      16A     -0.744128    17A     -0.652057    18A     -0.617868
      19A     -0.613570    20A     -0.584868    21A     -0.574108
      22A     -0.540923    23A     -0.530828    24A     -0.527119
      25A     -0.505363    26A     -0.501879    27A     -0.478304
      28A     -0.462567    29A     -0.443048    30A     -0.441644
      31A     -0.422211    32A     -0.406979

  @DF-RHF Final Energy:  -312.34376950292722

   => Energetics <=

    Nuclear Repulsion Energy =            390.8133513236134604
    One-Electron Energy =               -1195.6052429214410040
    Two-Electron Energy =                 492.4481220949003273
    Total Energy =                       -312.3437695029272163
  Basis Set: (AUG-CC-PVTZ AUX)
    Blend: AUG-CC-PVTZ-RI
    Molecular point group: c1

    Geometry (in Angstrom), charge = 0, multiplicity = 1:

       Center              X                  Y                   Z               Mass
    ------------   -----------------  -----------------  -----------------  -----------------
         C            1.073963121274     0.353893151149     0.398442791652    12.000000000000
         C           -1.079995878726     0.353905151149     0.398443791652    12.000000000000
         C           -0.003010878726     1.406207151149     0.050009791652    12.000000000000
         C           -0.003022878726    -0.734196848851     0.175193791652    12.000000000000
         C            2.356502121274     0.298266151149    -0.411254208348    12.000000000000
         C           -2.362539878726     0.298278151149    -0.411244208348    12.000000000000
         C            3.216554121274    -0.913557848851    -0.059968208348    12.000000000000
         C           -3.194401578726    -0.873890048851    -0.071477408348    12.000000000000
         H            1.310895121274     0.414899151149     1.469647791652     1.007825032230
         H           -1.316920878726     0.414916151149     1.469649791652     1.007825032230
         H           -0.003005878726     2.357047151149     0.593071791652     1.007825032230
         H           -0.003009878726     1.614891151149    -1.027607208348     1.007825032230
         H           -0.003023878726    -1.064308848851    -0.872665208348     1.007825032230
         H           -0.003026878726    -1.616554848851     0.823024791652     1.007825032230
         H            2.928351121274     1.222269151149    -0.253526208348     1.007825032230
         H            2.096373121274     0.271542151149    -1.477781208348     1.007825032230
         H           -2.102419878726     0.271584151149    -1.477773208348     1.007825032230
         H           -2.934407878726     1.222265151149    -0.253488208348     1.007825032230
         H            2.669412121274    -1.843412848851    -0.243056208348     1.007825032230
         H            4.133937121274    -0.940501848851    -0.655597208348     1.007825032230
         H            3.501638121274    -0.894959848851     0.996691791652     1.007825032230
         H           -3.507609878726    -0.895016848851     0.996694791652     1.007825032230
         H           -4.139967878726    -0.940505848851    -0.655571208348     1.007825032230
         H           -2.675415878726    -1.843412848851    -0.243119208348     1.007825032230

  Basis Set: AUG-CC-PVTZ
    Blend: AUG-CC-PVTZ
  Basis Set: (AUG-CC-PVTZ AUX)
    Blend: AUG-CC-PVTZ-JKFIT
	 Reference Energy          =    -312.3437695029272163 [Eh]
	 Singles Energy            =      -0.0000000000000000 [Eh]
	 Same-Spin Energy          =      -0.3394630612255253 [Eh]
	 Opposite-Spin Energy      =      -1.2318828560925352 [Eh]
	 Correlation Energy        =      -1.5713459173180606 [Eh]
	 Total Energy              =    -313.9151154202452858 [Eh]

	 ================> DF-SCS-MP2 Energies <==================
	-----------------------------------------------------------
	 SCS Same-Spin Scale       =       0.3333333333333333 [-]
	 SCS Opposite-Spin Scale   =       1.2000000000000000 [-]
	 SCS Same-Spin Energy      =      -0.1131543537418418 [Eh]
	 SCS Opposite-Spin Energy  =      -1.4782594273110423 [Eh]
	 SCS Correlation Energy    =      -1.5914137810528841 [Eh]
	 SCS Total Energy          =    -313.9351832839801091 [Eh]
	-----------------------------------------------------------

  Dipole Moment: [D]
     X:     0.0037      Y:     0.0767      Z:     0.0789     Total:     0.1101

*** Psi4 exiting successfully. Buy a developer a beer!
