                               Psi4 1.4a3.dev225

  ==> Input File <==

--------------------------------------------------------------------------
#psi4
#
memory 32 gb

molecule  {
0 1
  C        1.0769770     0.3750480     0.4036540
  C       -1.0769820     0.3750600     0.4036550
  C        0.0000030     1.4273620     0.0552210
  C       -0.0000090    -0.7130420     0.1804050
  C        2.3595160     0.3194210    -0.4060430
  C       -2.3595260     0.3194330    -0.4060330
  C        3.2195680    -0.8924030    -0.0547570
  C       -3.2195490    -0.8924170    -0.0547640
  H        1.3139090     0.4360540     1.4748590
  H       -1.3139070     0.4360710     1.4748610
  H        0.0000080     2.3782020     0.5982830
  H        0.0000040     1.6360460    -1.0223960
  H       -0.0000100    -1.0431540    -0.8674540
  H       -0.0000130    -1.5954000     0.8282360
  H        2.9574048     1.2854995    -0.2411327
  H        2.0993870     0.2926970    -1.4725700
  H       -2.0994060     0.2927390    -1.4725620
  H       -2.9313940     1.2434200    -0.2482770
  H        2.6724260    -1.8222580    -0.2378450
  H        4.1369510    -0.9193470    -0.6503860
  H        3.5046520    -0.8738050     1.0019030
  H       -3.5045960    -0.8738620     1.0019060
  H       -4.1369540    -0.9193510    -0.6503600
  H       -2.6724020    -1.8222580    -0.2379080
units angstrom
no_reorient  #important for SAPT in psi4, default
symmetry c1  #important for SAPT in psi4, default
}

set PROPERTIES_ORIGIN ["COM"]
properties('MP2/aug-cc-pvtz', properties = ['dipole'])
--------------------------------------------------------------------------

    Molecular point group: c1
  Charge       = 0
  Multiplicity = 1
  Basis Set: AUG-CC-PVTZ
    Blend: AUG-CC-PVTZ
  Basis Set: (AUG-CC-PVTZ AUX)
    Blend: AUG-CC-PVTZ-JKFIT

    Orbital Energies [Eh]
    ---------------------

    Doubly Occupied:

       1A    -11.219779     2A    -11.218769     3A    -11.218593
       4A    -11.213563     5A    -11.211891     6A    -11.211147
       7A    -11.209786     8A    -11.209319     9A     -1.140815
      10A     -1.045260    11A     -1.006819    12A     -0.899373
      13A     -0.892119    14A     -0.839855    15A     -0.767118
      16A     -0.743962    17A     -0.651777    18A     -0.615700
      19A     -0.610808    20A     -0.583785    21A     -0.572501
      22A     -0.537250    23A     -0.530972    24A     -0.525115
      25A     -0.507486    26A     -0.504425    27A     -0.481177
      28A     -0.464653    29A     -0.442464    30A     -0.439933
      31A     -0.421453    32A     -0.406865

  @DF-RHF Final Energy:  -312.34467455580858

   => Energetics <=

    Nuclear Repulsion Energy =            389.8854540839660672
    One-Electron Energy =               -1193.7711919079170002
    Two-Electron Energy =                 491.5410632681422953
    Total Energy =                       -312.3446745558085809
  Basis Set: (AUG-CC-PVTZ AUX)
    Blend: AUG-CC-PVTZ-RI
    Molecular point group: c1

    Geometry (in Angstrom), charge = 0, multiplicity = 1:

       Center              X                  Y                   Z               Mass
    ------------   -----------------  -----------------  -----------------  -----------------
         C            1.076742978400     0.357761834156     0.397147231858    12.000000000000
         C           -1.077216021600     0.357773834156     0.397148231858    12.000000000000
         C           -0.000231021600     1.410075834156     0.048714231858    12.000000000000
         C           -0.000243021600    -0.730328165844     0.173898231858    12.000000000000
         C            2.359281978400     0.302134834156    -0.412549768142    12.000000000000
         C           -2.359760021600     0.302146834156    -0.412539768142    12.000000000000
         C            3.219333978400    -0.909689165844    -0.061263768142    12.000000000000
         C           -3.219783021600    -0.909703165844    -0.061270768142    12.000000000000
         H            1.313674978400     0.418767834156     1.468352231858     1.007825032230
         H           -1.314141021600     0.418784834156     1.468354231858     1.007825032230
         H           -0.000226021600     2.360915834156     0.591776231858     1.007825032230
         H           -0.000230021600     1.618759834156    -1.028902768142     1.007825032230
         H           -0.000244021600    -1.060440165844    -0.873960768142     1.007825032230
         H           -0.000247021600    -1.612686165844     0.821729231858     1.007825032230
         H            2.957170778400     1.268213334156    -0.247639468142     1.007825032230
         H            2.099152978400     0.275410834156    -1.479076768142     1.007825032230
         H           -2.099640021600     0.275452834156    -1.479068768142     1.007825032230
         H           -2.931628021600     1.226133834156    -0.254783768142     1.007825032230
         H            2.672191978400    -1.839544165844    -0.244351768142     1.007825032230
         H            4.136716978400    -0.936633165844    -0.656892768142     1.007825032230
         H            3.504417978400    -0.891091165844     0.995396231858     1.007825032230
         H           -3.504830021600    -0.891148165844     0.995399231858     1.007825032230
         H           -4.137188021600    -0.936637165844    -0.656866768142     1.007825032230
         H           -2.672636021600    -1.839544165844    -0.244414768142     1.007825032230

  Basis Set: AUG-CC-PVTZ
    Blend: AUG-CC-PVTZ
  Basis Set: (AUG-CC-PVTZ AUX)
    Blend: AUG-CC-PVTZ-JKFIT
	 Reference Energy          =    -312.3446745558085809 [Eh]
	 Singles Energy            =      -0.0000000000000000 [Eh]
	 Same-Spin Energy          =      -0.3390794269342833 [Eh]
	 Opposite-Spin Energy      =      -1.2318681493223980 [Eh]
	 Correlation Energy        =      -1.5709475762566814 [Eh]
	 Total Energy              =    -313.9156221320652662 [Eh]

	 ================> DF-SCS-MP2 Energies <==================
	-----------------------------------------------------------
	 SCS Same-Spin Scale       =       0.3333333333333333 [-]
	 SCS Opposite-Spin Scale   =       1.2000000000000000 [-]
	 SCS Same-Spin Energy      =      -0.1130264756447611 [Eh]
	 SCS Opposite-Spin Energy  =      -1.4782417791868776 [Eh]
	 SCS Correlation Energy    =      -1.5912682548316386 [Eh]
	 SCS Total Energy          =    -313.9359428106401992 [Eh]
	-----------------------------------------------------------

  Dipole Moment: [D]
     X:    -0.0277      Y:     0.0373      Z:     0.0849     Total:     0.0968

*** Psi4 exiting successfully. Buy a developer a beer!
