                               Psi4 1.4a3.dev225

  ==> Input File <==

--------------------------------------------------------------------------
#psi4
#
memory 32 gb

molecule  {
0 1
  C        1.0769770     0.3750480     0.4036540
  C       -1.0769820     0.3750600     0.4036550
  C        0.0000030     1.4273620     0.0552210
  C       -0.0000090    -0.7130420     0.1804050
  C        2.1905123     0.3267511    -0.2993470
  C       -2.3595260     0.3194330    -0.4060330
  C        3.2195680    -0.8924030    -0.0547570
  C       -3.2195490    -0.8924170    -0.0547640
  H        1.3139090     0.4360540     1.4748590
  H       -1.3139070     0.4360710     1.4748610
  H        0.0000080     2.3782020     0.5982830
  H        0.0000040     1.6360460    -1.0223960
  H       -0.0000100    -1.0431540    -0.8674540
  H       -0.0000130    -1.5954000     0.8282360
  H        2.9313650     1.2434240    -0.2483150
  H        2.0993870     0.2926970    -1.4725700
  H       -2.0994060     0.2927390    -1.4725620
  H       -2.9313940     1.2434200    -0.2482770
  H        2.6724260    -1.8222580    -0.2378450
  H        4.1369510    -0.9193470    -0.6503860
  H        3.5046520    -0.8738050     1.0019030
  H       -3.5045960    -0.8738620     1.0019060
  H       -4.1369540    -0.9193510    -0.6503600
  H       -2.6724020    -1.8222580    -0.2379080
units angstrom
no_reorient  #important for SAPT in psi4, default
symmetry c1  #important for SAPT in psi4, default
}

set PROPERTIES_ORIGIN ["COM"]
properties('MP2/aug-cc-pvtz', properties = ['dipole'])
--------------------------------------------------------------------------

    Molecular point group: c1
  Charge       = 0
  Multiplicity = 1
  Basis Set: AUG-CC-PVTZ
    Blend: AUG-CC-PVTZ
  Basis Set: (AUG-CC-PVTZ AUX)
    Blend: AUG-CC-PVTZ-JKFIT

    Orbital Energies [Eh]
    ---------------------

    Doubly Occupied:

       1A    -11.223065     2A    -11.219782     3A    -11.214329
       4A    -11.214082     5A    -11.213722     6A    -11.213523
       7A    -11.209973     8A    -11.208927     9A     -1.156039
      10A     -1.057261    11A     -1.002270    12A     -0.913135
      13A     -0.895479    14A     -0.848509    15A     -0.759534
      16A     -0.747660    17A     -0.656184    18A     -0.627323
      19A     -0.616435    20A     -0.578966    21A     -0.573312
      22A     -0.546165    23A     -0.533388    24A     -0.532062
      25A     -0.511994    26A     -0.501277    27A     -0.484094
      28A     -0.458039    29A     -0.450604    30A     -0.431795
      31A     -0.403814    32A     -0.401629

  @DF-RHF Final Energy:  -312.29683753482067

   => Energetics <=

    Nuclear Repulsion Energy =            392.8083954797647834
    One-Electron Energy =               -1199.4017173116346839
    Two-Electron Energy =                 494.2964842970491759
    Total Energy =                       -312.2968375348206678
  Basis Set: (AUG-CC-PVTZ AUX)
    Blend: AUG-CC-PVTZ-RI
    Molecular point group: c1

    Geometry (in Angstrom), charge = 0, multiplicity = 1:

       Center              X                  Y                   Z               Mass
    ------------   -----------------  -----------------  -----------------  -----------------
         C            1.095064354441     0.357355534255     0.385792839693    12.000000000000
         C           -1.058894645559     0.357367534255     0.385793839693    12.000000000000
         C            0.018090354441     1.409669534255     0.037359839693    12.000000000000
         C            0.018078354441    -0.730734465745     0.162543839693    12.000000000000
         C            2.208599654441     0.309058634255    -0.317208160307    12.000000000000
         C           -2.341438645559     0.301740534255    -0.423894160307    12.000000000000
         C            3.237655354441    -0.910095465745    -0.072618160307    12.000000000000
         C           -3.201461645559    -0.910109465745    -0.072625160307    12.000000000000
         H            1.331996354441     0.418361534255     1.456997839693     1.007825032230
         H           -1.295819645559     0.418378534255     1.456999839693     1.007825032230
         H            0.018095354441     2.360509534255     0.580421839693     1.007825032230
         H            0.018091354441     1.618353534255    -1.040257160307     1.007825032230
         H            0.018077354441    -1.060846465745    -0.885315160307     1.007825032230
         H            0.018074354441    -1.613092465745     0.810374839693     1.007825032230
         H            2.949452354441     1.225731534255    -0.266176160307     1.007825032230
         H            2.117474354441     0.275004534255    -1.490431160307     1.007825032230
         H           -2.081318645559     0.275046534255    -1.490423160307     1.007825032230
         H           -2.913306645559     1.225727534255    -0.266138160307     1.007825032230
         H            2.690513354441    -1.839950465745    -0.255706160307     1.007825032230
         H            4.155038354441    -0.937039465745    -0.668247160307     1.007825032230
         H            3.522739354441    -0.891497465745     0.984041839693     1.007825032230
         H           -3.486508645559    -0.891554465745     0.984044839693     1.007825032230
         H           -4.118866645559    -0.937043465745    -0.668221160307     1.007825032230
         H           -2.654314645559    -1.839950465745    -0.255769160307     1.007825032230

  Basis Set: AUG-CC-PVTZ
    Blend: AUG-CC-PVTZ
  Basis Set: (AUG-CC-PVTZ AUX)
    Blend: AUG-CC-PVTZ-JKFIT
	 Reference Energy          =    -312.2968375348206678 [Eh]
	 Singles Energy            =      -0.0000000000000000 [Eh]
	 Same-Spin Energy          =      -0.3418892243849267 [Eh]
	 Opposite-Spin Energy      =      -1.2357167431780156 [Eh]
	 Correlation Energy        =      -1.5776059675629424 [Eh]
	 Total Energy              =    -313.8744435023835990 [Eh]

	 ================> DF-SCS-MP2 Energies <==================
	-----------------------------------------------------------
	 SCS Same-Spin Scale       =       0.3333333333333333 [-]
	 SCS Opposite-Spin Scale   =       1.2000000000000000 [-]
	 SCS Same-Spin Energy      =      -0.1139630747949756 [Eh]
	 SCS Opposite-Spin Energy  =      -1.4828600918136188 [Eh]
	 SCS Correlation Energy    =      -1.5968231666085944 [Eh]
	 SCS Total Energy          =    -313.8936607014292690 [Eh]
	-----------------------------------------------------------

  Dipole Moment: [D]
     X:    -0.1233      Y:     0.0526      Z:     0.1412     Total:     0.1947

*** Psi4 exiting successfully. Buy a developer a beer!
