                               Psi4 1.4a3.dev225

  ==> Input File <==

--------------------------------------------------------------------------
#psi4
#
memory 32 gb

molecule  {
0 1
  C        1.0769770     0.3750480     0.4036540
  C       -1.0769820     0.3750600     0.4036550
  C        0.0000030     1.4273620     0.0552210
  C        0.0139130    -0.7271079     0.1775191
  C        2.3595160     0.3194210    -0.4060430
  C       -2.3595260     0.3194330    -0.4060330
  C        3.2195680    -0.8924030    -0.0547570
  C       -3.2195490    -0.8924170    -0.0547640
  H        1.3139090     0.4360540     1.4748590
  H       -1.3139070     0.4360710     1.4748610
  H        0.0000080     2.3782020     0.5982830
  H        0.0000040     1.6360460    -1.0223960
  H       -0.0000100    -1.0431540    -0.8674540
  H       -0.0000130    -1.5954000     0.8282360
  H        2.9313650     1.2434240    -0.2483150
  H        2.0993870     0.2926970    -1.4725700
  H       -2.0994060     0.2927390    -1.4725620
  H       -2.9313940     1.2434200    -0.2482770
  H        2.6724260    -1.8222580    -0.2378450
  H        4.1369510    -0.9193470    -0.6503860
  H        3.5046520    -0.8738050     1.0019030
  H       -3.5045960    -0.8738620     1.0019060
  H       -4.1369540    -0.9193510    -0.6503600
  H       -2.6724020    -1.8222580    -0.2379080
units angstrom
no_reorient  #important for SAPT in psi4, default
symmetry c1  #important for SAPT in psi4, default
}

set PROPERTIES_ORIGIN ["COM"]
properties('MP2/aug-cc-pvtz', properties = ['dipole'])
--------------------------------------------------------------------------

    Molecular point group: c1
  Charge       = 0
  Multiplicity = 1
  Basis Set: AUG-CC-PVTZ
    Blend: AUG-CC-PVTZ
  Basis Set: (AUG-CC-PVTZ AUX)
    Blend: AUG-CC-PVTZ-JKFIT

    Orbital Energies [Eh]
    ---------------------

    Doubly Occupied:

       1A    -11.219317     2A    -11.218808     3A    -11.213346
       4A    -11.213083     5A    -11.210894     6A    -11.210690
       7A    -11.209103     8A    -11.209056     9A     -1.138262
      10A     -1.045695    11A     -1.006859    12A     -0.898749
      13A     -0.892739    14A     -0.840848    15A     -0.768312
      16A     -0.744226    17A     -0.652012    18A     -0.616479
      19A     -0.612114    20A     -0.584671    21A     -0.572109
      22A     -0.536835    23A     -0.533264    24A     -0.524391
      25A     -0.506889    26A     -0.505363    27A     -0.482270
      28A     -0.464142    29A     -0.443465    30A     -0.439898
      31A     -0.422149    32A     -0.404617

  @DF-RHF Final Energy:  -312.34648365213729

   => Energetics <=

    Nuclear Repulsion Energy =            389.8935564304233594
    One-Electron Energy =               -1193.7987717917894770
    Two-Electron Energy =                 491.5587317092288231
    Total Energy =                       -312.3464836521372945
  Basis Set: (AUG-CC-PVTZ AUX)
    Blend: AUG-CC-PVTZ-RI
    Molecular point group: c1

    Geometry (in Angstrom), charge = 0, multiplicity = 1:

       Center              X                  Y                   Z               Mass
    ------------   -----------------  -----------------  -----------------  -----------------
         C            1.075487057010     0.359645403070     0.397520647482    12.000000000000
         C           -1.078471942990     0.359657403070     0.397521647482    12.000000000000
         C           -0.001486942990     1.411959403070     0.049087647482    12.000000000000
         C            0.012423057010    -0.742510496930     0.171385747482    12.000000000000
         C            2.358026057010     0.304018403070    -0.412176352518    12.000000000000
         C           -2.361015942990     0.304030403070    -0.412166352518    12.000000000000
         C            3.218078057010    -0.907805596930    -0.060890352518    12.000000000000
         C           -3.221038942990    -0.907819596930    -0.060897352518    12.000000000000
         H            1.312419057010     0.420651403070     1.468725647482     1.007825032230
         H           -1.315396942990     0.420668403070     1.468727647482     1.007825032230
         H           -0.001481942990     2.362799403070     0.592149647482     1.007825032230
         H           -0.001485942990     1.620643403070    -1.028529352518     1.007825032230
         H           -0.001499942990    -1.058556596930    -0.873587352518     1.007825032230
         H           -0.001502942990    -1.610802596930     0.822102647482     1.007825032230
         H            2.929875057010     1.228021403070    -0.254448352518     1.007825032230
         H            2.097897057010     0.277294403070    -1.478703352518     1.007825032230
         H           -2.100895942990     0.277336403070    -1.478695352518     1.007825032230
         H           -2.932883942990     1.228017403070    -0.254410352518     1.007825032230
         H            2.670936057010    -1.837660596930    -0.243978352518     1.007825032230
         H            4.135461057010    -0.934749596930    -0.656519352518     1.007825032230
         H            3.503162057010    -0.889207596930     0.995769647482     1.007825032230
         H           -3.506085942990    -0.889264596930     0.995772647482     1.007825032230
         H           -4.138443942990    -0.934753596930    -0.656493352518     1.007825032230
         H           -2.673891942990    -1.837660596930    -0.244041352518     1.007825032230

  Basis Set: AUG-CC-PVTZ
    Blend: AUG-CC-PVTZ
  Basis Set: (AUG-CC-PVTZ AUX)
    Blend: AUG-CC-PVTZ-JKFIT
	 Reference Energy          =    -312.3464836521372945 [Eh]
	 Singles Energy            =      -0.0000000000000000 [Eh]
	 Same-Spin Energy          =      -0.3390197908313746 [Eh]
	 Opposite-Spin Energy      =      -1.2315688691806084 [Eh]
	 Correlation Energy        =      -1.5705886600119829 [Eh]
	 Total Energy              =    -313.9170723121492870 [Eh]

	 ================> DF-SCS-MP2 Energies <==================
	-----------------------------------------------------------
	 SCS Same-Spin Scale       =       0.3333333333333333 [-]
	 SCS Opposite-Spin Scale   =       1.2000000000000000 [-]
	 SCS Same-Spin Energy      =      -0.1130065969437915 [Eh]
	 SCS Opposite-Spin Energy  =      -1.4778826430167300 [Eh]
	 SCS Correlation Energy    =      -1.5908892399605215 [Eh]
	 SCS Total Energy          =    -313.9373728920978124 [Eh]
	-----------------------------------------------------------

  Dipole Moment: [D]
     X:    -0.0082      Y:     0.0728      Z:     0.0871     Total:     0.1139

*** Psi4 exiting successfully. Buy a developer a beer!
