                               Psi4 1.4a3.dev225

  ==> Input File <==

--------------------------------------------------------------------------
#psi4
#
memory 32 gb

molecule  {
0 1
  C        1.0769770     0.3750480     0.4036540
  C       -1.0769820     0.3750600     0.4036550
  C        0.0000030     1.4273620     0.0552210
  C       -0.0000090    -0.7130420     0.1804050
  C        2.3595160     0.3194210    -0.4060430
  C       -2.3595260     0.3194330    -0.4060330
  C        3.2195680    -0.8924030    -0.0547570
  C       -3.2195490    -0.8924170    -0.0547640
  H        1.3139090     0.4360540     1.4748590
  H       -1.3139070     0.4360710     1.4748610
  H        0.0000080     2.3782020     0.5982830
  H        0.0000040     1.6360460    -1.0223960
  H       -0.0000100    -1.0431540    -0.8674540
  H       -0.0000130    -1.5954000     0.8282360
  H        2.9313650     1.2434240    -0.2483150
  H        2.0993870     0.2926970    -1.4725700
  H       -2.0994060     0.2927390    -1.4725620
  H       -2.9313940     1.2434200    -0.2482770
  H        2.6724260    -1.8222580    -0.2378450
  H        4.1369510    -0.9193470    -0.6503860
  H        3.5046520    -0.8738050     1.0019030
  H       -3.5129860    -0.8569179     0.9991725
  H       -4.1369540    -0.9193510    -0.6503600
  H       -2.6724020    -1.8222580    -0.2379080
units angstrom
no_reorient  #important for SAPT in psi4, default
symmetry c1  #important for SAPT in psi4, default
}

set PROPERTIES_ORIGIN ["COM"]
properties('MP2/aug-cc-pvtz', properties = ['dipole'])
--------------------------------------------------------------------------

    Molecular point group: c1
  Charge       = 0
  Multiplicity = 1
  Basis Set: AUG-CC-PVTZ
    Blend: AUG-CC-PVTZ
  Basis Set: (AUG-CC-PVTZ AUX)
    Blend: AUG-CC-PVTZ-JKFIT

    Orbital Energies [Eh]
    ---------------------

    Doubly Occupied:

       1A    -11.218364     2A    -11.218318     3A    -11.213372
       4A    -11.213253     5A    -11.211388     6A    -11.210972
       7A    -11.209194     8A    -11.209161     9A     -1.140617
      10A     -1.045993    11A     -1.007457    12A     -0.899143
      13A     -0.891983    14A     -0.840902    15A     -0.768930
      16A     -0.743730    17A     -0.651757    18A     -0.617232
      19A     -0.612488    20A     -0.585194    21A     -0.572137
      22A     -0.536487    23A     -0.530676    24A     -0.524822
      25A     -0.508298    26A     -0.504857    27A     -0.482566
      28A     -0.464035    29A     -0.442067    30A     -0.441170
      31A     -0.421615    32A     -0.406853

  @DF-RHF Final Energy:  -312.34667469970748

   => Energetics <=

    Nuclear Repulsion Energy =            390.1185874327239276
    One-Electron Energy =               -1194.2404570483429325
    Two-Electron Energy =                 491.7751949159115838
    Total Energy =                       -312.3466746997074779
  Basis Set: (AUG-CC-PVTZ AUX)
    Blend: AUG-CC-PVTZ-RI
    Molecular point group: c1

    Geometry (in Angstrom), charge = 0, multiplicity = 1:

       Center              X                  Y                   Z               Mass
    ------------   -----------------  -----------------  -----------------  -----------------
         C            1.077052446871     0.357987724981     0.397236358936    12.000000000000
         C           -1.076906553129     0.357999724981     0.397237358936    12.000000000000
         C            0.000078446871     1.410301724981     0.048803358936    12.000000000000
         C            0.000066446871    -0.730102275019     0.173987358936    12.000000000000
         C            2.359591446871     0.302360724981    -0.412460641064    12.000000000000
         C           -2.359450553129     0.302372724981    -0.412450641064    12.000000000000
         C            3.219643446871    -0.909463275019    -0.061174641064    12.000000000000
         C           -3.219473553129    -0.909477275019    -0.061181641064    12.000000000000
         H            1.313984446871     0.418993724981     1.468441358936     1.007825032230
         H           -1.313831553129     0.419010724981     1.468443358936     1.007825032230
         H            0.000083446871     2.361141724981     0.591865358936     1.007825032230
         H            0.000079446871     1.618985724981    -1.028813641064     1.007825032230
         H            0.000065446871    -1.060214275019    -0.873871641064     1.007825032230
         H            0.000062446871    -1.612460275019     0.821818358936     1.007825032230
         H            2.931440446871     1.226363724981    -0.254732641064     1.007825032230
         H            2.099462446871     0.275636724981    -1.478987641064     1.007825032230
         H           -2.099330553129     0.275678724981    -1.478979641064     1.007825032230
         H           -2.931318553129     1.226359724981    -0.254694641064     1.007825032230
         H            2.672501446871    -1.839318275019    -0.244262641064     1.007825032230
         H            4.137026446871    -0.936407275019    -0.656803641064     1.007825032230
         H            3.504727446871    -0.890865275019     0.995485358936     1.007825032230
         H           -3.512910553129    -0.873978175019     0.992754858936     1.007825032230
         H           -4.136878553129    -0.936411275019    -0.656777641064     1.007825032230
         H           -2.672326553129    -1.839318275019    -0.244325641064     1.007825032230

  Basis Set: AUG-CC-PVTZ
    Blend: AUG-CC-PVTZ
  Basis Set: (AUG-CC-PVTZ AUX)
    Blend: AUG-CC-PVTZ-JKFIT
	 Reference Energy          =    -312.3466746997074779 [Eh]
	 Singles Energy            =      -0.0000000000000000 [Eh]
	 Same-Spin Energy          =      -0.3390838374141875 [Eh]
	 Opposite-Spin Energy      =      -1.2315332270910728 [Eh]
	 Correlation Energy        =      -1.5706170645052604 [Eh]
	 Total Energy              =    -313.9172917642127345 [Eh]

	 ================> DF-SCS-MP2 Energies <==================
	-----------------------------------------------------------
	 SCS Same-Spin Scale       =       0.3333333333333333 [-]
	 SCS Opposite-Spin Scale   =       1.2000000000000000 [-]
	 SCS Same-Spin Energy      =      -0.1130279458047292 [Eh]
	 SCS Opposite-Spin Energy  =      -1.4778398725092874 [Eh]
	 SCS Correlation Energy    =      -1.5908678183140166 [Eh]
	 SCS Total Energy          =    -313.9375425180214734 [Eh]
	-----------------------------------------------------------

  Dipole Moment: [D]
     X:    -0.0034      Y:     0.0773      Z:     0.0818     Total:     0.1126

*** Psi4 exiting successfully. Buy a developer a beer!
