                               Psi4 1.4a3.dev225

  ==> Input File <==

--------------------------------------------------------------------------
#psi4
#
memory 32 gb

molecule  {
0 1
  C        1.0769770     0.3750480     0.4036540
  C       -1.0769820     0.3750600     0.4036550
  C        0.0000030     1.4273620     0.0552210
  C       -0.0000090    -0.7130420     0.1804050
  C        2.3595160     0.3194210    -0.4060430
  C       -2.2676714     0.3124725    -0.5354668
  C        3.2195680    -0.8924030    -0.0547570
  C       -3.2195490    -0.8924170    -0.0547640
  H        1.3139090     0.4360540     1.4748590
  H       -1.3139070     0.4360710     1.4748610
  H        0.0000080     2.3782020     0.5982830
  H        0.0000040     1.6360460    -1.0223960
  H       -0.0000100    -1.0431540    -0.8674540
  H       -0.0000130    -1.5954000     0.8282360
  H        2.9313650     1.2434240    -0.2483150
  H        2.0993870     0.2926970    -1.4725700
  H       -2.0994060     0.2927390    -1.4725620
  H       -2.9313940     1.2434200    -0.2482770
  H        2.6724260    -1.8222580    -0.2378450
  H        4.1369510    -0.9193470    -0.6503860
  H        3.5046520    -0.8738050     1.0019030
  H       -3.5045960    -0.8738620     1.0019060
  H       -4.1369540    -0.9193510    -0.6503600
  H       -2.6724020    -1.8222580    -0.2379080
units angstrom
no_reorient  #important for SAPT in psi4, default
symmetry c1  #important for SAPT in psi4, default
}

set PROPERTIES_ORIGIN ["COM"]
properties('MP2/aug-cc-pvtz', properties = ['dipole'])
--------------------------------------------------------------------------

    Molecular point group: c1
  Charge       = 0
  Multiplicity = 1
  Basis Set: AUG-CC-PVTZ
    Blend: AUG-CC-PVTZ
  Basis Set: (AUG-CC-PVTZ AUX)
    Blend: AUG-CC-PVTZ-JKFIT

    Orbital Energies [Eh]
    ---------------------

    Doubly Occupied:

       1A    -11.220181     2A    -11.217854     3A    -11.213600
       4A    -11.213058     5A    -11.212226     6A    -11.210095
       7A    -11.209416     8A    -11.208997     9A     -1.141476
      10A     -1.042838    11A     -1.000818    12A     -0.897286
      13A     -0.892091    14A     -0.845578    15A     -0.779939
      16A     -0.745718    17A     -0.651480    18A     -0.623007
      19A     -0.606349    20A     -0.584722    21A     -0.568600
      22A     -0.537562    23A     -0.531482    24A     -0.518364
      25A     -0.515205    26A     -0.503199    27A     -0.490911
      28A     -0.474623    29A     -0.445661    30A     -0.430776
      31A     -0.412846    32A     -0.396916

  @DF-RHF Final Energy:  -312.31597944282248

   => Energetics <=

    Nuclear Repulsion Energy =            390.1918605015541743
    One-Electron Energy =               -1194.3299273797988462
    Two-Electron Energy =                 491.8220874354221905
    Total Energy =                       -312.3159794428224814
  Basis Set: (AUG-CC-PVTZ AUX)
    Blend: AUG-CC-PVTZ-RI
    Molecular point group: c1

    Geometry (in Angstrom), charge = 0, multiplicity = 1:

       Center              X                  Y                   Z               Mass
    ------------   -----------------  -----------------  -----------------  -----------------
         C            1.067146459217     0.358884960283     0.411064211222    12.000000000000
         C           -1.086812540783     0.358896960283     0.411065211222    12.000000000000
         C           -0.009827540783     1.411198960283     0.062631211222    12.000000000000
         C           -0.009839540783    -0.729205039717     0.187815211222    12.000000000000
         C            2.349685459217     0.303257960283    -0.398632788778    12.000000000000
         C           -2.277501940783     0.296309460283    -0.528056588778    12.000000000000
         C            3.209737459217    -0.908566039717    -0.047346788778    12.000000000000
         C           -3.229379540783    -0.908580039717    -0.047353788778    12.000000000000
         H            1.304078459217     0.419890960283     1.482269211222     1.007825032230
         H           -1.323737540783     0.419907960283     1.482271211222     1.007825032230
         H           -0.009822540783     2.362038960283     0.605693211222     1.007825032230
         H           -0.009826540783     1.619882960283    -1.014985788778     1.007825032230
         H           -0.009840540783    -1.059317039717    -0.860043788778     1.007825032230
         H           -0.009843540783    -1.611563039717     0.835646211222     1.007825032230
         H            2.921534459217     1.227260960283    -0.240904788778     1.007825032230
         H            2.089556459217     0.276533960283    -1.465159788778     1.007825032230
         H           -2.109236540783     0.276575960283    -1.465151788778     1.007825032230
         H           -2.941224540783     1.227256960283    -0.240866788778     1.007825032230
         H            2.662595459217    -1.838421039717    -0.230434788778     1.007825032230
         H            4.127120459217    -0.935510039717    -0.642975788778     1.007825032230
         H            3.494821459217    -0.889968039717     1.009313211222     1.007825032230
         H           -3.514426540783    -0.890025039717     1.009316211222     1.007825032230
         H           -4.146784540783    -0.935514039717    -0.642949788778     1.007825032230
         H           -2.682232540783    -1.838421039717    -0.230497788778     1.007825032230

  Basis Set: AUG-CC-PVTZ
    Blend: AUG-CC-PVTZ
  Basis Set: (AUG-CC-PVTZ AUX)
    Blend: AUG-CC-PVTZ-JKFIT
	 Reference Energy          =    -312.3159794428224814 [Eh]
	 Singles Energy            =      -0.0000000000000000 [Eh]
	 Same-Spin Energy          =      -0.3391562402145723 [Eh]
	 Opposite-Spin Energy      =      -1.2327824073513265 [Eh]
	 Correlation Energy        =      -1.5719386475658987 [Eh]
	 Total Energy              =    -313.8879180903883821 [Eh]

	 ================> DF-SCS-MP2 Energies <==================
	-----------------------------------------------------------
	 SCS Same-Spin Scale       =       0.3333333333333333 [-]
	 SCS Opposite-Spin Scale   =       1.2000000000000000 [-]
	 SCS Same-Spin Energy      =      -0.1130520800715241 [Eh]
	 SCS Opposite-Spin Energy  =      -1.4793388888215917 [Eh]
	 SCS Correlation Energy    =      -1.5923909688931157 [Eh]
	 SCS Total Energy          =    -313.9083704117156230 [Eh]
	-----------------------------------------------------------

  Dipole Moment: [D]
     X:     0.0427      Y:     0.0462      Z:     0.0636     Total:     0.0895

*** Psi4 exiting successfully. Buy a developer a beer!
