                               Psi4 1.4a3.dev225

  ==> Input File <==

--------------------------------------------------------------------------
#psi4
#
memory 32 gb

molecule  {
0 1
  C        1.0769770     0.3750480     0.4036540
  C       -1.0769820     0.3750600     0.4036550
  C        0.0000030     1.4273620     0.0552210
  C       -0.0000090    -0.7130420     0.1804050
  C        2.3595160     0.3194210    -0.4060430
  C       -2.3595260     0.3194330    -0.4060330
  C        3.2195680    -0.8924030    -0.0547570
  C       -3.2195490    -0.8924170    -0.0547640
  H        1.3139090     0.4360540     1.4748590
  H       -1.3139070     0.4360710     1.4748610
  H        0.0000080     2.3782020     0.5982830
  H        0.0000040     1.6360460    -1.0223960
  H       -0.0000100    -1.0431540    -0.8674540
  H       -0.0000130    -1.5954000     0.8282360
  H        2.9313650     1.2434240    -0.2483150
  H        2.0993870     0.2926970    -1.4725700
  H       -2.0994060     0.2927390    -1.4725620
  H       -2.9313940     1.2434200    -0.2482770
  H        2.6724260    -1.8222580    -0.2378450
  H        4.1788745    -0.9205783    -0.6776056
  H        3.5046520    -0.8738050     1.0019030
  H       -3.5045960    -0.8738620     1.0019060
  H       -4.1369540    -0.9193510    -0.6503600
  H       -2.6724020    -1.8222580    -0.2379080
units angstrom
no_reorient  #important for SAPT in psi4, default
symmetry c1  #important for SAPT in psi4, default
}

set PROPERTIES_ORIGIN ["COM"]
properties('MP2/aug-cc-pvtz', properties = ['dipole'])
--------------------------------------------------------------------------

    Molecular point group: c1
  Charge       = 0
  Multiplicity = 1
  Basis Set: AUG-CC-PVTZ
    Blend: AUG-CC-PVTZ
  Basis Set: (AUG-CC-PVTZ AUX)
    Blend: AUG-CC-PVTZ-JKFIT

    Orbital Energies [Eh]
    ---------------------

    Doubly Occupied:

       1A    -11.218816     2A    -11.218636     3A    -11.215432
       4A    -11.213828     5A    -11.213581     6A    -11.211719
       7A    -11.211365     8A    -11.209332     9A     -1.140964
      10A     -1.045748    11A     -1.006623    12A     -0.897578
      13A     -0.892319    14A     -0.839500    15A     -0.769148
      16A     -0.744079    17A     -0.651997    18A     -0.617223
      19A     -0.611865    20A     -0.585141    21A     -0.568803
      22A     -0.537067    23A     -0.531002    24A     -0.522461
      25A     -0.507777    26A     -0.503917    27A     -0.482649
      28A     -0.464080    29A     -0.442185    30A     -0.441418
      31A     -0.421954    32A     -0.406762

  @DF-RHF Final Energy:  -312.34466489708490

   => Energetics <=

    Nuclear Repulsion Energy =            389.9028614905405448
    One-Electron Energy =               -1193.8051144494586424
    Two-Electron Energy =                 491.5575880618332008
    Total Energy =                       -312.3446648970848969
  Basis Set: (AUG-CC-PVTZ AUX)
    Blend: AUG-CC-PVTZ-RI
    Molecular point group: c1

    Geometry (in Angstrom), charge = 0, multiplicity = 1:

       Center              X                  Y                   Z               Mass
    ------------   -----------------  -----------------  -----------------  -----------------
         C            1.076600209510     0.358151092564     0.397456449552    12.000000000000
         C           -1.077358790490     0.358163092564     0.397457449552    12.000000000000
         C           -0.000373790490     1.410465092564     0.049023449552    12.000000000000
         C           -0.000385790490    -0.729938907436     0.174207449552    12.000000000000
         C            2.359139209510     0.302524092564    -0.412240550448    12.000000000000
         C           -2.359902790490     0.302536092564    -0.412230550448    12.000000000000
         C            3.219191209510    -0.909299907436    -0.060954550448    12.000000000000
         C           -3.219925790490    -0.909313907436    -0.060961550448    12.000000000000
         H            1.313532209510     0.419157092564     1.468661449552     1.007825032230
         H           -1.314283790490     0.419174092564     1.468663449552     1.007825032230
         H           -0.000368790490     2.361305092564     0.592085449552     1.007825032230
         H           -0.000372790490     1.619149092564    -1.028593550448     1.007825032230
         H           -0.000386790490    -1.060050907436    -0.873651550448     1.007825032230
         H           -0.000389790490    -1.612296907436     0.822038449552     1.007825032230
         H            2.930988209510     1.226527092564    -0.254512550448     1.007825032230
         H            2.099010209510     0.275800092564    -1.478767550448     1.007825032230
         H           -2.099782790490     0.275842092564    -1.478759550448     1.007825032230
         H           -2.931770790490     1.226523092564    -0.254474550448     1.007825032230
         H            2.672049209510    -1.839154907436    -0.244042550448     1.007825032230
         H            4.178497709510    -0.937475207436    -0.683803150448     1.007825032230
         H            3.504275209510    -0.890701907436     0.995705449552     1.007825032230
         H           -3.504972790490    -0.890758907436     0.995708449552     1.007825032230
         H           -4.137330790490    -0.936247907436    -0.656557550448     1.007825032230
         H           -2.672778790490    -1.839154907436    -0.244105550448     1.007825032230

  Basis Set: AUG-CC-PVTZ
    Blend: AUG-CC-PVTZ
  Basis Set: (AUG-CC-PVTZ AUX)
    Blend: AUG-CC-PVTZ-JKFIT
	 Reference Energy          =    -312.3446648970848969 [Eh]
	 Singles Energy            =      -0.0000000000000000 [Eh]
	 Same-Spin Energy          =      -0.3390530235390076 [Eh]
	 Opposite-Spin Energy      =      -1.2318324553911948 [Eh]
	 Correlation Energy        =      -1.5708854789302025 [Eh]
	 Total Energy              =    -313.9155503760151191 [Eh]

	 ================> DF-SCS-MP2 Energies <==================
	-----------------------------------------------------------
	 SCS Same-Spin Scale       =       0.3333333333333333 [-]
	 SCS Opposite-Spin Scale   =       1.2000000000000000 [-]
	 SCS Same-Spin Energy      =      -0.1130176745130025 [Eh]
	 SCS Opposite-Spin Energy  =      -1.4781989464694336 [Eh]
	 SCS Correlation Energy    =      -1.5912166209824361 [Eh]
	 SCS Total Energy          =    -313.9358815180673332 [Eh]
	-----------------------------------------------------------

  Dipole Moment: [D]
     X:    -0.0439      Y:     0.0854      Z:     0.0987     Total:     0.1377

*** Psi4 exiting successfully. Buy a developer a beer!
