                               Psi4 1.4a3.dev225

  ==> Input File <==

--------------------------------------------------------------------------
#psi4
#
memory 32 gb

molecule  {
0 1
  C        1.0769770     0.3750480     0.4036540
  C       -1.0769820     0.3750600     0.4036550
  C        0.0000030     1.4273620     0.0552210
  C       -0.0000090    -0.7130420     0.1804050
  C        2.3595160     0.3194210    -0.4060430
  C       -2.3595260     0.3194330    -0.4060330
  C        3.2195680    -0.8924030    -0.0547570
  C       -3.2195490    -0.8924170    -0.0547640
  H        1.3139090     0.4360540     1.4748590
  H       -1.3139070     0.4360710     1.4748610
  H        0.0000080     2.3782020     0.5982830
  H        0.0000040     1.6360460    -1.0223960
  H       -0.0000100    -1.0431540    -0.8674540
  H       -0.0000130    -1.5954000     0.8282360
  H        2.9313650     1.2434240    -0.2483150
  H        2.0993870     0.2926970    -1.4725700
  H       -2.0994060     0.2927390    -1.4725620
  H       -2.9313940     1.2434200    -0.2482770
  H        2.6724260    -1.8222580    -0.2378450
  H        4.1201816    -0.9188545    -0.6394981
  H        3.5046520    -0.8738050     1.0019030
  H       -3.5045960    -0.8738620     1.0019060
  H       -4.1369540    -0.9193510    -0.6503600
  H       -2.6724020    -1.8222580    -0.2379080
units angstrom
no_reorient  #important for SAPT in psi4, default
symmetry c1  #important for SAPT in psi4, default
}

set PROPERTIES_ORIGIN ["COM"]
properties('MP2/aug-cc-pvtz', properties = ['dipole'])
--------------------------------------------------------------------------

    Molecular point group: c1
  Charge       = 0
  Multiplicity = 1
  Basis Set: AUG-CC-PVTZ
    Blend: AUG-CC-PVTZ
  Basis Set: (AUG-CC-PVTZ AUX)
    Blend: AUG-CC-PVTZ-JKFIT

    Orbital Energies [Eh]
    ---------------------

    Doubly Occupied:

       1A    -11.218257     2A    -11.218182     3A    -11.213304
       4A    -11.213176     5A    -11.211275     6A    -11.210841
       7A    -11.209105     8A    -11.206660     9A     -1.140505
      10A     -1.046109    11A     -1.007803    12A     -0.899926
      13A     -0.891877    14A     -0.841689    15A     -0.769065
      16A     -0.743627    17A     -0.651673    18A     -0.616757
      19A     -0.613062    20A     -0.584576    21A     -0.573751
      22A     -0.537004    23A     -0.530579    24A     -0.525735
      25A     -0.507796    26A     -0.505698    27A     -0.482204
      28A     -0.464321    29A     -0.442098    30A     -0.441051
      31A     -0.421488    32A     -0.406898

  @DF-RHF Final Energy:  -312.34673251577857

   => Energetics <=

    Nuclear Repulsion Energy =            390.2062123935950240
    One-Electron Energy =               -1194.4137054730601903
    Two-Electron Energy =                 491.8607605636865969
    Total Energy =                       -312.3467325157785695
  Basis Set: (AUG-CC-PVTZ AUX)
    Blend: AUG-CC-PVTZ-RI
    Molecular point group: c1

    Geometry (in Angstrom), charge = 0, multiplicity = 1:

       Center              X                  Y                   Z               Mass
    ------------   -----------------  -----------------  -----------------  -----------------
         C            1.077127764186     0.358135598378     0.397113924480    12.000000000000
         C           -1.076831235814     0.358147598378     0.397114924480    12.000000000000
         C            0.000153764186     1.410449598378     0.048680924480    12.000000000000
         C            0.000141764186    -0.729954401622     0.173864924480    12.000000000000
         C            2.359666764186     0.302508598378    -0.412583075520    12.000000000000
         C           -2.359375235814     0.302520598378    -0.412573075520    12.000000000000
         C            3.219718764186    -0.909315401622    -0.061297075520    12.000000000000
         C           -3.219398235814    -0.909329401622    -0.061304075520    12.000000000000
         H            1.314059764186     0.419141598378     1.468318924480     1.007825032230
         H           -1.313756235814     0.419158598378     1.468320924480     1.007825032230
         H            0.000158764186     2.361289598378     0.591742924480     1.007825032230
         H            0.000154764186     1.619133598378    -1.028936075520     1.007825032230
         H            0.000140764186    -1.060066401622    -0.873994075520     1.007825032230
         H            0.000137764186    -1.612312401622     0.821695924480     1.007825032230
         H            2.931515764186     1.226511598378    -0.254855075520     1.007825032230
         H            2.099537764186     0.275784598378    -1.479110075520     1.007825032230
         H           -2.099255235814     0.275826598378    -1.479102075520     1.007825032230
         H           -2.931243235814     1.226507598378    -0.254817075520     1.007825032230
         H            2.672576764186    -1.839170401622    -0.244385075520     1.007825032230
         H            4.120332364186    -0.935766901622    -0.646038175520     1.007825032230
         H            3.504802764186    -0.890717401622     0.995362924480     1.007825032230
         H           -3.504445235814    -0.890774401622     0.995365924480     1.007825032230
         H           -4.136803235814    -0.936263401622    -0.656900075520     1.007825032230
         H           -2.672251235814    -1.839170401622    -0.244448075520     1.007825032230

  Basis Set: AUG-CC-PVTZ
    Blend: AUG-CC-PVTZ
  Basis Set: (AUG-CC-PVTZ AUX)
    Blend: AUG-CC-PVTZ-JKFIT
	 Reference Energy          =    -312.3467325157785695 [Eh]
	 Singles Energy            =      -0.0000000000000000 [Eh]
	 Same-Spin Energy          =      -0.3390914666091128 [Eh]
	 Opposite-Spin Energy      =      -1.2314114010099777 [Eh]
	 Correlation Energy        =      -1.5705028676190904 [Eh]
	 Total Energy              =    -313.9172353833976672 [Eh]

	 ================> DF-SCS-MP2 Energies <==================
	-----------------------------------------------------------
	 SCS Same-Spin Scale       =       0.3333333333333333 [-]
	 SCS Opposite-Spin Scale   =       1.2000000000000000 [-]
	 SCS Same-Spin Energy      =      -0.1130304888697043 [Eh]
	 SCS Opposite-Spin Energy  =      -1.4776936812119732 [Eh]
	 SCS Correlation Energy    =      -1.5907241700816774 [Eh]
	 SCS Total Energy          =    -313.9374566858602407 [Eh]
	-----------------------------------------------------------

  Dipole Moment: [D]
     X:     0.0162      Y:     0.0700      Z:     0.0774     Total:     0.1056

*** Psi4 exiting successfully. Buy a developer a beer!
