                               Psi4 1.4a3.dev225

  ==> Input File <==

--------------------------------------------------------------------------
#psi4
#
memory 32 gb

molecule  {
0 1
  C        1.0769770     0.3750480     0.4036540
  C       -1.0769820     0.3750600     0.4036550
  C       -0.0002495     1.4428326     0.1069007
  C       -0.0000090    -0.7130420     0.1804050
  C        2.3595160     0.3194210    -0.4060430
  C       -2.3595260     0.3194330    -0.4060330
  C        3.2195680    -0.8924030    -0.0547570
  C       -3.2195490    -0.8924170    -0.0547640
  H        1.3139090     0.4360540     1.4748590
  H       -1.3139070     0.4360710     1.4748610
  H        0.0000080     2.3782020     0.5982830
  H        0.0000040     1.6360460    -1.0223960
  H       -0.0000100    -1.0431540    -0.8674540
  H       -0.0000130    -1.5954000     0.8282360
  H        2.9313650     1.2434240    -0.2483150
  H        2.0993870     0.2926970    -1.4725700
  H       -2.0994060     0.2927390    -1.4725620
  H       -2.9313940     1.2434200    -0.2482770
  H        2.6724260    -1.8222580    -0.2378450
  H        4.1369510    -0.9193470    -0.6503860
  H        3.5046520    -0.8738050     1.0019030
  H       -3.5045960    -0.8738620     1.0019060
  H       -4.1369540    -0.9193510    -0.6503600
  H       -2.6724020    -1.8222580    -0.2379080
units angstrom
no_reorient  #important for SAPT in psi4, default
symmetry c1  #important for SAPT in psi4, default
}

set PROPERTIES_ORIGIN ["COM"]
properties('MP2/aug-cc-pvtz', properties = ['dipole'])
--------------------------------------------------------------------------

    Molecular point group: c1
  Charge       = 0
  Multiplicity = 1
  Basis Set: AUG-CC-PVTZ
    Blend: AUG-CC-PVTZ
  Basis Set: (AUG-CC-PVTZ AUX)
    Blend: AUG-CC-PVTZ-JKFIT

    Orbital Energies [Eh]
    ---------------------

    Doubly Occupied:

       1A    -11.218951     2A    -11.218908     3A    -11.213763
       4A    -11.213760     5A    -11.212028     6A    -11.211495
       7A    -11.209430     8A    -11.209427     9A     -1.139916
      10A     -1.046031    11A     -1.007657    12A     -0.899242
      13A     -0.892984    14A     -0.841691    15A     -0.769672
      16A     -0.740626    17A     -0.657527    18A     -0.617010
      19A     -0.611974    20A     -0.585188    21A     -0.572573
      22A     -0.535716    23A     -0.526935    24A     -0.525121
      25A     -0.508052    26A     -0.502690    27A     -0.483052
      28A     -0.463855    29A     -0.442630    30A     -0.439357
      31A     -0.424168    32A     -0.406584

  @DF-RHF Final Energy:  -312.34343358703677

   => Energetics <=

    Nuclear Repulsion Energy =            389.9166529674254207
    One-Electron Energy =               -1193.8241469843949289
    Two-Electron Energy =                 491.5640604299327379
    Total Energy =                       -312.3434335870367704
  Basis Set: (AUG-CC-PVTZ AUX)
    Blend: AUG-CC-PVTZ-RI
    Molecular point group: c1

    Geometry (in Angstrom), charge = 0, multiplicity = 1:

       Center              X                  Y                   Z               Mass
    ------------   -----------------  -----------------  -----------------  -----------------
         C            1.077004057642     0.356484311733     0.391680861270    12.000000000000
         C           -1.076954942358     0.356496311733     0.391681861270    12.000000000000
         C           -0.000222442358     1.424268911733     0.094927561270    12.000000000000
         C            0.000018057642    -0.731605688267     0.168431861270    12.000000000000
         C            2.359543057642     0.300857311733    -0.418016138730    12.000000000000
         C           -2.359498942358     0.300869311733    -0.418006138730    12.000000000000
         C            3.219595057642    -0.910966688267    -0.066730138730    12.000000000000
         C           -3.219521942358    -0.910980688267    -0.066737138730    12.000000000000
         H            1.313936057642     0.417490311733     1.462885861270     1.007825032230
         H           -1.313879942358     0.417507311733     1.462887861270     1.007825032230
         H            0.000035057642     2.359638311733     0.586309861270     1.007825032230
         H            0.000031057642     1.617482311733    -1.034369138730     1.007825032230
         H            0.000017057642    -1.061717688267    -0.879427138730     1.007825032230
         H            0.000014057642    -1.613963688267     0.816262861270     1.007825032230
         H            2.931392057642     1.224860311733    -0.260288138730     1.007825032230
         H            2.099414057642     0.274133311733    -1.484543138730     1.007825032230
         H           -2.099378942358     0.274175311733    -1.484535138730     1.007825032230
         H           -2.931366942358     1.224856311733    -0.260250138730     1.007825032230
         H            2.672453057642    -1.840821688267    -0.249818138730     1.007825032230
         H            4.136978057642    -0.937910688267    -0.662359138730     1.007825032230
         H            3.504679057642    -0.892368688267     0.989929861270     1.007825032230
         H           -3.504568942358    -0.892425688267     0.989932861270     1.007825032230
         H           -4.136926942358    -0.937914688267    -0.662333138730     1.007825032230
         H           -2.672374942358    -1.840821688267    -0.249881138730     1.007825032230

  Basis Set: AUG-CC-PVTZ
    Blend: AUG-CC-PVTZ
  Basis Set: (AUG-CC-PVTZ AUX)
    Blend: AUG-CC-PVTZ-JKFIT
	 Reference Energy          =    -312.3434335870367704 [Eh]
	 Singles Energy            =      -0.0000000000000000 [Eh]
	 Same-Spin Energy          =      -0.3391765048953424 [Eh]
	 Opposite-Spin Energy      =      -1.2317335747673115 [Eh]
	 Correlation Energy        =      -1.5709100796626538 [Eh]
	 Total Energy              =    -313.9143436666994376 [Eh]

	 ================> DF-SCS-MP2 Energies <==================
	-----------------------------------------------------------
	 SCS Same-Spin Scale       =       0.3333333333333333 [-]
	 SCS Opposite-Spin Scale   =       1.2000000000000000 [-]
	 SCS Same-Spin Energy      =      -0.1130588349651141 [Eh]
	 SCS Opposite-Spin Energy  =      -1.4780802897207737 [Eh]
	 SCS Correlation Energy    =      -1.5911391246858877 [Eh]
	 SCS Total Energy          =    -313.9345727117226375 [Eh]
	-----------------------------------------------------------

  Dipole Moment: [D]
     X:     0.0002      Y:     0.0808      Z:     0.1254     Total:     0.1492

*** Psi4 exiting successfully. Buy a developer a beer!
