                               Psi4 1.4a3.dev225

  ==> Input File <==

--------------------------------------------------------------------------
#psi4
#
memory 32 gb

molecule  {
0 1
  C        1.0769770     0.3750480     0.4036540
  C       -1.0769820     0.3750600     0.4036550
  C        0.0000030     1.4273620     0.0552210
  C       -0.0000090    -0.7130420     0.1804050
  C        2.3595160     0.3194210    -0.4060430
  C       -2.3595260     0.3194330    -0.4060330
  C        3.2195680    -0.8924030    -0.0547570
  C       -3.2195490    -0.8924170    -0.0547640
  H        1.3139090     0.4360540     1.4748590
  H       -1.3139070     0.4360710     1.4748610
  H        0.0000080     2.3782020     0.5982830
  H        0.0000040     1.6360460    -1.0223960
  H       -0.0000100    -1.0431540    -0.8674540
  H       -0.0000130    -1.5954000     0.8282360
  H        2.9313650     1.2434240    -0.2483150
  H        2.0993870     0.2926970    -1.4725700
  H       -2.0994060     0.2927390    -1.4725620
  H       -2.9313940     1.2434200    -0.2482770
  H        2.6724260    -1.8222580    -0.2378450
  H        4.1369510    -0.9193470    -0.6503860
  H        3.5046520    -0.8738050     1.0019030
  H       -3.4785548    -0.8755571     0.9053711
  H       -4.1369540    -0.9193510    -0.6503600
  H       -2.6724020    -1.8222580    -0.2379080
units angstrom
no_reorient  #important for SAPT in psi4, default
symmetry c1  #important for SAPT in psi4, default
}

set PROPERTIES_ORIGIN ["COM"]
properties('MP2/aug-cc-pvtz', properties = ['dipole'])
--------------------------------------------------------------------------

    Molecular point group: c1
  Charge       = 0
  Multiplicity = 1
  Basis Set: AUG-CC-PVTZ
    Blend: AUG-CC-PVTZ
  Basis Set: (AUG-CC-PVTZ AUX)
    Blend: AUG-CC-PVTZ-JKFIT

    Orbital Energies [Eh]
    ---------------------

    Doubly Occupied:

       1A    -11.218234     2A    -11.218191     3A    -11.213262
       4A    -11.212253     5A    -11.211236     6A    -11.210837
       7A    -11.209078     8A    -11.196317     9A     -1.140532
      10A     -1.047409    11A     -1.009884    12A     -0.903156
      13A     -0.891859    14A     -0.844617    15A     -0.770425
      16A     -0.743821    17A     -0.651656    18A     -0.619232
      19A     -0.612464    20A     -0.589815    21A     -0.572273
      22A     -0.541287    23A     -0.530525    24A     -0.524467
      25A     -0.509809    26A     -0.505305    27A     -0.484916
      28A     -0.465322    29A     -0.441954    30A     -0.440800
      31A     -0.421399    32A     -0.406548

  @DF-RHF Final Energy:  -312.34056863318517

   => Energetics <=

    Nuclear Repulsion Energy =            390.5534502045911722
    One-Electron Energy =               -1195.0702714293006466
    Two-Electron Energy =                 492.1762525915243032
    Total Energy =                       -312.3405686331851712
  Basis Set: (AUG-CC-PVTZ AUX)
    Blend: AUG-CC-PVTZ-RI
    Molecular point group: c1

    Geometry (in Angstrom), charge = 0, multiplicity = 1:

       Center              X                  Y                   Z               Mass
    ------------   -----------------  -----------------  -----------------  -----------------
         C            1.076742965817     0.358155261380     0.398079482502    12.000000000000
         C           -1.077216034183     0.358167261380     0.398080482502    12.000000000000
         C           -0.000231034183     1.410469261380     0.049646482502    12.000000000000
         C           -0.000243034183    -0.729934738620     0.174830482502    12.000000000000
         C            2.359281965817     0.302528261380    -0.411617517498    12.000000000000
         C           -2.359760034183     0.302540261380    -0.411607517498    12.000000000000
         C            3.219333965817    -0.909295738620    -0.060331517498    12.000000000000
         C           -3.219783034183    -0.909309738620    -0.060338517498    12.000000000000
         H            1.313674965817     0.419161261380     1.469284482502     1.007825032230
         H           -1.314141034183     0.419178261380     1.469286482502     1.007825032230
         H           -0.000226034183     2.361309261380     0.592708482502     1.007825032230
         H           -0.000230034183     1.619153261380    -1.027970517498     1.007825032230
         H           -0.000244034183    -1.060046738620    -0.873028517498     1.007825032230
         H           -0.000247034183    -1.612292738620     0.822661482502     1.007825032230
         H            2.931130965817     1.226531261380    -0.253889517498     1.007825032230
         H            2.099152965817     0.275804261380    -1.478144517498     1.007825032230
         H           -2.099640034183     0.275846261380    -1.478136517498     1.007825032230
         H           -2.931628034183     1.226527261380    -0.253851517498     1.007825032230
         H            2.672191965817    -1.839150738620    -0.243419517498     1.007825032230
         H            4.136716965817    -0.936239738620    -0.655960517498     1.007825032230
         H            3.504417965817    -0.890697738620     0.996328482502     1.007825032230
         H           -3.478788834183    -0.892449838620     0.899796582502     1.007825032230
         H           -4.137188034183    -0.936243738620    -0.655934517498     1.007825032230
         H           -2.672636034183    -1.839150738620    -0.243482517498     1.007825032230

  Basis Set: AUG-CC-PVTZ
    Blend: AUG-CC-PVTZ
  Basis Set: (AUG-CC-PVTZ AUX)
    Blend: AUG-CC-PVTZ-JKFIT
	 Reference Energy          =    -312.3405686331851712 [Eh]
	 Singles Energy            =      -0.0000000000000000 [Eh]
	 Same-Spin Energy          =      -0.3391507655388656 [Eh]
	 Opposite-Spin Energy      =      -1.2311103567240054 [Eh]
	 Correlation Energy        =      -1.5702611222628708 [Eh]
	 Total Energy              =    -313.9108297554480487 [Eh]

	 ================> DF-SCS-MP2 Energies <==================
	-----------------------------------------------------------
	 SCS Same-Spin Scale       =       0.3333333333333333 [-]
	 SCS Opposite-Spin Scale   =       1.2000000000000000 [-]
	 SCS Same-Spin Energy      =      -0.1130502551796219 [Eh]
	 SCS Opposite-Spin Energy  =      -1.4773324280688065 [Eh]
	 SCS Correlation Energy    =      -1.5903826832484282 [Eh]
	 SCS Total Energy          =    -313.9309513164336067 [Eh]
	-----------------------------------------------------------

  Dipole Moment: [D]
     X:    -0.0269      Y:     0.0624      Z:     0.1368     Total:     0.1527

*** Psi4 exiting successfully. Buy a developer a beer!
