                               Psi4 1.4a3.dev225

  ==> Input File <==

--------------------------------------------------------------------------
#psi4
#
memory 32 gb

molecule  {
0 1
  C        1.0769770     0.3750480     0.4036540
  C       -1.0769820     0.3750600     0.4036550
  C        0.0000030     1.4273620     0.0552210
  C       -0.0000090    -0.7130420     0.1804050
  C        2.3595160     0.3194210    -0.4060430
  C       -2.3595260     0.3194330    -0.4060330
  C        3.2308329    -0.9082754    -0.0501559
  C       -3.2195490    -0.8924170    -0.0547640
  H        1.3139090     0.4360540     1.4748590
  H       -1.3139070     0.4360710     1.4748610
  H        0.0000080     2.3782020     0.5982830
  H        0.0000040     1.6360460    -1.0223960
  H       -0.0000100    -1.0431540    -0.8674540
  H       -0.0000130    -1.5954000     0.8282360
  H        2.9313650     1.2434240    -0.2483150
  H        2.0993870     0.2926970    -1.4725700
  H       -2.0994060     0.2927390    -1.4725620
  H       -2.9313940     1.2434200    -0.2482770
  H        2.6724260    -1.8222580    -0.2378450
  H        4.1369510    -0.9193470    -0.6503860
  H        3.5046520    -0.8738050     1.0019030
  H       -3.5045960    -0.8738620     1.0019060
  H       -4.1369540    -0.9193510    -0.6503600
  H       -2.6724020    -1.8222580    -0.2379080
units angstrom
no_reorient  #important for SAPT in psi4, default
symmetry c1  #important for SAPT in psi4, default
}

set PROPERTIES_ORIGIN ["COM"]
properties('MP2/aug-cc-pvtz', properties = ['dipole'])
--------------------------------------------------------------------------

    Molecular point group: c1
  Charge       = 0
  Multiplicity = 1
  Basis Set: AUG-CC-PVTZ
    Blend: AUG-CC-PVTZ
  Basis Set: (AUG-CC-PVTZ AUX)
    Blend: AUG-CC-PVTZ-JKFIT

    Orbital Energies [Eh]
    ---------------------

    Doubly Occupied:

       1A    -11.218344     2A    -11.218297     3A    -11.214173
       4A    -11.213358     5A    -11.211341     6A    -11.210956
       7A    -11.209154     8A    -11.208268     9A     -1.140374
      10A     -1.044472    11A     -1.005858    12A     -0.899749
      13A     -0.891962    14A     -0.841868    15A     -0.768871
      16A     -0.743618    17A     -0.651658    18A     -0.616596
      19A     -0.612369    20A     -0.584854    21A     -0.572017
      22A     -0.536630    23A     -0.530668    24A     -0.523436
      25A     -0.509626    26A     -0.505329    27A     -0.483368
      28A     -0.464773    29A     -0.442234    30A     -0.440178
      31A     -0.421295    32A     -0.406639

  @DF-RHF Final Energy:  -312.34653839527391

   => Energetics <=

    Nuclear Repulsion Energy =            389.8448826692334706
    One-Electron Energy =               -1193.6981771173473135
    Two-Electron Energy =                 491.5067560528399326
    Total Energy =                       -312.3465383952739103
  Basis Set: (AUG-CC-PVTZ AUX)
    Blend: AUG-CC-PVTZ-RI
    Molecular point group: c1

    Geometry (in Angstrom), charge = 0, multiplicity = 1:

       Center              X                  Y                   Z               Mass
    ------------   -----------------  -----------------  -----------------  -----------------
         C            1.075771428408     0.359838740517     0.396719364634    12.000000000000
         C           -1.078187571592     0.359850740517     0.396720364634    12.000000000000
         C           -0.001202571592     1.412152740517     0.048286364634    12.000000000000
         C           -0.001214571592    -0.728251259483     0.173470364634    12.000000000000
         C            2.358310428408     0.304211740517    -0.412977635366    12.000000000000
         C           -2.360731571592     0.304223740517    -0.412967635366    12.000000000000
         C            3.229627328408    -0.923484659483    -0.057090535366    12.000000000000
         C           -3.220754571592    -0.907626259483    -0.061698635366    12.000000000000
         H            1.312703428408     0.420844740517     1.467924364634     1.007825032230
         H           -1.315112571592     0.420861740517     1.467926364634     1.007825032230
         H           -0.001197571592     2.362992740517     0.591348364634     1.007825032230
         H           -0.001201571592     1.620836740517    -1.029330635366     1.007825032230
         H           -0.001215571592    -1.058363259483    -0.874388635366     1.007825032230
         H           -0.001218571592    -1.610609259483     0.821301364634     1.007825032230
         H            2.930159428408     1.228214740517    -0.255249635366     1.007825032230
         H            2.098181428408     0.277487740517    -1.479504635366     1.007825032230
         H           -2.100611571592     0.277529740517    -1.479496635366     1.007825032230
         H           -2.932599571592     1.228210740517    -0.255211635366     1.007825032230
         H            2.671220428408    -1.837467259483    -0.244779635366     1.007825032230
         H            4.135745428408    -0.934556259483    -0.657320635366     1.007825032230
         H            3.503446428408    -0.889014259483     0.994968364634     1.007825032230
         H           -3.505801571592    -0.889071259483     0.994971364634     1.007825032230
         H           -4.138159571592    -0.934560259483    -0.657294635366     1.007825032230
         H           -2.673607571592    -1.837467259483    -0.244842635366     1.007825032230

  Basis Set: AUG-CC-PVTZ
    Blend: AUG-CC-PVTZ
  Basis Set: (AUG-CC-PVTZ AUX)
    Blend: AUG-CC-PVTZ-JKFIT
	 Reference Energy          =    -312.3465383952739103 [Eh]
	 Singles Energy            =      -0.0000000000000000 [Eh]
	 Same-Spin Energy          =      -0.3389769918172229 [Eh]
	 Opposite-Spin Energy      =      -1.2314655561391310 [Eh]
	 Correlation Energy        =      -1.5704425479563540 [Eh]
	 Total Energy              =    -313.9169809432302714 [Eh]

	 ================> DF-SCS-MP2 Energies <==================
	-----------------------------------------------------------
	 SCS Same-Spin Scale       =       0.3333333333333333 [-]
	 SCS Opposite-Spin Scale   =       1.2000000000000000 [-]
	 SCS Same-Spin Energy      =      -0.1129923306057410 [Eh]
	 SCS Opposite-Spin Energy  =      -1.4777586673669572 [Eh]
	 SCS Correlation Energy    =      -1.5907509979726981 [Eh]
	 SCS Total Energy          =    -313.9372893932466013 [Eh]
	-----------------------------------------------------------

  Dipole Moment: [D]
     X:    -0.0007      Y:     0.0752      Z:     0.0843     Total:     0.1129

*** Psi4 exiting successfully. Buy a developer a beer!
