                               Psi4 1.4a3.dev225

  ==> Input File <==

--------------------------------------------------------------------------
#psi4
#
memory 32 gb

molecule  {
0 1
  C        1.0769770     0.3750480     0.4036540
  C       -1.0769820     0.3750600     0.4036550
  C        0.0000030     1.4273620     0.0552210
  C       -0.0000090    -0.7130420     0.1804050
  C        2.3595160     0.3194210    -0.4060430
  C       -2.3595260     0.3194330    -0.4060330
  C        3.2195680    -0.8924030    -0.0547570
  C       -3.2195490    -0.8924170    -0.0547640
  H        1.3139090     0.4360540     1.4748590
  H       -1.3139070     0.4360710     1.4748610
  H        0.0000080     2.3782020     0.5982830
  H        0.0000040     1.6360460    -1.0223960
  H       -0.0000100    -1.0431540    -0.8674540
  H       -0.0000130    -1.5954000     0.8282360
  H        2.9313650     1.2434240    -0.2483150
  H        2.0993870     0.2926970    -1.4725700
  H       -2.0994060     0.2927390    -1.4725620
  H       -2.9313940     1.2434200    -0.2482770
  H        2.6724260    -1.8222580    -0.2378450
  H        4.1369510    -0.9193470    -0.6503860
  H        3.5046520    -0.8738050     1.0019030
  H       -3.4525238    -0.9754647     1.0115256
  H       -4.1369540    -0.9193510    -0.6503600
  H       -2.6724020    -1.8222580    -0.2379080
units angstrom
no_reorient  #important for SAPT in psi4, default
symmetry c1  #important for SAPT in psi4, default
}

set PROPERTIES_ORIGIN ["COM"]
properties('MP2/aug-cc-pvtz', properties = ['dipole'])
--------------------------------------------------------------------------

    Molecular point group: c1
  Charge       = 0
  Multiplicity = 1
  Basis Set: AUG-CC-PVTZ
    Blend: AUG-CC-PVTZ
  Basis Set: (AUG-CC-PVTZ AUX)
    Blend: AUG-CC-PVTZ-JKFIT

    Orbital Energies [Eh]
    ---------------------

    Doubly Occupied:

       1A    -11.218508     2A    -11.218401     3A    -11.214172
       4A    -11.213423     5A    -11.211456     6A    -11.211053
       7A    -11.209202     8A    -11.209022     9A     -1.140699
      10A     -1.045867    11A     -1.007234    12A     -0.899430
      13A     -0.892088    14A     -0.841838    15A     -0.769970
      16A     -0.743859    17A     -0.651753    18A     -0.615215
      19A     -0.613762    20A     -0.581803    21A     -0.572709
      22A     -0.540309    23A     -0.530780    24A     -0.524611
      25A     -0.508515    26A     -0.504616    27A     -0.479750
      28A     -0.465185    29A     -0.442379    30A     -0.441049
      31A     -0.421588    32A     -0.406960

  @DF-RHF Final Energy:  -312.34550914296852

   => Energetics <=

    Nuclear Repulsion Energy =            390.1118334302777271
    One-Electron Energy =               -1194.2202720739333017
    Two-Electron Energy =                 491.7629295006869938
    Total Energy =                       -312.3455091429685240
  Basis Set: (AUG-CC-PVTZ AUX)
    Blend: AUG-CC-PVTZ-RI
    Molecular point group: c1

    Geometry (in Angstrom), charge = 0, multiplicity = 1:

       Center              X                  Y                   Z               Mass
    ------------   -----------------  -----------------  -----------------  -----------------
         C            1.076508989036     0.359053269854     0.397125324455    12.000000000000
         C           -1.077450010964     0.359065269854     0.397126324455    12.000000000000
         C           -0.000465010964     1.411367269854     0.048692324455    12.000000000000
         C           -0.000477010964    -0.729036730146     0.173876324455    12.000000000000
         C            2.359047989036     0.303426269854    -0.412571675545    12.000000000000
         C           -2.359994010964     0.303438269854    -0.412561675545    12.000000000000
         C            3.219099989036    -0.908397730146    -0.061285675545    12.000000000000
         C           -3.220017010964    -0.908411730146    -0.061292675545    12.000000000000
         H            1.313440989036     0.420059269854     1.468330324455     1.007825032230
         H           -1.314375010964     0.420076269854     1.468332324455     1.007825032230
         H           -0.000460010964     2.362207269854     0.591754324455     1.007825032230
         H           -0.000464010964     1.620051269854    -1.028924675545     1.007825032230
         H           -0.000478010964    -1.059148730146    -0.873982675545     1.007825032230
         H           -0.000481010964    -1.611394730146     0.821707324455     1.007825032230
         H            2.930896989036     1.227429269854    -0.254843675545     1.007825032230
         H            2.098918989036     0.276702269854    -1.479098675545     1.007825032230
         H           -2.099874010964     0.276744269854    -1.479090675545     1.007825032230
         H           -2.931862010964     1.227425269854    -0.254805675545     1.007825032230
         H            2.671957989036    -1.838252730146    -0.244373675545     1.007825032230
         H            4.136482989036    -0.935341730146    -0.656914675545     1.007825032230
         H            3.504183989036    -0.889799730146     0.995374324455     1.007825032230
         H           -3.452991810964    -0.991459430146     1.004996924455     1.007825032230
         H           -4.137422010964    -0.935345730146    -0.656888675545     1.007825032230
         H           -2.672870010964    -1.838252730146    -0.244436675545     1.007825032230

  Basis Set: AUG-CC-PVTZ
    Blend: AUG-CC-PVTZ
  Basis Set: (AUG-CC-PVTZ AUX)
    Blend: AUG-CC-PVTZ-JKFIT
	 Reference Energy          =    -312.3455091429685240 [Eh]
	 Singles Energy            =      -0.0000000000000000 [Eh]
	 Same-Spin Energy          =      -0.3391233908336971 [Eh]
	 Opposite-Spin Energy      =      -1.2315507966036627 [Eh]
	 Correlation Energy        =      -1.5706741874373598 [Eh]
	 Total Energy              =    -313.9161833304058860 [Eh]

	 ================> DF-SCS-MP2 Energies <==================
	-----------------------------------------------------------
	 SCS Same-Spin Scale       =       0.3333333333333333 [-]
	 SCS Opposite-Spin Scale   =       1.2000000000000000 [-]
	 SCS Same-Spin Energy      =      -0.1130411302778990 [Eh]
	 SCS Opposite-Spin Energy  =      -1.4778609559243951 [Eh]
	 SCS Correlation Energy    =      -1.5909020862022942 [Eh]
	 SCS Total Energy          =    -313.9364112291708011 [Eh]
	-----------------------------------------------------------

  Dipole Moment: [D]
     X:     0.0230      Y:     0.0536      Z:     0.0884     Total:     0.1059

*** Psi4 exiting successfully. Buy a developer a beer!
