                               Psi4 1.4a3.dev225

  ==> Input File <==

--------------------------------------------------------------------------
#psi4
#
memory 32 gb

molecule  {
0 1
  C        1.0769770     0.3750480     0.4036540
  C       -1.0769820     0.3750600     0.4036550
  C        0.0000030     1.4273620     0.0552210
  C       -0.0000090    -0.7130420     0.1804050
  C        2.3595160     0.3194210    -0.4060430
  C       -2.3595260     0.3194330    -0.4060330
  C        3.2195680    -0.8924030    -0.0547570
  C       -3.2195490    -0.8924170    -0.0547640
  H        1.3139090     0.4360540     1.4748590
  H       -1.3139070     0.4360710     1.4748610
  H        0.0000080     2.3782020     0.5982830
  H        0.0000040     1.6360460    -1.0223960
  H       -0.0000100    -1.0431540    -0.8674540
  H       -0.0000130    -1.5954000     0.8282360
  H        2.9313650     1.2434240    -0.2483150
  H        2.0993870     0.2926970    -1.4725700
  H       -2.0994060     0.2927390    -1.4725620
  H       -2.9313940     1.2434200    -0.2482770
  H        2.6724260    -1.8222580    -0.2378450
  H        4.1537204    -0.9198395    -0.6612739
  H        3.5046520    -0.8738050     1.0019030
  H       -3.5045960    -0.8738620     1.0019060
  H       -4.1369540    -0.9193510    -0.6503600
  H       -2.6724020    -1.8222580    -0.2379080
units angstrom
no_reorient  #important for SAPT in psi4, default
symmetry c1  #important for SAPT in psi4, default
}

set PROPERTIES_ORIGIN ["COM"]
properties('MP2/aug-cc-pvtz', properties = ['dipole'])
--------------------------------------------------------------------------

    Molecular point group: c1
  Charge       = 0
  Multiplicity = 1
  Basis Set: AUG-CC-PVTZ
    Blend: AUG-CC-PVTZ
  Basis Set: (AUG-CC-PVTZ AUX)
    Blend: AUG-CC-PVTZ-JKFIT

    Orbital Energies [Eh]
    ---------------------

    Doubly Occupied:

       1A    -11.218537     2A    -11.218458     3A    -11.213609
       4A    -11.213456     5A    -11.211632     6A    -11.211519
       7A    -11.211130     8A    -11.209230     9A     -1.140756
      10A     -1.045856    11A     -1.007065    12A     -0.898482
      13A     -0.892121    14A     -0.840388    15A     -0.769095
      16A     -0.743876    17A     -0.651842    18A     -0.617005
      19A     -0.612295    20A     -0.584885    21A     -0.570770
      22A     -0.536998    23A     -0.530809    24A     -0.523825
      25A     -0.507727    26A     -0.504935    27A     -0.482448
      28A     -0.464202    29A     -0.442134    30A     -0.441274
      31A     -0.421745    32A     -0.406829

  @DF-RHF Final Energy:  -312.34621791575461

   => Energetics <=

    Nuclear Repulsion Energy =            390.0296671400968762
    One-Electron Energy =               -1194.0619017122191963
    Two-Electron Energy =                 491.6860166563677126
    Total Energy =                       -312.3462179157546075
  Basis Set: (AUG-CC-PVTZ AUX)
    Blend: AUG-CC-PVTZ-RI
    Molecular point group: c1

    Geometry (in Angstrom), charge = 0, multiplicity = 1:

       Center              X                  Y                   Z               Mass
    ------------   -----------------  -----------------  -----------------  -----------------
         C            1.076826304371     0.358144451942     0.397309653863    12.000000000000
         C           -1.077132695629     0.358156451942     0.397310653863    12.000000000000
         C           -0.000147695629     1.410458451942     0.048876653863    12.000000000000
         C           -0.000159695629    -0.729945548058     0.174060653863    12.000000000000
         C            2.359365304371     0.302517451942    -0.412387346137    12.000000000000
         C           -2.359676695629     0.302529451942    -0.412377346137    12.000000000000
         C            3.219417304371    -0.909306548058    -0.061101346137    12.000000000000
         C           -3.219699695629    -0.909320548058    -0.061108346137    12.000000000000
         H            1.313758304371     0.419150451942     1.468514653863     1.007825032230
         H           -1.314057695629     0.419167451942     1.468516653863     1.007825032230
         H           -0.000142695629     2.361298451942     0.591938653863     1.007825032230
         H           -0.000146695629     1.619142451942    -1.028740346137     1.007825032230
         H           -0.000160695629    -1.060057548058    -0.873798346137     1.007825032230
         H           -0.000163695629    -1.612303548058     0.821891653863     1.007825032230
         H            2.931214304371     1.226520451942    -0.254659346137     1.007825032230
         H            2.099236304371     0.275793451942    -1.478914346137     1.007825032230
         H           -2.099556695629     0.275835451942    -1.478906346137     1.007825032230
         H           -2.931544695629     1.226516451942    -0.254621346137     1.007825032230
         H            2.672275304371    -1.839161548058    -0.244189346137     1.007825032230
         H            4.153569704371    -0.936743048058    -0.667618246137     1.007825032230
         H            3.504501304371    -0.890708548058     0.995558653863     1.007825032230
         H           -3.504746695629    -0.890765548058     0.995561653863     1.007825032230
         H           -4.137104695629    -0.936254548058    -0.656704346137     1.007825032230
         H           -2.672552695629    -1.839161548058    -0.244252346137     1.007825032230

  Basis Set: AUG-CC-PVTZ
    Blend: AUG-CC-PVTZ
  Basis Set: (AUG-CC-PVTZ AUX)
    Blend: AUG-CC-PVTZ-JKFIT
	 Reference Energy          =    -312.3462179157546075 [Eh]
	 Singles Energy            =      -0.0000000000000000 [Eh]
	 Same-Spin Energy          =      -0.3390689032063474 [Eh]
	 Opposite-Spin Energy      =      -1.2316400634021829 [Eh]
	 Correlation Energy        =      -1.5707089666085303 [Eh]
	 Total Energy              =    -313.9169268823631569 [Eh]

	 ================> DF-SCS-MP2 Energies <==================
	-----------------------------------------------------------
	 SCS Same-Spin Scale       =       0.3333333333333333 [-]
	 SCS Opposite-Spin Scale   =       1.2000000000000000 [-]
	 SCS Same-Spin Energy      =      -0.1130229677354491 [Eh]
	 SCS Opposite-Spin Energy  =      -1.4779680760826195 [Eh]
	 SCS Correlation Energy    =      -1.5909910438180686 [Eh]
	 SCS Total Energy          =    -313.9372089595726720 [Eh]
	-----------------------------------------------------------

  Dipole Moment: [D]
     X:    -0.0170      Y:     0.0786      Z:     0.0891     Total:     0.1200

*** Psi4 exiting successfully. Buy a developer a beer!
