                               Psi4 1.4a3.dev225

  ==> Input File <==

--------------------------------------------------------------------------
#psi4
#
memory 32 gb

molecule  {
0 1
  C        1.0630220     0.3746860     0.3811412
  C       -1.0769820     0.3750600     0.4036550
  C        0.0000030     1.4273620     0.0552210
  C       -0.0000090    -0.7130420     0.1804050
  C        2.3595160     0.3194210    -0.4060430
  C       -2.3595260     0.3194330    -0.4060330
  C        3.2195680    -0.8924030    -0.0547570
  C       -3.2195490    -0.8924170    -0.0547640
  H        1.3139090     0.4360540     1.4748590
  H       -1.3139070     0.4360710     1.4748610
  H        0.0000080     2.3782020     0.5982830
  H        0.0000040     1.6360460    -1.0223960
  H       -0.0000100    -1.0431540    -0.8674540
  H       -0.0000130    -1.5954000     0.8282360
  H        2.9313650     1.2434240    -0.2483150
  H        2.0993870     0.2926970    -1.4725700
  H       -2.0994060     0.2927390    -1.4725620
  H       -2.9313940     1.2434200    -0.2482770
  H        2.6724260    -1.8222580    -0.2378450
  H        4.1369510    -0.9193470    -0.6503860
  H        3.5046520    -0.8738050     1.0019030
  H       -3.5045960    -0.8738620     1.0019060
  H       -4.1369540    -0.9193510    -0.6503600
  H       -2.6724020    -1.8222580    -0.2379080
units angstrom
no_reorient  #important for SAPT in psi4, default
symmetry c1  #important for SAPT in psi4, default
}

set PROPERTIES_ORIGIN ["COM"]
properties('MP2/aug-cc-pvtz', properties = ['dipole'])
--------------------------------------------------------------------------

    Molecular point group: c1
  Charge       = 0
  Multiplicity = 1
  Basis Set: AUG-CC-PVTZ
    Blend: AUG-CC-PVTZ
  Basis Set: (AUG-CC-PVTZ AUX)
    Blend: AUG-CC-PVTZ-JKFIT

    Orbital Energies [Eh]
    ---------------------

    Doubly Occupied:

       1A    -11.219387     2A    -11.218719     3A    -11.213498
       4A    -11.213482     5A    -11.210894     6A    -11.210470
       7A    -11.209500     8A    -11.209253     9A     -1.143745
      10A     -1.045951    11A     -1.008168    12A     -0.899187
      13A     -0.893888    14A     -0.841577    15A     -0.768155
      16A     -0.741323    17A     -0.653521    18A     -0.616963
      19A     -0.613275    20A     -0.584840    21A     -0.572608
      22A     -0.536357    23A     -0.530924    24A     -0.525142
      25A     -0.507975    26A     -0.505268    27A     -0.482729
      28A     -0.462117    29A     -0.443798    30A     -0.437726
      31A     -0.424695    32A     -0.407833

  @DF-RHF Final Energy:  -312.34570065740843

   => Energetics <=

    Nuclear Repulsion Energy =            390.3948976924647241
    One-Electron Energy =               -1194.7752562330319961
    Two-Electron Energy =                 492.0346578831588431
    Total Energy =                       -312.3457006574084289
  Basis Set: (AUG-CC-PVTZ AUX)
    Blend: AUG-CC-PVTZ-RI
    Molecular point group: c1

    Geometry (in Angstrom), charge = 0, multiplicity = 1:

       Center              X                  Y                   Z               Mass
    ------------   -----------------  -----------------  -----------------  -----------------
         C            1.064515543313     0.357816767565     0.377108381518    12.000000000000
         C           -1.075488456687     0.358190767565     0.399622181518    12.000000000000
         C            0.001496543313     1.410492767565     0.051188181518    12.000000000000
         C            0.001484543313    -0.729911232435     0.176372181518    12.000000000000
         C            2.361009543313     0.302551767565    -0.410075818482    12.000000000000
         C           -2.358032456687     0.302563767565    -0.410065818482    12.000000000000
         C            3.221061543313    -0.909272232435    -0.058789818482    12.000000000000
         C           -3.218055456687    -0.909286232435    -0.058796818482    12.000000000000
         H            1.315402543313     0.419184767565     1.470826181518     1.007825032230
         H           -1.312413456687     0.419201767565     1.470828181518     1.007825032230
         H            0.001501543313     2.361332767565     0.594250181518     1.007825032230
         H            0.001497543313     1.619176767565    -1.026428818482     1.007825032230
         H            0.001483543313    -1.060023232435    -0.871486818482     1.007825032230
         H            0.001480543313    -1.612269232435     0.824203181518     1.007825032230
         H            2.932858543313     1.226554767565    -0.252347818482     1.007825032230
         H            2.100880543313     0.275827767565    -1.476602818482     1.007825032230
         H           -2.097912456687     0.275869767565    -1.476594818482     1.007825032230
         H           -2.929900456687     1.226550767565    -0.252309818482     1.007825032230
         H            2.673919543313    -1.839127232435    -0.241877818482     1.007825032230
         H            4.138444543313    -0.936216232435    -0.654418818482     1.007825032230
         H            3.506145543313    -0.890674232435     0.997870181518     1.007825032230
         H           -3.503102456687    -0.890731232435     0.997873181518     1.007825032230
         H           -4.135460456687    -0.936220232435    -0.654392818482     1.007825032230
         H           -2.670908456687    -1.839127232435    -0.241940818482     1.007825032230

  Basis Set: AUG-CC-PVTZ
    Blend: AUG-CC-PVTZ
  Basis Set: (AUG-CC-PVTZ AUX)
    Blend: AUG-CC-PVTZ-JKFIT
	 Reference Energy          =    -312.3457006574084289 [Eh]
	 Singles Energy            =      -0.0000000000000000 [Eh]
	 Same-Spin Energy          =      -0.3392427530816216 [Eh]
	 Opposite-Spin Energy      =      -1.2316270369981890 [Eh]
	 Correlation Energy        =      -1.5708697900798105 [Eh]
	 Total Energy              =    -313.9165704474882546 [Eh]

	 ================> DF-SCS-MP2 Energies <==================
	-----------------------------------------------------------
	 SCS Same-Spin Scale       =       0.3333333333333333 [-]
	 SCS Opposite-Spin Scale   =       1.2000000000000000 [-]
	 SCS Same-Spin Energy      =      -0.1130809176938739 [Eh]
	 SCS Opposite-Spin Energy  =      -1.4779524443978267 [Eh]
	 SCS Correlation Energy    =      -1.5910333620917005 [Eh]
	 SCS Total Energy          =    -313.9367340195001361 [Eh]
	-----------------------------------------------------------

  Dipole Moment: [D]
     X:    -0.0103      Y:     0.0718      Z:     0.0735     Total:     0.1032

*** Psi4 exiting successfully. Buy a developer a beer!
