                               Psi4 1.4a3.dev225

  ==> Input File <==

--------------------------------------------------------------------------
#psi4
#
memory 32 gb

molecule  {
0 1
  C        1.0769770     0.3750480     0.4036540
  C       -1.0769820     0.3750600     0.4036550
  C        0.0000030     1.4273620     0.0552210
  C       -0.1392291    -0.5723832     0.2092645
  C        2.3595160     0.3194210    -0.4060430
  C       -2.3595260     0.3194330    -0.4060330
  C        3.2195680    -0.8924030    -0.0547570
  C       -3.2195490    -0.8924170    -0.0547640
  H        1.3139090     0.4360540     1.4748590
  H       -1.3139070     0.4360710     1.4748610
  H        0.0000080     2.3782020     0.5982830
  H        0.0000040     1.6360460    -1.0223960
  H       -0.0000100    -1.0431540    -0.8674540
  H       -0.0000130    -1.5954000     0.8282360
  H        2.9313650     1.2434240    -0.2483150
  H        2.0993870     0.2926970    -1.4725700
  H       -2.0994060     0.2927390    -1.4725620
  H       -2.9313940     1.2434200    -0.2482770
  H        2.6724260    -1.8222580    -0.2378450
  H        4.1369510    -0.9193470    -0.6503860
  H        3.5046520    -0.8738050     1.0019030
  H       -3.5045960    -0.8738620     1.0019060
  H       -4.1369540    -0.9193510    -0.6503600
  H       -2.6724020    -1.8222580    -0.2379080
units angstrom
no_reorient  #important for SAPT in psi4, default
symmetry c1  #important for SAPT in psi4, default
}

set PROPERTIES_ORIGIN ["COM"]
properties('MP2/aug-cc-pvtz', properties = ['dipole'])
--------------------------------------------------------------------------

    Molecular point group: c1
  Charge       = 0
  Multiplicity = 1
  Basis Set: AUG-CC-PVTZ
    Blend: AUG-CC-PVTZ
  Basis Set: (AUG-CC-PVTZ AUX)
    Blend: AUG-CC-PVTZ-JKFIT

    Orbital Energies [Eh]
    ---------------------

    Doubly Occupied:

       1A    -11.223367     2A    -11.216842     3A    -11.215954
       4A    -11.215005     5A    -11.214806     6A    -11.210194
       7A    -11.209997     8A    -11.207546     9A     -1.173552
      10A     -1.049979    11A     -1.013380    12A     -0.911517
      13A     -0.882150    14A     -0.843632    15A     -0.778771
      16A     -0.739034    17A     -0.651818    18A     -0.623814
      19A     -0.616769    20A     -0.586435    21A     -0.573944
      22A     -0.544422    23A     -0.531112    24A     -0.521832
      25A     -0.512821    26A     -0.502697    27A     -0.483577
      28A     -0.467263    29A     -0.465479    30A     -0.425165
      31A     -0.416933    32A     -0.389847

  @DF-RHF Final Energy:  -312.29971677804321

   => Energetics <=

    Nuclear Repulsion Energy =            392.5112149563337880
    One-Electron Energy =               -1198.7825542185748873
    Two-Electron Energy =                 493.9716224841978942
    Total Energy =                       -312.2997167780432051
  Basis Set: (AUG-CC-PVTZ AUX)
    Blend: AUG-CC-PVTZ-RI
    Molecular point group: c1

    Geometry (in Angstrom), charge = 0, multiplicity = 1:

       Center              X                  Y                   Z               Mass
    ------------   -----------------  -----------------  -----------------  -----------------
         C            1.091876817666     0.343086267465     0.394123152555    12.000000000000
         C           -1.062082182334     0.343098267465     0.394124152555    12.000000000000
         C            0.014902817666     1.395400267465     0.045690152555    12.000000000000
         C           -0.124329282334    -0.604344932535     0.199733652555    12.000000000000
         C            2.374415817666     0.287459267465    -0.415573847445    12.000000000000
         C           -2.344626182334     0.287471267465    -0.415563847445    12.000000000000
         C            3.234467817666    -0.924364732535    -0.064287847445    12.000000000000
         C           -3.204649182334    -0.924378732535    -0.064294847445    12.000000000000
         H            1.328808817666     0.404092267465     1.465328152555     1.007825032230
         H           -1.299007182334     0.404109267465     1.465330152555     1.007825032230
         H            0.014907817666     2.346240267465     0.588752152555     1.007825032230
         H            0.014903817666     1.604084267465    -1.031926847445     1.007825032230
         H            0.014889817666    -1.075115732535    -0.876984847445     1.007825032230
         H            0.014886817666    -1.627361732535     0.818705152555     1.007825032230
         H            2.946264817666     1.211462267465    -0.257845847445     1.007825032230
         H            2.114286817666     0.260735267465    -1.482100847445     1.007825032230
         H           -2.084506182334     0.260777267465    -1.482092847445     1.007825032230
         H           -2.916494182334     1.211458267465    -0.257807847445     1.007825032230
         H            2.687325817666    -1.854219732535    -0.247375847445     1.007825032230
         H            4.151850817666    -0.951308732535    -0.659916847445     1.007825032230
         H            3.519551817666    -0.905766732535     0.992372152555     1.007825032230
         H           -3.489696182334    -0.905823732535     0.992375152555     1.007825032230
         H           -4.122054182334    -0.951312732535    -0.659890847445     1.007825032230
         H           -2.657502182334    -1.854219732535    -0.247438847445     1.007825032230

  Basis Set: AUG-CC-PVTZ
    Blend: AUG-CC-PVTZ
  Basis Set: (AUG-CC-PVTZ AUX)
    Blend: AUG-CC-PVTZ-JKFIT
	 Reference Energy          =    -312.2997167780432051 [Eh]
	 Singles Energy            =      -0.0000000000000000 [Eh]
	 Same-Spin Energy          =      -0.3416611388961970 [Eh]
	 Opposite-Spin Energy      =      -1.2344598063116452 [Eh]
	 Correlation Energy        =      -1.5761209452078422 [Eh]
	 Total Energy              =    -313.8758377232510384 [Eh]

	 ================> DF-SCS-MP2 Energies <==================
	-----------------------------------------------------------
	 SCS Same-Spin Scale       =       0.3333333333333333 [-]
	 SCS Opposite-Spin Scale   =       1.2000000000000000 [-]
	 SCS Same-Spin Energy      =      -0.1138870462987323 [Eh]
	 SCS Opposite-Spin Energy  =      -1.4813517675739742 [Eh]
	 SCS Correlation Energy    =      -1.5952388138727065 [Eh]
	 SCS Total Energy          =    -313.8949555919159025 [Eh]
	-----------------------------------------------------------

  Dipole Moment: [D]
     X:     0.0373      Y:     0.1995      Z:     0.0397     Total:     0.2068

*** Psi4 exiting successfully. Buy a developer a beer!
