                               Psi4 1.4a3.dev225

  ==> Input File <==

--------------------------------------------------------------------------
#psi4
#
memory 32 gb

molecule  {
0 1
  C        1.0769770     0.3750480     0.4036540
  C       -1.0769820     0.3750600     0.4036550
  C        0.0000030     1.4273620     0.0552210
  C       -0.0000090    -0.7130420     0.1804050
  C        2.3595160     0.3194210    -0.4060430
  C       -2.3595260     0.3194330    -0.4060330
  C        3.2195680    -0.8924030    -0.0547570
  C       -3.2195490    -0.8924170    -0.0547640
  H        1.3139090     0.4360540     1.4748590
  H       -1.3139070     0.4360710     1.4748610
  H        0.0000080     2.3782020     0.5982830
  H        0.0000040     1.6360460    -1.0223960
  H       -0.0000100    -1.0431540    -0.8674540
  H       -0.0000130    -1.5954000     0.8282360
  H        2.9313650     1.2434240    -0.2483150
  H        2.0993870     0.2926970    -1.4725700
  H       -2.0994060     0.2927390    -1.4725620
  H       -2.9313940     1.2434200    -0.2482770
  H        2.6724260    -1.8222580    -0.2378450
  H        4.1369510    -0.9193470    -0.6503860
  H        3.5306966    -0.8721059     1.0984369
  H       -3.5045960    -0.8738620     1.0019060
  H       -4.1369540    -0.9193510    -0.6503600
  H       -2.6724020    -1.8222580    -0.2379080
units angstrom
no_reorient  #important for SAPT in psi4, default
symmetry c1  #important for SAPT in psi4, default
}

set PROPERTIES_ORIGIN ["COM"]
properties('MP2/aug-cc-pvtz', properties = ['dipole'])
--------------------------------------------------------------------------

    Molecular point group: c1
  Charge       = 0
  Multiplicity = 1
  Basis Set: AUG-CC-PVTZ
    Blend: AUG-CC-PVTZ
  Basis Set: (AUG-CC-PVTZ AUX)
    Blend: AUG-CC-PVTZ-JKFIT

    Orbital Energies [Eh]
    ---------------------

    Doubly Occupied:

       1A    -11.221553     2A    -11.218600     3A    -11.218544
       4A    -11.214750     5A    -11.213542     6A    -11.211622
       7A    -11.211202     8A    -11.209290     9A     -1.140836
      10A     -1.045383    11A     -1.006005    12A     -0.896744
      13A     -0.892192    14A     -0.838345    15A     -0.768123
      16A     -0.743755    17A     -0.651933    18A     -0.616193
      19A     -0.612704    20A     -0.581443    21A     -0.572005
      22A     -0.533694    23A     -0.530923    24A     -0.525105
      25A     -0.507957    26A     -0.503137    27A     -0.478499
      28A     -0.461621    29A     -0.442299    30A     -0.441633
      31A     -0.421909    32A     -0.407296

  @DF-RHF Final Energy:  -312.34042214148894

   => Energetics <=

    Nuclear Repulsion Energy =            389.7314283399339274
    One-Electron Energy =               -1193.4660202103482334
    Two-Electron Energy =                 491.3941697289253625
    Total Energy =                       -312.3404221414889435
  Basis Set: (AUG-CC-PVTZ AUX)
    Blend: AUG-CC-PVTZ-RI
    Molecular point group: c1

    Geometry (in Angstrom), charge = 0, multiplicity = 1:

       Center              X                  Y                   Z               Mass
    ------------   -----------------  -----------------  -----------------  -----------------
         C            1.076742935256     0.358124752986     0.396344104829    12.000000000000
         C           -1.077216064744     0.358136752986     0.396345104829    12.000000000000
         C           -0.000231064744     1.410438752986     0.047911104829    12.000000000000
         C           -0.000243064744    -0.729965247014     0.173095104829    12.000000000000
         C            2.359281935256     0.302497752986    -0.413352895171    12.000000000000
         C           -2.359760064744     0.302509752986    -0.413342895171    12.000000000000
         C            3.219333935256    -0.909326247014    -0.062066895171    12.000000000000
         C           -3.219783064744    -0.909340247014    -0.062073895171    12.000000000000
         H            1.313674935256     0.419130752986     1.467549104829     1.007825032230
         H           -1.314141064744     0.419147752986     1.467551104829     1.007825032230
         H           -0.000226064744     2.361278752986     0.590973104829     1.007825032230
         H           -0.000230064744     1.619122752986    -1.029705895171     1.007825032230
         H           -0.000244064744    -1.060077247014    -0.874763895171     1.007825032230
         H           -0.000247064744    -1.612323247014     0.820926104829     1.007825032230
         H            2.931130935256     1.226500752986    -0.255624895171     1.007825032230
         H            2.099152935256     0.275773752986    -1.479879895171     1.007825032230
         H           -2.099640064744     0.275815752986    -1.479871895171     1.007825032230
         H           -2.931628064744     1.226496752986    -0.255586895171     1.007825032230
         H            2.672191935256    -1.839181247014    -0.245154895171     1.007825032230
         H            4.136716935256    -0.936270247014    -0.657695895171     1.007825032230
         H            3.530462535256    -0.889029147014     1.091127004829     1.007825032230
         H           -3.504830064744    -0.890785247014     0.994596104829     1.007825032230
         H           -4.137188064744    -0.936274247014    -0.657669895171     1.007825032230
         H           -2.672636064744    -1.839181247014    -0.245217895171     1.007825032230

  Basis Set: AUG-CC-PVTZ
    Blend: AUG-CC-PVTZ
  Basis Set: (AUG-CC-PVTZ AUX)
    Blend: AUG-CC-PVTZ-JKFIT
	 Reference Energy          =    -312.3404221414889435 [Eh]
	 Singles Energy            =      -0.0000000000000000 [Eh]
	 Same-Spin Energy          =      -0.3390252567844708 [Eh]
	 Opposite-Spin Energy      =      -1.2321583266203522 [Eh]
	 Correlation Energy        =      -1.5711835834048229 [Eh]
	 Total Energy              =    -313.9116057248937750 [Eh]

	 ================> DF-SCS-MP2 Energies <==================
	-----------------------------------------------------------
	 SCS Same-Spin Scale       =       0.3333333333333333 [-]
	 SCS Opposite-Spin Scale   =       1.2000000000000000 [-]
	 SCS Same-Spin Energy      =      -0.1130084189281569 [Eh]
	 SCS Opposite-Spin Energy  =      -1.4785899919444225 [Eh]
	 SCS Correlation Energy    =      -1.5915984108725794 [Eh]
	 SCS Total Energy          =    -313.9320205523615073 [Eh]
	-----------------------------------------------------------

  Dipole Moment: [D]
     X:    -0.0346      Y:     0.0884      Z:     0.0142     Total:     0.0960

*** Psi4 exiting successfully. Buy a developer a beer!
