                               Psi4 1.4a3.dev225

  ==> Input File <==

--------------------------------------------------------------------------
#psi4
#
memory 32 gb

molecule  {
0 1
  C        1.0769770     0.3750480     0.4036540
  C       -1.0769820     0.3750600     0.4036550
  C        0.0000030     1.4273620     0.0552210
  C       -0.0348140    -0.6778773     0.1876199
  C        2.3595160     0.3194210    -0.4060430
  C       -2.3595260     0.3194330    -0.4060330
  C        3.2195680    -0.8924030    -0.0547570
  C       -3.2195490    -0.8924170    -0.0547640
  H        1.3139090     0.4360540     1.4748590
  H       -1.3139070     0.4360710     1.4748610
  H        0.0000080     2.3782020     0.5982830
  H        0.0000040     1.6360460    -1.0223960
  H       -0.0000100    -1.0431540    -0.8674540
  H       -0.0000130    -1.5954000     0.8282360
  H        2.9313650     1.2434240    -0.2483150
  H        2.0993870     0.2926970    -1.4725700
  H       -2.0994060     0.2927390    -1.4725620
  H       -2.9313940     1.2434200    -0.2482770
  H        2.6724260    -1.8222580    -0.2378450
  H        4.1369510    -0.9193470    -0.6503860
  H        3.5046520    -0.8738050     1.0019030
  H       -3.5045960    -0.8738620     1.0019060
  H       -4.1369540    -0.9193510    -0.6503600
  H       -2.6724020    -1.8222580    -0.2379080
units angstrom
no_reorient  #important for SAPT in psi4, default
symmetry c1  #important for SAPT in psi4, default
}

set PROPERTIES_ORIGIN ["COM"]
properties('MP2/aug-cc-pvtz', properties = ['dipole'])
--------------------------------------------------------------------------

    Molecular point group: c1
  Charge       = 0
  Multiplicity = 1
  Basis Set: AUG-CC-PVTZ
    Blend: AUG-CC-PVTZ
  Basis Set: (AUG-CC-PVTZ AUX)
    Blend: AUG-CC-PVTZ-JKFIT

    Orbital Energies [Eh]
    ---------------------

    Doubly Occupied:

       1A    -11.217427     2A    -11.215908     3A    -11.214150
       4A    -11.213577     5A    -11.213474     6A    -11.211409
       7A    -11.209439     8A    -11.209335     9A     -1.147182
      10A     -1.046743    11A     -1.008834    12A     -0.901073
      13A     -0.889645    14A     -0.841524    15A     -0.771198
      16A     -0.742502    17A     -0.651337    18A     -0.618036
      19A     -0.613937    20A     -0.584960    21A     -0.572528
      22A     -0.537865    23A     -0.525880    24A     -0.524387
      25A     -0.510601    26A     -0.505144    27A     -0.482494
      28A     -0.464627    29A     -0.446874    30A     -0.437996
      31A     -0.420037    32A     -0.408933

  @DF-RHF Final Energy:  -312.34394892645702

   => Energetics <=

    Nuclear Repulsion Energy =            390.6848939068905793
    One-Electron Energy =               -1195.3395696432723980
    Two-Electron Energy =                 492.3107268099248017
    Total Energy =                       -312.3439489264570170
  Basis Set: (AUG-CC-PVTZ AUX)
    Blend: AUG-CC-PVTZ-RI
    Molecular point group: c1

    Geometry (in Angstrom), charge = 0, multiplicity = 1:

       Center              X                  Y                   Z               Mass
    ------------   -----------------  -----------------  -----------------  -----------------
         C            1.080701977450     0.354376585736     0.396439627342    12.000000000000
         C           -1.073257022550     0.354388585736     0.396440627342    12.000000000000
         C            0.003727977450     1.406690585736     0.048006627342    12.000000000000
         C           -0.031089022550    -0.698548714264     0.180405527342    12.000000000000
         C            2.363240977450     0.298749585736    -0.413257372658    12.000000000000
         C           -2.355801022550     0.298761585736    -0.413247372658    12.000000000000
         C            3.223292977450    -0.913074414264    -0.061971372658    12.000000000000
         C           -3.215824022550    -0.913088414264    -0.061978372658    12.000000000000
         H            1.317633977450     0.415382585736     1.467644627342     1.007825032230
         H           -1.310182022550     0.415399585736     1.467646627342     1.007825032230
         H            0.003732977450     2.357530585736     0.591068627342     1.007825032230
         H            0.003728977450     1.615374585736    -1.029610372658     1.007825032230
         H            0.003714977450    -1.063825414264    -0.874668372658     1.007825032230
         H            0.003711977450    -1.616071414264     0.821021627342     1.007825032230
         H            2.935089977450     1.222752585736    -0.255529372658     1.007825032230
         H            2.103111977450     0.272025585736    -1.479784372658     1.007825032230
         H           -2.095681022550     0.272067585736    -1.479776372658     1.007825032230
         H           -2.927669022550     1.222748585736    -0.255491372658     1.007825032230
         H            2.676150977450    -1.842929414264    -0.245059372658     1.007825032230
         H            4.140675977450    -0.940018414264    -0.657600372658     1.007825032230
         H            3.508376977450    -0.894476414264     0.994688627342     1.007825032230
         H           -3.500871022550    -0.894533414264     0.994691627342     1.007825032230
         H           -4.133229022550    -0.940022414264    -0.657574372658     1.007825032230
         H           -2.668677022550    -1.842929414264    -0.245122372658     1.007825032230

  Basis Set: AUG-CC-PVTZ
    Blend: AUG-CC-PVTZ
  Basis Set: (AUG-CC-PVTZ AUX)
    Blend: AUG-CC-PVTZ-JKFIT
	 Reference Energy          =    -312.3439489264570170 [Eh]
	 Singles Energy            =      -0.0000000000000000 [Eh]
	 Same-Spin Energy          =      -0.3393773476164830 [Eh]
	 Opposite-Spin Energy      =      -1.2316635455957134 [Eh]
	 Correlation Energy        =      -1.5710408932121964 [Eh]
	 Total Energy              =    -313.9149898196691879 [Eh]

	 ================> DF-SCS-MP2 Energies <==================
	-----------------------------------------------------------
	 SCS Same-Spin Scale       =       0.3333333333333333 [-]
	 SCS Opposite-Spin Scale   =       1.2000000000000000 [-]
	 SCS Same-Spin Energy      =      -0.1131257825388277 [Eh]
	 SCS Opposite-Spin Energy  =      -1.4779962547148562 [Eh]
	 SCS Correlation Energy    =      -1.5911220372536838 [Eh]
	 SCS Total Energy          =    -313.9350709637107002 [Eh]
	-----------------------------------------------------------

  Dipole Moment: [D]
     X:     0.0175      Y:     0.0857      Z:     0.0727     Total:     0.1138

*** Psi4 exiting successfully. Buy a developer a beer!
