                               Psi4 1.4a3.dev225

  ==> Input File <==

--------------------------------------------------------------------------
#psi4
#
memory 32 gb

molecule  {
0 1
  C        0.9549715     0.4793658     0.4250573
  C       -1.0769820     0.3750600     0.4036550
  C        0.0000030     1.4273620     0.0552210
  C       -0.0000090    -0.7130420     0.1804050
  C        2.3595160     0.3194210    -0.4060430
  C       -2.3595260     0.3194330    -0.4060330
  C        3.2195680    -0.8924030    -0.0547570
  C       -3.2195490    -0.8924170    -0.0547640
  H        1.3139090     0.4360540     1.4748590
  H       -1.3139070     0.4360710     1.4748610
  H        0.0000080     2.3782020     0.5982830
  H        0.0000040     1.6360460    -1.0223960
  H       -0.0000100    -1.0431540    -0.8674540
  H       -0.0000130    -1.5954000     0.8282360
  H        2.9313650     1.2434240    -0.2483150
  H        2.0993870     0.2926970    -1.4725700
  H       -2.0994060     0.2927390    -1.4725620
  H       -2.9313940     1.2434200    -0.2482770
  H        2.6724260    -1.8222580    -0.2378450
  H        4.1369510    -0.9193470    -0.6503860
  H        3.5046520    -0.8738050     1.0019030
  H       -3.5045960    -0.8738620     1.0019060
  H       -4.1369540    -0.9193510    -0.6503600
  H       -2.6724020    -1.8222580    -0.2379080
units angstrom
no_reorient  #important for SAPT in psi4, default
symmetry c1  #important for SAPT in psi4, default
}

set PROPERTIES_ORIGIN ["COM"]
properties('MP2/aug-cc-pvtz', properties = ['dipole'])
--------------------------------------------------------------------------

    Molecular point group: c1
  Charge       = 0
  Multiplicity = 1
  Basis Set: AUG-CC-PVTZ
    Blend: AUG-CC-PVTZ
  Basis Set: (AUG-CC-PVTZ AUX)
    Blend: AUG-CC-PVTZ-JKFIT

    Orbital Energies [Eh]
    ---------------------

    Doubly Occupied:

       1A    -11.221317     2A    -11.220731     3A    -11.215072
       4A    -11.212853     5A    -11.209645     6A    -11.209332
       7A    -11.208236     8A    -11.204514     9A     -1.161781
      10A     -1.038933    11A     -1.006809    12A     -0.906516
      13A     -0.892060    14A     -0.835726    15A     -0.767366
      16A     -0.745757    17A     -0.662378    18A     -0.612947
      19A     -0.607350    20A     -0.585239    21A     -0.575807
      22A     -0.538702    23A     -0.535066    24A     -0.525121
      25A     -0.507815    26A     -0.503165    27A     -0.481777
      28A     -0.467423    29A     -0.458839    30A     -0.434193
      31A     -0.428933    32A     -0.378982

  @DF-RHF Final Energy:  -312.31921277582222

   => Energetics <=

    Nuclear Repulsion Energy =            390.8067683962025853
    One-Electron Energy =               -1195.5311906879367143
    Two-Electron Energy =                 492.4052095159118494
    Total Energy =                       -312.3192127758222227
  Basis Set: (AUG-CC-PVTZ AUX)
    Blend: AUG-CC-PVTZ-RI
    Molecular point group: c1

    Geometry (in Angstrom), charge = 0, multiplicity = 1:

       Center              X                  Y                   Z               Mass
    ------------   -----------------  -----------------  -----------------  -----------------
         C            0.968028955744     0.451293398303     0.416324439087    12.000000000000
         C           -1.063924544256     0.346987598303     0.394922139087    12.000000000000
         C            0.013060455744     1.399289598303     0.046488139087    12.000000000000
         C            0.013048455744    -0.741114401697     0.171672139087    12.000000000000
         C            2.372573455744     0.291348598303    -0.414775860913    12.000000000000
         C           -2.346468544256     0.291360598303    -0.414765860913    12.000000000000
         C            3.232625455744    -0.920475401697    -0.063489860913    12.000000000000
         C           -3.206491544256    -0.920489401697    -0.063496860913    12.000000000000
         H            1.326966455744     0.407981598303     1.466126139087     1.007825032230
         H           -1.300849544256     0.407998598303     1.466128139087     1.007825032230
         H            0.013065455744     2.350129598303     0.589550139087     1.007825032230
         H            0.013061455744     1.607973598303    -1.031128860913     1.007825032230
         H            0.013047455744    -1.071226401697    -0.876186860913     1.007825032230
         H            0.013044455744    -1.623472401697     0.819503139087     1.007825032230
         H            2.944422455744     1.215351598303    -0.257047860913     1.007825032230
         H            2.112444455744     0.264624598303    -1.481302860913     1.007825032230
         H           -2.086348544256     0.264666598303    -1.481294860913     1.007825032230
         H           -2.918336544256     1.215347598303    -0.257009860913     1.007825032230
         H            2.685483455744    -1.850330401697    -0.246577860913     1.007825032230
         H            4.150008455744    -0.947419401697    -0.659118860913     1.007825032230
         H            3.517709455744    -0.901877401697     0.993170139087     1.007825032230
         H           -3.491538544256    -0.901934401697     0.993173139087     1.007825032230
         H           -4.123896544256    -0.947423401697    -0.659092860913     1.007825032230
         H           -2.659344544256    -1.850330401697    -0.246640860913     1.007825032230

  Basis Set: AUG-CC-PVTZ
    Blend: AUG-CC-PVTZ
  Basis Set: (AUG-CC-PVTZ AUX)
    Blend: AUG-CC-PVTZ-JKFIT
	 Reference Energy          =    -312.3192127758222227 [Eh]
	 Singles Energy            =      -0.0000000000000000 [Eh]
	 Same-Spin Energy          =      -0.3403998861724681 [Eh]
	 Opposite-Spin Energy      =      -1.2330500697355600 [Eh]
	 Correlation Energy        =      -1.5734499559080279 [Eh]
	 Total Energy              =    -313.8926627317302405 [Eh]

	 ================> DF-SCS-MP2 Energies <==================
	-----------------------------------------------------------
	 SCS Same-Spin Scale       =       0.3333333333333333 [-]
	 SCS Opposite-Spin Scale   =       1.2000000000000000 [-]
	 SCS Same-Spin Energy      =      -0.1134666287241560 [Eh]
	 SCS Opposite-Spin Energy  =      -1.4796600836826719 [Eh]
	 SCS Correlation Energy    =      -1.5931267124068278 [Eh]
	 SCS Total Energy          =    -313.9123394882290654 [Eh]
	-----------------------------------------------------------

  Dipole Moment: [D]
     X:    -0.1300      Y:     0.0881      Z:     0.1466     Total:     0.2148

*** Psi4 exiting successfully. Buy a developer a beer!
