                               Psi4 1.4a3.dev225

  ==> Input File <==

--------------------------------------------------------------------------
#psi4
#
memory 32 gb

molecule  {
0 1
  C        1.0769770     0.3750480     0.4036540
  C       -1.0769820     0.3750600     0.4036550
  C        0.0000030     1.4273620     0.0552210
  C       -0.0000090    -0.7130420     0.1804050
  C        2.3595160     0.3194210    -0.4060430
  C       -2.3595260     0.3194330    -0.4060330
  C        3.2195680    -0.8924030    -0.0547570
  C       -3.2195490    -0.8924170    -0.0547640
  H        1.3139090     0.4360540     1.4748590
  H       -1.3139070     0.4360710     1.4748610
  H        0.0000080     2.3782020     0.5982830
  H        0.0000040     1.6360460    -1.0223960
  H       -0.0000100    -1.0431540    -0.8674540
  H       -0.0000130    -1.5954000     0.8282360
  H        2.9313650     1.2434240    -0.2483150
  H        2.0993870     0.2926970    -1.4725700
  H       -2.0994060     0.2927390    -1.4725620
  H       -2.9313940     1.2434200    -0.2482770
  H        2.6724260    -1.8222580    -0.2378450
  H        4.1369510    -0.9193470    -0.6503860
  H        3.5046520    -0.8738050     1.0019030
  H       -3.5176166    -0.8730144     1.0501734
  H       -4.1369540    -0.9193510    -0.6503600
  H       -2.6724020    -1.8222580    -0.2379080
units angstrom
no_reorient  #important for SAPT in psi4, default
symmetry c1  #important for SAPT in psi4, default
}

set PROPERTIES_ORIGIN ["COM"]
properties('MP2/aug-cc-pvtz', properties = ['dipole'])
--------------------------------------------------------------------------

    Molecular point group: c1
  Charge       = 0
  Multiplicity = 1
  Basis Set: AUG-CC-PVTZ
    Blend: AUG-CC-PVTZ
  Basis Set: (AUG-CC-PVTZ AUX)
    Blend: AUG-CC-PVTZ-JKFIT

    Orbital Energies [Eh]
    ---------------------

    Doubly Occupied:

       1A    -11.218476     2A    -11.218431     3A    -11.215509
       4A    -11.213960     5A    -11.213454     6A    -11.211499
       7A    -11.211082     8A    -11.209223     9A     -1.140717
      10A     -1.045590    11A     -1.006588    12A     -0.897788
      13A     -0.892086    14A     -0.839559    15A     -0.768544
      16A     -0.743740    17A     -0.651832    18A     -0.616363
      19A     -0.612697    20A     -0.582823    21A     -0.572131
      22A     -0.535140    23A     -0.530798    24A     -0.524950
      25A     -0.507571    26A     -0.504485    27A     -0.480523
      28A     -0.463256    29A     -0.442206    30A     -0.441388
      31A     -0.421751    32A     -0.407067

  @DF-RHF Final Energy:  -312.34471608684748

   => Energetics <=

    Nuclear Repulsion Energy =            389.9185112829111972
    One-Electron Energy =               -1193.8440055271844358
    Two-Electron Energy =                 491.5807781574258115
    Total Energy =                       -312.3447160868474839
  Basis Set: (AUG-CC-PVTZ AUX)
    Blend: AUG-CC-PVTZ-RI
    Molecular point group: c1

    Geometry (in Angstrom), charge = 0, multiplicity = 1:

       Center              X                  Y                   Z               Mass
    ------------   -----------------  -----------------  -----------------  -----------------
         C            1.077094068510     0.358132406600     0.396777942956    12.000000000000
         C           -1.076864931490     0.358144406600     0.396778942956    12.000000000000
         C            0.000120068510     1.410446406600     0.048344942956    12.000000000000
         C            0.000108068510    -0.729957593400     0.173528942956    12.000000000000
         C            2.359633068510     0.302505406600    -0.412919057044    12.000000000000
         C           -2.359408931490     0.302517406600    -0.412909057044    12.000000000000
         C            3.219685068510    -0.909318593400    -0.061633057044    12.000000000000
         C           -3.219431931490    -0.909332593400    -0.061640057044    12.000000000000
         H            1.314026068510     0.419138406600     1.467982942956     1.007825032230
         H           -1.313789931490     0.419155406600     1.467984942956     1.007825032230
         H            0.000125068510     2.361286406600     0.591406942956     1.007825032230
         H            0.000121068510     1.619130406600    -1.029272057044     1.007825032230
         H            0.000107068510    -1.060069593400    -0.874330057044     1.007825032230
         H            0.000104068510    -1.612315593400     0.821359942956     1.007825032230
         H            2.931482068510     1.226508406600    -0.255191057044     1.007825032230
         H            2.099504068510     0.275781406600    -1.479446057044     1.007825032230
         H           -2.099288931490     0.275823406600    -1.479438057044     1.007825032230
         H           -2.931276931490     1.226504406600    -0.255153057044     1.007825032230
         H            2.672543068510    -1.839173593400    -0.244721057044     1.007825032230
         H            4.137068068510    -0.936262593400    -0.657262057044     1.007825032230
         H            3.504769068510    -0.890720593400     0.995026942956     1.007825032230
         H           -3.517499531490    -0.889929993400     1.043297342956     1.007825032230
         H           -4.136836931490    -0.936266593400    -0.657236057044     1.007825032230
         H           -2.672284931490    -1.839173593400    -0.244784057044     1.007825032230

  Basis Set: AUG-CC-PVTZ
    Blend: AUG-CC-PVTZ
  Basis Set: (AUG-CC-PVTZ AUX)
    Blend: AUG-CC-PVTZ-JKFIT
	 Reference Energy          =    -312.3447160868474839 [Eh]
	 Singles Energy            =      -0.0000000000000000 [Eh]
	 Same-Spin Energy          =      -0.3390527046807149 [Eh]
	 Opposite-Spin Energy      =      -1.2318187605655873 [Eh]
	 Correlation Energy        =      -1.5708714652463023 [Eh]
	 Total Energy              =    -313.9155875520937684 [Eh]

	 ================> DF-SCS-MP2 Energies <==================
	-----------------------------------------------------------
	 SCS Same-Spin Scale       =       0.3333333333333333 [-]
	 SCS Opposite-Spin Scale   =       1.2000000000000000 [-]
	 SCS Same-Spin Energy      =      -0.1130175682269050 [Eh]
	 SCS Opposite-Spin Energy  =      -1.4781825126787047 [Eh]
	 SCS Correlation Energy    =      -1.5912000809056097 [Eh]
	 SCS Total Energy          =    -313.9359161677530778 [Eh]
	-----------------------------------------------------------

  Dipole Moment: [D]
     X:     0.0164      Y:     0.0810      Z:     0.0505     Total:     0.0968

*** Psi4 exiting successfully. Buy a developer a beer!
