                               Psi4 1.4a3.dev225

  ==> Input File <==

--------------------------------------------------------------------------
#psi4
#
memory 32 gb

molecule  {
0 1
  C        1.0769770     0.3750480     0.4036540
  C       -1.0769820     0.3750600     0.4036550
  C        0.0000030     1.4273620     0.0552210
  C       -0.0000090    -0.7130420     0.1804050
  C        2.3595160     0.3194210    -0.4060430
  C       -2.3764264     0.3187000    -0.4167025
  C        3.2195680    -0.8924030    -0.0547570
  C       -3.2195490    -0.8924170    -0.0547640
  H        1.3139090     0.4360540     1.4748590
  H       -1.3139070     0.4360710     1.4748610
  H        0.0000080     2.3782020     0.5982830
  H        0.0000040     1.6360460    -1.0223960
  H       -0.0000100    -1.0431540    -0.8674540
  H       -0.0000130    -1.5954000     0.8282360
  H        2.9313650     1.2434240    -0.2483150
  H        2.0993870     0.2926970    -1.4725700
  H       -2.0994060     0.2927390    -1.4725620
  H       -2.9313940     1.2434200    -0.2482770
  H        2.6724260    -1.8222580    -0.2378450
  H        4.1369510    -0.9193470    -0.6503860
  H        3.5046520    -0.8738050     1.0019030
  H       -3.5045960    -0.8738620     1.0019060
  H       -4.1369540    -0.9193510    -0.6503600
  H       -2.6724020    -1.8222580    -0.2379080
units angstrom
no_reorient  #important for SAPT in psi4, default
symmetry c1  #important for SAPT in psi4, default
}

set PROPERTIES_ORIGIN ["COM"]
properties('MP2/aug-cc-pvtz', properties = ['dipole'])
--------------------------------------------------------------------------

    Molecular point group: c1
  Charge       = 0
  Multiplicity = 1
  Basis Set: AUG-CC-PVTZ
    Blend: AUG-CC-PVTZ
  Basis Set: (AUG-CC-PVTZ AUX)
    Blend: AUG-CC-PVTZ-JKFIT

    Orbital Energies [Eh]
    ---------------------

    Doubly Occupied:

       1A    -11.219011     2A    -11.218276     3A    -11.213320
       4A    -11.212849     5A    -11.211285     6A    -11.210833
       7A    -11.209115     8A    -11.208835     9A     -1.139721
      10A     -1.045418    11A     -1.008128    12A     -0.898085
      13A     -0.891710    14A     -0.840436    15A     -0.769789
      16A     -0.743358    17A     -0.651481    18A     -0.617341
      19A     -0.611520    20A     -0.585621    21A     -0.571806
      22A     -0.537134    23A     -0.530537    24A     -0.524334
      25A     -0.507510    26A     -0.506079    27A     -0.483265
      28A     -0.464090    29A     -0.442433    30A     -0.440876
      31A     -0.421941    32A     -0.405200

  @DF-RHF Final Energy:  -312.34645450457521

   => Energetics <=

    Nuclear Repulsion Energy =            389.8727919789743055
    One-Electron Energy =               -1193.7558235042913566
    Two-Electron Energy =                 491.5365770207418450
    Total Energy =                       -312.3464545045752061
  Basis Set: (AUG-CC-PVTZ AUX)
    Blend: AUG-CC-PVTZ-RI
    Molecular point group: c1

    Geometry (in Angstrom), charge = 0, multiplicity = 1:

       Center              X                  Y                   Z               Mass
    ------------   -----------------  -----------------  -----------------  -----------------
         C            1.078785769506     0.358218473180     0.398353673417    12.000000000000
         C           -1.075173230494     0.358230473180     0.398354673417    12.000000000000
         C            0.001811769506     1.410532473180     0.049920673417    12.000000000000
         C            0.001799769506    -0.729871526820     0.175104673417    12.000000000000
         C            2.361324769506     0.302591473180    -0.411343326583    12.000000000000
         C           -2.374617630494     0.301870473180    -0.422002826583    12.000000000000
         C            3.221376769506    -0.909232526820    -0.060057326583    12.000000000000
         C           -3.217740230494    -0.909246526820    -0.060064326583    12.000000000000
         H            1.315717769506     0.419224473180     1.469558673417     1.007825032230
         H           -1.312098230494     0.419241473180     1.469560673417     1.007825032230
         H            0.001816769506     2.361372473180     0.592982673417     1.007825032230
         H            0.001812769506     1.619216473180    -1.027696326583     1.007825032230
         H            0.001798769506    -1.059983526820    -0.872754326583     1.007825032230
         H            0.001795769506    -1.612229526820     0.822935673417     1.007825032230
         H            2.933173769506     1.226594473180    -0.253615326583     1.007825032230
         H            2.101195769506     0.275867473180    -1.477870326583     1.007825032230
         H           -2.097597230494     0.275909473180    -1.477862326583     1.007825032230
         H           -2.929585230494     1.226590473180    -0.253577326583     1.007825032230
         H            2.674234769506    -1.839087526820    -0.243145326583     1.007825032230
         H            4.138759769506    -0.936176526820    -0.655686326583     1.007825032230
         H            3.506460769506    -0.890634526820     0.996602673417     1.007825032230
         H           -3.502787230494    -0.890691526820     0.996605673417     1.007825032230
         H           -4.135145230494    -0.936180526820    -0.655660326583     1.007825032230
         H           -2.670593230494    -1.839087526820    -0.243208326583     1.007825032230

  Basis Set: AUG-CC-PVTZ
    Blend: AUG-CC-PVTZ
  Basis Set: (AUG-CC-PVTZ AUX)
    Blend: AUG-CC-PVTZ-JKFIT
	 Reference Energy          =    -312.3464545045752061 [Eh]
	 Singles Energy            =      -0.0000000000000000 [Eh]
	 Same-Spin Energy          =      -0.3390159669132816 [Eh]
	 Opposite-Spin Energy      =      -1.2314685781246992 [Eh]
	 Correlation Energy        =      -1.5704845450379810 [Eh]
	 Total Energy              =    -313.9169390496131768 [Eh]

	 ================> DF-SCS-MP2 Energies <==================
	-----------------------------------------------------------
	 SCS Same-Spin Scale       =       0.3333333333333333 [-]
	 SCS Opposite-Spin Scale   =       1.2000000000000000 [-]
	 SCS Same-Spin Energy      =      -0.1130053223044272 [Eh]
	 SCS Opposite-Spin Energy  =      -1.4777622937496391 [Eh]
	 SCS Correlation Energy    =      -1.5907676160540662 [Eh]
	 SCS Total Energy          =    -313.9372221206292579 [Eh]
	-----------------------------------------------------------

  Dipole Moment: [D]
     X:    -0.0043      Y:     0.0744      Z:     0.0817     Total:     0.1106

*** Psi4 exiting successfully. Buy a developer a beer!
