                               Psi4 1.4a3.dev225

  ==> Input File <==

--------------------------------------------------------------------------
#psi4
#
memory 32 gb

molecule  {
0 1
  C        1.0769770     0.3750480     0.4036540
  C       -1.0769820     0.3750600     0.4036550
  C        0.0000030     1.4273620     0.0552210
  C       -0.0000090    -0.7130420     0.1804050
  C        2.3595160     0.3194210    -0.4060430
  C       -2.3595260     0.3194330    -0.4060330
  C        3.2195680    -0.8924030    -0.0547570
  C       -3.2195490    -0.8924170    -0.0547640
  H        1.3139090     0.4360540     1.4748590
  H       -1.3139070     0.4360710     1.4748610
  H        0.0000080     2.3782020     0.5982830
  H        0.0000040     1.6360460    -1.0223960
  H       -0.0000100    -1.0431540    -0.8674540
  H       -0.0000130    -1.5954000     0.8282360
  H        2.9313650     1.2434240    -0.2483150
  H        2.0993870     0.2926970    -1.4725700
  H       -2.0994060     0.2927390    -1.4725620
  H       -2.9313940     1.2434200    -0.2482770
  H        2.6724260    -1.8222580    -0.2378450
  H        4.1369510    -0.9193470    -0.6503860
  H        3.5046520    -0.8738050     1.0019030
  H       -3.5045960    -0.8738620     1.0019060
  H       -4.1369540    -0.9193510    -0.6503600
  H       -2.6724020    -1.8222580    -0.2379080
units angstrom
no_reorient  #important for SAPT in psi4, default
symmetry c1  #important for SAPT in psi4, default
}

set PROPERTIES_ORIGIN ["COM"]
properties('MP2/aug-cc-pvtz', properties = ['dipole'])
--------------------------------------------------------------------------

    Molecular point group: c1
  Charge       = 0
  Multiplicity = 1
  Basis Set: AUG-CC-PVTZ
    Blend: AUG-CC-PVTZ
  Basis Set: (AUG-CC-PVTZ AUX)
    Blend: AUG-CC-PVTZ-JKFIT

    Orbital Energies [Eh]
    ---------------------

    Doubly Occupied:

       1A    -11.218376     2A    -11.218334     3A    -11.213378
       4A    -11.213378     5A    -11.211394     6A    -11.210982
       7A    -11.209166     8A    -11.209166     9A     -1.140627
      10A     -1.045965    11A     -1.007412    12A     -0.899168
      13A     -0.891996    14A     -0.841022    15A     -0.769074
      16A     -0.743748    17A     -0.651752    18A     -0.616875
      19A     -0.612648    20A     -0.584726    21A     -0.572213
      22A     -0.536986    23A     -0.530690    24A     -0.524782
      25A     -0.507742    26A     -0.505393    27A     -0.482323
      28A     -0.464267    29A     -0.442113    30A     -0.441164
      31A     -0.421613    32A     -0.406866

  @DF-RHF Final Energy:  -312.34671917697733

   => Energetics <=

    Nuclear Repulsion Energy =            390.1168297441548702
    One-Electron Energy =               -1194.2364179632888863
    Two-Electron Energy =                 491.7728690421566853
    Total Energy =                       -312.3467191769773308
  Basis Set: (AUG-CC-PVTZ AUX)
    Blend: AUG-CC-PVTZ-RI
    Molecular point group: c1

    Geometry (in Angstrom), charge = 0, multiplicity = 1:

       Center              X                  Y                   Z               Mass
    ------------   -----------------  -----------------  -----------------  -----------------
         C            1.076977034279     0.358140025160     0.397211789171    12.000000000000
         C           -1.076981965721     0.358152025160     0.397212789171    12.000000000000
         C            0.000003034279     1.410454025160     0.048778789171    12.000000000000
         C           -0.000008965721    -0.729949974840     0.173962789171    12.000000000000
         C            2.359516034279     0.302513025160    -0.412485210829    12.000000000000
         C           -2.359525965721     0.302525025160    -0.412475210829    12.000000000000
         C            3.219568034279    -0.909310974840    -0.061199210829    12.000000000000
         C           -3.219548965721    -0.909324974840    -0.061206210829    12.000000000000
         H            1.313909034279     0.419146025160     1.468416789171     1.007825032230
         H           -1.313906965721     0.419163025160     1.468418789171     1.007825032230
         H            0.000008034279     2.361294025160     0.591840789171     1.007825032230
         H            0.000004034279     1.619138025160    -1.028838210829     1.007825032230
         H           -0.000009965721    -1.060061974840    -0.873896210829     1.007825032230
         H           -0.000012965721    -1.612307974840     0.821793789171     1.007825032230
         H            2.931365034279     1.226516025160    -0.254757210829     1.007825032230
         H            2.099387034279     0.275789025160    -1.479012210829     1.007825032230
         H           -2.099405965721     0.275831025160    -1.479004210829     1.007825032230
         H           -2.931393965721     1.226512025160    -0.254719210829     1.007825032230
         H            2.672426034279    -1.839165974840    -0.244287210829     1.007825032230
         H            4.136951034279    -0.936254974840    -0.656828210829     1.007825032230
         H            3.504652034279    -0.890712974840     0.995460789171     1.007825032230
         H           -3.504595965721    -0.890769974840     0.995463789171     1.007825032230
         H           -4.136953965721    -0.936258974840    -0.656802210829     1.007825032230
         H           -2.672401965721    -1.839165974840    -0.244350210829     1.007825032230

  Basis Set: AUG-CC-PVTZ
    Blend: AUG-CC-PVTZ
  Basis Set: (AUG-CC-PVTZ AUX)
    Blend: AUG-CC-PVTZ-JKFIT
	 Reference Energy          =    -312.3467191769773308 [Eh]
	 Singles Energy            =      -0.0000000000000000 [Eh]
	 Same-Spin Energy          =      -0.3390798625261157 [Eh]
	 Opposite-Spin Energy      =      -1.2315213506170519 [Eh]
	 Correlation Energy        =      -1.5706012131431677 [Eh]
	 Total Energy              =    -313.9173203901204943 [Eh]

	 ================> DF-SCS-MP2 Energies <==================
	-----------------------------------------------------------
	 SCS Same-Spin Scale       =       0.3333333333333333 [-]
	 SCS Opposite-Spin Scale   =       1.2000000000000000 [-]
	 SCS Same-Spin Energy      =      -0.1130266208420386 [Eh]
	 SCS Opposite-Spin Energy  =      -1.4778256207404623 [Eh]
	 SCS Correlation Energy    =      -1.5908522415825008 [Eh]
	 SCS Total Energy          =    -313.9375714185598554 [Eh]
	-----------------------------------------------------------

  Dipole Moment: [D]
     X:    -0.0000      Y:     0.0742      Z:     0.0831     Total:     0.1114

*** Psi4 exiting successfully. Buy a developer a beer!
