                               Psi4 1.4a3.dev225

  ==> Input File <==

--------------------------------------------------------------------------
#psi4
#
memory 32 gb

molecule  {
0 1
  C        1.0769770     0.3750480     0.4036540
  C       -1.0769820     0.3750600     0.4036550
  C        0.0000030     1.4273620     0.0552210
  C       -0.0000090    -0.7130420     0.1804050
  C        2.3595160     0.3194210    -0.4060430
  C       -2.4017771     0.3176005    -0.4327067
  C        3.2195680    -0.8924030    -0.0547570
  C       -3.2195490    -0.8924170    -0.0547640
  H        1.3139090     0.4360540     1.4748590
  H       -1.3139070     0.4360710     1.4748610
  H        0.0000080     2.3782020     0.5982830
  H        0.0000040     1.6360460    -1.0223960
  H       -0.0000100    -1.0431540    -0.8674540
  H       -0.0000130    -1.5954000     0.8282360
  H        2.9313650     1.2434240    -0.2483150
  H        2.0993870     0.2926970    -1.4725700
  H       -2.0994060     0.2927390    -1.4725620
  H       -2.9313940     1.2434200    -0.2482770
  H        2.6724260    -1.8222580    -0.2378450
  H        4.1369510    -0.9193470    -0.6503860
  H        3.5046520    -0.8738050     1.0019030
  H       -3.5045960    -0.8738620     1.0019060
  H       -4.1369540    -0.9193510    -0.6503600
  H       -2.6724020    -1.8222580    -0.2379080
units angstrom
no_reorient  #important for SAPT in psi4, default
symmetry c1  #important for SAPT in psi4, default
}

set PROPERTIES_ORIGIN ["COM"]
properties('MP2/aug-cc-pvtz', properties = ['dipole'])
--------------------------------------------------------------------------

    Molecular point group: c1
  Charge       = 0
  Multiplicity = 1
  Basis Set: AUG-CC-PVTZ
    Blend: AUG-CC-PVTZ
  Basis Set: (AUG-CC-PVTZ AUX)
    Blend: AUG-CC-PVTZ-JKFIT

    Orbital Energies [Eh]
    ---------------------

    Doubly Occupied:

       1A    -11.219905     2A    -11.218172     3A    -11.213238
       4A    -11.212244     5A    -11.211147     6A    -11.210629
       7A    -11.209045     8A    -11.208414     9A     -1.138496
      10A     -1.044769    11A     -1.009218    12A     -0.896613
      13A     -0.891275    14A     -0.839637    15A     -0.770764
      16A     -0.742791    17A     -0.651115    18A     -0.618201
      19A     -0.609973    20A     -0.586878    21A     -0.571170
      22A     -0.537714    23A     -0.530332    24A     -0.524129
      25A     -0.507391    26A     -0.506688    27A     -0.484886
      28A     -0.463648    29A     -0.444140    30A     -0.439073
      31A     -0.422269    32A     -0.401869

  @DF-RHF Final Energy:  -312.34470945393804

   => Energetics <=

    Nuclear Repulsion Energy =            389.5124509955095391
    One-Electron Energy =               -1193.0426577302278019
    Two-Electron Energy =                 491.1854972807802255
    Total Energy =                       -312.3447094539380373
  Basis Set: (AUG-CC-PVTZ AUX)
    Blend: AUG-CC-PVTZ-RI
    Molecular point group: c1

    Geometry (in Angstrom), charge = 0, multiplicity = 1:

       Center              X                  Y                   Z               Mass
    ------------   -----------------  -----------------  -----------------  -----------------
         C            1.081498883048     0.358336145210     0.400066494434    12.000000000000
         C           -1.072460116952     0.358348145210     0.400067494434    12.000000000000
         C            0.004524883048     1.410650145210     0.051633494434    12.000000000000
         C            0.004512883048    -0.729753854790     0.176817494434    12.000000000000
         C            2.364037883048     0.302709145210    -0.409630505566    12.000000000000
         C           -2.397255216952     0.300888645210    -0.436294205566    12.000000000000
         C            3.224089883048    -0.909114854790    -0.058344505566    12.000000000000
         C           -3.215027116952    -0.909128854790    -0.058351505566    12.000000000000
         H            1.318430883048     0.419342145210     1.471271494434     1.007825032230
         H           -1.309385116952     0.419359145210     1.471273494434     1.007825032230
         H            0.004529883048     2.361490145210     0.594695494434     1.007825032230
         H            0.004525883048     1.619334145210    -1.025983505566     1.007825032230
         H            0.004511883048    -1.059865854790    -0.871041505566     1.007825032230
         H            0.004508883048    -1.612111854790     0.824648494434     1.007825032230
         H            2.935886883048     1.226712145210    -0.251902505566     1.007825032230
         H            2.103908883048     0.275985145210    -1.476157505566     1.007825032230
         H           -2.094884116952     0.276027145210    -1.476149505566     1.007825032230
         H           -2.926872116952     1.226708145210    -0.251864505566     1.007825032230
         H            2.676947883048    -1.838969854790    -0.241432505566     1.007825032230
         H            4.141472883048    -0.936058854790    -0.653973505566     1.007825032230
         H            3.509173883048    -0.890516854790     0.998315494434     1.007825032230
         H           -3.500074116952    -0.890573854790     0.998318494434     1.007825032230
         H           -4.132432116952    -0.936062854790    -0.653947505566     1.007825032230
         H           -2.667880116952    -1.838969854790    -0.241495505566     1.007825032230

  Basis Set: AUG-CC-PVTZ
    Blend: AUG-CC-PVTZ
  Basis Set: (AUG-CC-PVTZ AUX)
    Blend: AUG-CC-PVTZ-JKFIT
	 Reference Energy          =    -312.3447094539380373 [Eh]
	 Singles Energy            =      -0.0000000000000000 [Eh]
	 Same-Spin Energy          =      -0.3389844188886622 [Eh]
	 Opposite-Spin Energy      =      -1.2315020186327201 [Eh]
	 Correlation Energy        =      -1.5704864375213823 [Eh]
	 Total Energy              =    -313.9151958914594047 [Eh]

	 ================> DF-SCS-MP2 Energies <==================
	-----------------------------------------------------------
	 SCS Same-Spin Scale       =       0.3333333333333333 [-]
	 SCS Opposite-Spin Scale   =       1.2000000000000000 [-]
	 SCS Same-Spin Energy      =      -0.1129948062962207 [Eh]
	 SCS Opposite-Spin Energy  =      -1.4778024223592641 [Eh]
	 SCS Correlation Energy    =      -1.5907972286554848 [Eh]
	 SCS Total Energy          =    -313.9355066825935410 [Eh]
	-----------------------------------------------------------

  Dipole Moment: [D]
     X:    -0.0088      Y:     0.0741      Z:     0.0809     Total:     0.1101

*** Psi4 exiting successfully. Buy a developer a beer!
