                               Psi4 1.4a3.dev225

  ==> Input File <==

--------------------------------------------------------------------------
#psi4
#
memory 32 gb

molecule  {
0 1
  C        1.0769770     0.3750480     0.4036540
  C       -1.0769820     0.3750600     0.4036550
  C        0.0000030     1.4273620     0.0552210
  C       -0.0000090    -0.7130420     0.1804050
  C        2.3426156     0.3201540    -0.3953734
  C       -2.3595260     0.3194330    -0.4060330
  C        3.2195680    -0.8924030    -0.0547570
  C       -3.2195490    -0.8924170    -0.0547640
  H        1.3139090     0.4360540     1.4748590
  H       -1.3139070     0.4360710     1.4748610
  H        0.0000080     2.3782020     0.5982830
  H        0.0000040     1.6360460    -1.0223960
  H       -0.0000100    -1.0431540    -0.8674540
  H       -0.0000130    -1.5954000     0.8282360
  H        2.9313650     1.2434240    -0.2483150
  H        2.0993870     0.2926970    -1.4725700
  H       -2.0994060     0.2927390    -1.4725620
  H       -2.9313940     1.2434200    -0.2482770
  H        2.6724260    -1.8222580    -0.2378450
  H        4.1369510    -0.9193470    -0.6503860
  H        3.5046520    -0.8738050     1.0019030
  H       -3.5045960    -0.8738620     1.0019060
  H       -4.1369540    -0.9193510    -0.6503600
  H       -2.6724020    -1.8222580    -0.2379080
units angstrom
no_reorient  #important for SAPT in psi4, default
symmetry c1  #important for SAPT in psi4, default
}

set PROPERTIES_ORIGIN ["COM"]
properties('MP2/aug-cc-pvtz', properties = ['dipole'])
--------------------------------------------------------------------------

    Molecular point group: c1
  Charge       = 0
  Multiplicity = 1
  Basis Set: AUG-CC-PVTZ
    Blend: AUG-CC-PVTZ
  Basis Set: (AUG-CC-PVTZ AUX)
    Blend: AUG-CC-PVTZ-JKFIT

    Orbital Energies [Eh]
    ---------------------

    Doubly Occupied:

       1A    -11.218442     2A    -11.217654     3A    -11.213998
       4A    -11.213441     5A    -11.211519     6A    -11.211142
       7A    -11.209534     8A    -11.209220     9A     -1.141613
      10A     -1.046607    11A     -1.006711    12A     -0.900331
      13A     -0.892283    14A     -0.841649    15A     -0.768307
      16A     -0.744149    17A     -0.652047    18A     -0.616496
      19A     -0.613850    20A     -0.583801    21A     -0.572607
      22A     -0.537013    23A     -0.530858    24A     -0.525450
      25A     -0.508019    26A     -0.504627    27A     -0.481561
      28A     -0.464288    29A     -0.443333    30A     -0.439821
      31A     -0.421159    32A     -0.408100

  @DF-RHF Final Energy:  -312.34620549489415

   => Energetics <=

    Nuclear Repulsion Energy =            390.3643172230272853
    One-Electron Energy =               -1194.7217832025974076
    Two-Electron Energy =                 492.0112604846760291
    Total Energy =                       -312.3462054948941500
  Basis Set: (AUG-CC-PVTZ AUX)
    Blend: AUG-CC-PVTZ-RI
    Molecular point group: c1

    Geometry (in Angstrom), charge = 0, multiplicity = 1:

       Center              X                  Y                   Z               Mass
    ------------   -----------------  -----------------  -----------------  -----------------
         C            1.078785769506     0.358061577140     0.396069894224    12.000000000000
         C           -1.075173230494     0.358073577140     0.396070894224    12.000000000000
         C            0.001811769506     1.410375577140     0.047636894224    12.000000000000
         C            0.001799769506    -0.730028422860     0.172820894224    12.000000000000
         C            2.344424369506     0.303167577140    -0.402957505776    12.000000000000
         C           -2.357717230494     0.302446577140    -0.413617105776    12.000000000000
         C            3.221376769506    -0.909389422860    -0.062341105776    12.000000000000
         C           -3.217740230494    -0.909403422860    -0.062348105776    12.000000000000
         H            1.315717769506     0.419067577140     1.467274894224     1.007825032230
         H           -1.312098230494     0.419084577140     1.467276894224     1.007825032230
         H            0.001816769506     2.361215577140     0.590698894224     1.007825032230
         H            0.001812769506     1.619059577140    -1.029980105776     1.007825032230
         H            0.001798769506    -1.060140422860    -0.875038105776     1.007825032230
         H            0.001795769506    -1.612386422860     0.820651894224     1.007825032230
         H            2.933173769506     1.226437577140    -0.255899105776     1.007825032230
         H            2.101195769506     0.275710577140    -1.480154105776     1.007825032230
         H           -2.097597230494     0.275752577140    -1.480146105776     1.007825032230
         H           -2.929585230494     1.226433577140    -0.255861105776     1.007825032230
         H            2.674234769506    -1.839244422860    -0.245429105776     1.007825032230
         H            4.138759769506    -0.936333422860    -0.657970105776     1.007825032230
         H            3.506460769506    -0.890791422860     0.994318894224     1.007825032230
         H           -3.502787230494    -0.890848422860     0.994321894224     1.007825032230
         H           -4.135145230494    -0.936337422860    -0.657944105776     1.007825032230
         H           -2.670593230494    -1.839244422860    -0.245492105776     1.007825032230

  Basis Set: AUG-CC-PVTZ
    Blend: AUG-CC-PVTZ
  Basis Set: (AUG-CC-PVTZ AUX)
    Blend: AUG-CC-PVTZ-JKFIT
	 Reference Energy          =    -312.3462054948941500 [Eh]
	 Singles Energy            =      -0.0000000000000000 [Eh]
	 Same-Spin Energy          =      -0.3391793355664995 [Eh]
	 Opposite-Spin Energy      =      -1.2316357381211200 [Eh]
	 Correlation Energy        =      -1.5708150736876196 [Eh]
	 Total Energy              =    -313.9170205685817905 [Eh]

	 ================> DF-SCS-MP2 Energies <==================
	-----------------------------------------------------------
	 SCS Same-Spin Scale       =       0.3333333333333333 [-]
	 SCS Opposite-Spin Scale   =       1.2000000000000000 [-]
	 SCS Same-Spin Energy      =      -0.1130597785221665 [Eh]
	 SCS Opposite-Spin Energy  =      -1.4779628857453440 [Eh]
	 SCS Correlation Energy    =      -1.5910226642675105 [Eh]
	 SCS Total Energy          =    -313.9372281591616343 [Eh]
	-----------------------------------------------------------

  Dipole Moment: [D]
     X:    -0.0054      Y:     0.0736      Z:     0.0851     Total:     0.1127

*** Psi4 exiting successfully. Buy a developer a beer!
