                               Psi4 1.4a3.dev225

  ==> Input File <==

--------------------------------------------------------------------------
#psi4
#
memory 32 gb

molecule  {
0 1
  C        1.1150858     0.3375659     0.3959637
  C       -1.0769820     0.3750600     0.4036550
  C        0.0000030     1.4273620     0.0552210
  C       -0.0000090    -0.7130420     0.1804050
  C        2.3595160     0.3194210    -0.4060430
  C       -2.3595260     0.3194330    -0.4060330
  C        3.2195680    -0.8924030    -0.0547570
  C       -3.2195490    -0.8924170    -0.0547640
  H        1.3139090     0.4360540     1.4748590
  H       -1.3139070     0.4360710     1.4748610
  H        0.0000080     2.3782020     0.5982830
  H        0.0000040     1.6360460    -1.0223960
  H       -0.0000100    -1.0431540    -0.8674540
  H       -0.0000130    -1.5954000     0.8282360
  H        2.9313650     1.2434240    -0.2483150
  H        2.0993870     0.2926970    -1.4725700
  H       -2.0994060     0.2927390    -1.4725620
  H       -2.9313940     1.2434200    -0.2482770
  H        2.6724260    -1.8222580    -0.2378450
  H        4.1369510    -0.9193470    -0.6503860
  H        3.5046520    -0.8738050     1.0019030
  H       -3.5045960    -0.8738620     1.0019060
  H       -4.1369540    -0.9193510    -0.6503600
  H       -2.6724020    -1.8222580    -0.2379080
units angstrom
no_reorient  #important for SAPT in psi4, default
symmetry c1  #important for SAPT in psi4, default
}

set PROPERTIES_ORIGIN ["COM"]
properties('MP2/aug-cc-pvtz', properties = ['dipole'])
--------------------------------------------------------------------------

    Molecular point group: c1
  Charge       = 0
  Multiplicity = 1
  Basis Set: AUG-CC-PVTZ
    Blend: AUG-CC-PVTZ
  Basis Set: (AUG-CC-PVTZ AUX)
    Blend: AUG-CC-PVTZ-JKFIT

    Orbital Energies [Eh]
    ---------------------

    Doubly Occupied:

       1A    -11.218931     2A    -11.218013     3A    -11.213701
       4A    -11.212864     5A    -11.212549     6A    -11.212489
       7A    -11.209222     8A    -11.208946     9A     -1.136317
      10A     -1.049807    11A     -1.007181    12A     -0.900447
      13A     -0.889740    14A     -0.842148    15A     -0.769394
      16A     -0.743030    17A     -0.649106    18A     -0.619350
      19A     -0.614763    20A     -0.584565    21A     -0.572315
      22A     -0.537064    23A     -0.529932    24A     -0.524376
      25A     -0.509170    26A     -0.505510    27A     -0.482787
      28A     -0.466976    29A     -0.444317    30A     -0.439511
      31A     -0.418796    32A     -0.402208

  @DF-RHF Final Energy:  -312.34385317867174

   => Energetics <=

    Nuclear Repulsion Energy =            389.9681227081221664
    One-Electron Energy =               -1193.9328987161104578
    Two-Electron Energy =                 491.6209228293166120
    Total Energy =                       -312.3438531786717363
  Basis Set: (AUG-CC-PVTZ AUX)
    Blend: AUG-CC-PVTZ-RI
    Molecular point group: c1

    Geometry (in Angstrom), charge = 0, multiplicity = 1:

       Center              X                  Y                   Z               Mass
    ------------   -----------------  -----------------  -----------------  -----------------
         C            1.111007307793     0.324669380193     0.390344529840    12.000000000000
         C           -1.081060492207     0.362163480193     0.398035829840    12.000000000000
         C           -0.004075492207     1.414465480193     0.049601829840    12.000000000000
         C           -0.004087492207    -0.725938519807     0.174785829840    12.000000000000
         C            2.355437507793     0.306524480193    -0.411662170160    12.000000000000
         C           -2.363604492207     0.306536480193    -0.411652170160    12.000000000000
         C            3.215489507793    -0.905299519807    -0.060376170160    12.000000000000
         C           -3.223627492207    -0.905313519807    -0.060383170160    12.000000000000
         H            1.309830507793     0.423157480193     1.469239829840     1.007825032230
         H           -1.317985492207     0.423174480193     1.469241829840     1.007825032230
         H           -0.004070492207     2.365305480193     0.592663829840     1.007825032230
         H           -0.004074492207     1.623149480193    -1.028015170160     1.007825032230
         H           -0.004088492207    -1.056050519807    -0.873073170160     1.007825032230
         H           -0.004091492207    -1.608296519807     0.822616829840     1.007825032230
         H            2.927286507793     1.230527480193    -0.253934170160     1.007825032230
         H            2.095308507793     0.279800480193    -1.478189170160     1.007825032230
         H           -2.103484492207     0.279842480193    -1.478181170160     1.007825032230
         H           -2.935472492207     1.230523480193    -0.253896170160     1.007825032230
         H            2.668347507793    -1.835154519807    -0.243464170160     1.007825032230
         H            4.132872507793    -0.932243519807    -0.656005170160     1.007825032230
         H            3.500573507793    -0.886701519807     0.996283829840     1.007825032230
         H           -3.508674492207    -0.886758519807     0.996286829840     1.007825032230
         H           -4.141032492207    -0.932247519807    -0.655979170160     1.007825032230
         H           -2.676480492207    -1.835154519807    -0.243527170160     1.007825032230

  Basis Set: AUG-CC-PVTZ
    Blend: AUG-CC-PVTZ
  Basis Set: (AUG-CC-PVTZ AUX)
    Blend: AUG-CC-PVTZ-JKFIT
	 Reference Energy          =    -312.3438531786717363 [Eh]
	 Singles Energy            =      -0.0000000000000000 [Eh]
	 Same-Spin Energy          =      -0.3392650530960279 [Eh]
	 Opposite-Spin Energy      =      -1.2320153418206767 [Eh]
	 Correlation Energy        =      -1.5712803949167047 [Eh]
	 Total Energy              =    -313.9151335735884345 [Eh]

	 ================> DF-SCS-MP2 Energies <==================
	-----------------------------------------------------------
	 SCS Same-Spin Scale       =       0.3333333333333333 [-]
	 SCS Opposite-Spin Scale   =       1.2000000000000000 [-]
	 SCS Same-Spin Energy      =      -0.1130883510320093 [Eh]
	 SCS Opposite-Spin Energy  =      -1.4784184101848121 [Eh]
	 SCS Correlation Energy    =      -1.5915067612168214 [Eh]
	 SCS Total Energy          =    -313.9353599398885422 [Eh]
	-----------------------------------------------------------

  Dipole Moment: [D]
     X:     0.0263      Y:     0.0708      Z:     0.0623     Total:     0.0979

*** Psi4 exiting successfully. Buy a developer a beer!
