                               Psi4 1.4a3.dev225

  ==> Input File <==

--------------------------------------------------------------------------
#psi4
#
memory 32 gb

molecule  {
0 1
  C        1.0769770     0.3750480     0.4036540
  C       -1.0769820     0.3750600     0.4036550
  C        0.0000030     1.4273620     0.0552210
  C       -0.0000090    -0.7130420     0.1804050
  C        2.3595160     0.3194210    -0.4060430
  C       -2.3595260     0.3194330    -0.4060330
  C        3.2195680    -0.8924030    -0.0547570
  C       -3.2195490    -0.8924170    -0.0547640
  H        1.3139090     0.4360540     1.4748590
  H       -1.3139070     0.4360710     1.4748610
  H        0.0000080     2.3782020     0.5982830
  H        0.0000040     1.6360460    -1.0223960
  H       -0.0000101    -1.0732017    -0.9628329
  H       -0.0000130    -1.5954000     0.8282360
  H        2.9313650     1.2434240    -0.2483150
  H        2.0993870     0.2926970    -1.4725700
  H       -2.0994060     0.2927390    -1.4725620
  H       -2.9313940     1.2434200    -0.2482770
  H        2.6724260    -1.8222580    -0.2378450
  H        4.1369510    -0.9193470    -0.6503860
  H        3.5046520    -0.8738050     1.0019030
  H       -3.5045960    -0.8738620     1.0019060
  H       -4.1369540    -0.9193510    -0.6503600
  H       -2.6724020    -1.8222580    -0.2379080
units angstrom
no_reorient  #important for SAPT in psi4, default
symmetry c1  #important for SAPT in psi4, default
}

set PROPERTIES_ORIGIN ["COM"]
properties('MP2/aug-cc-pvtz', properties = ['dipole'])
--------------------------------------------------------------------------

    Molecular point group: c1
  Charge       = 0
  Multiplicity = 1
  Basis Set: AUG-CC-PVTZ
    Blend: AUG-CC-PVTZ
  Basis Set: (AUG-CC-PVTZ AUX)
    Blend: AUG-CC-PVTZ-JKFIT

    Orbital Energies [Eh]
    ---------------------

    Doubly Occupied:

       1A    -11.223603     2A    -11.219655     3A    -11.219632
       4A    -11.213506     5A    -11.213505     6A    -11.211486
       7A    -11.209082     8A    -11.209082     9A     -1.140282
      10A     -1.046152    11A     -1.007360    12A     -0.899533
      13A     -0.886767    14A     -0.841131    15A     -0.769630
      16A     -0.737585    17A     -0.652737    18A     -0.616930
      19A     -0.612321    20A     -0.583639    21A     -0.572349
      22A     -0.537395    23A     -0.525791    24A     -0.518136
      25A     -0.507917    26A     -0.505220    27A     -0.481687
      28A     -0.464539    29A     -0.442004    30A     -0.439283
      31A     -0.422337    32A     -0.407736

  @DF-RHF Final Energy:  -312.34025632883748

   => Energetics <=

    Nuclear Repulsion Energy =            389.6747375083029965
    One-Electron Energy =               -1193.3539648189453146
    Two-Electron Energy =                 491.3389709818048345
    Total Energy =                       -312.3402563288374836
  Basis Set: (AUG-CC-PVTZ AUX)
    Blend: AUG-CC-PVTZ-RI
    Molecular point group: c1

    Geometry (in Angstrom), charge = 0, multiplicity = 1:

       Center              X                  Y                   Z               Mass
    ------------   -----------------  -----------------  -----------------  -----------------
         C            1.076977035177     0.358410105606     0.398069091923    12.000000000000
         C           -1.076981964823     0.358422105606     0.398070091923    12.000000000000
         C            0.000003035177     1.410724105606     0.049636091923    12.000000000000
         C           -0.000008964823    -0.729679894394     0.174820091923    12.000000000000
         C            2.359516035177     0.302783105606    -0.411627908077    12.000000000000
         C           -2.359525964823     0.302795105606    -0.411617908077    12.000000000000
         C            3.219568035177    -0.909040894394    -0.060341908077    12.000000000000
         C           -3.219548964823    -0.909054894394    -0.060348908077    12.000000000000
         H            1.313909035177     0.419416105606     1.469274091923     1.007825032230
         H           -1.313906964823     0.419433105606     1.469276091923     1.007825032230
         H            0.000008035177     2.361564105606     0.592698091923     1.007825032230
         H            0.000004035177     1.619408105606    -1.027980908077     1.007825032230
         H           -0.000010064823    -1.089839594394    -0.968417808077     1.007825032230
         H           -0.000012964823    -1.612037894394     0.822651091923     1.007825032230
         H            2.931365035177     1.226786105606    -0.253899908077     1.007825032230
         H            2.099387035177     0.276059105606    -1.478154908077     1.007825032230
         H           -2.099405964823     0.276101105606    -1.478146908077     1.007825032230
         H           -2.931393964823     1.226782105606    -0.253861908077     1.007825032230
         H            2.672426035177    -1.838895894394    -0.243429908077     1.007825032230
         H            4.136951035177    -0.935984894394    -0.655970908077     1.007825032230
         H            3.504652035177    -0.890442894394     0.996318091923     1.007825032230
         H           -3.504595964823    -0.890499894394     0.996321091923     1.007825032230
         H           -4.136953964823    -0.935988894394    -0.655944908077     1.007825032230
         H           -2.672401964823    -1.838895894394    -0.243492908077     1.007825032230

  Basis Set: AUG-CC-PVTZ
    Blend: AUG-CC-PVTZ
  Basis Set: (AUG-CC-PVTZ AUX)
    Blend: AUG-CC-PVTZ-JKFIT
	 Reference Energy          =    -312.3402563288374836 [Eh]
	 Singles Energy            =      -0.0000000000000000 [Eh]
	 Same-Spin Energy          =      -0.3391950425703827 [Eh]
	 Opposite-Spin Energy      =      -1.2323200322438705 [Eh]
	 Correlation Energy        =      -1.5715150748142532 [Eh]
	 Total Energy              =    -313.9117714036517555 [Eh]

	 ================> DF-SCS-MP2 Energies <==================
	-----------------------------------------------------------
	 SCS Same-Spin Scale       =       0.3333333333333333 [-]
	 SCS Opposite-Spin Scale   =       1.2000000000000000 [-]
	 SCS Same-Spin Energy      =      -0.1130650141901276 [Eh]
	 SCS Opposite-Spin Energy  =      -1.4787840386926445 [Eh]
	 SCS Correlation Energy    =      -1.5918490528827720 [Eh]
	 SCS Total Energy          =    -313.9321053817202483 [Eh]
	-----------------------------------------------------------

  Dipole Moment: [D]
     X:    -0.0000      Y:     0.1115      Z:     0.1473     Total:     0.1848

*** Psi4 exiting successfully. Buy a developer a beer!
