                               Psi4 1.4a3.dev225

  ==> Input File <==

--------------------------------------------------------------------------
#psi4
#
memory 32 gb

molecule  {
0 1
  C        1.0769770     0.3750480     0.4036540
  C       -1.0769820     0.3750600     0.4036550
  C        0.0000030     1.4273620     0.0552210
  C       -0.0000090    -0.7130420     0.1804050
  C        2.3595160     0.3194210    -0.4060430
  C       -2.1905216     0.3267631    -0.2993382
  C        3.2195680    -0.8924030    -0.0547570
  C       -3.2195490    -0.8924170    -0.0547640
  H        1.3139090     0.4360540     1.4748590
  H       -1.3139070     0.4360710     1.4748610
  H        0.0000080     2.3782020     0.5982830
  H        0.0000040     1.6360460    -1.0223960
  H       -0.0000100    -1.0431540    -0.8674540
  H       -0.0000130    -1.5954000     0.8282360
  H        2.9313650     1.2434240    -0.2483150
  H        2.0993870     0.2926970    -1.4725700
  H       -2.0994060     0.2927390    -1.4725620
  H       -2.9313940     1.2434200    -0.2482770
  H        2.6724260    -1.8222580    -0.2378450
  H        4.1369510    -0.9193470    -0.6503860
  H        3.5046520    -0.8738050     1.0019030
  H       -3.5045960    -0.8738620     1.0019060
  H       -4.1369540    -0.9193510    -0.6503600
  H       -2.6724020    -1.8222580    -0.2379080
units angstrom
no_reorient  #important for SAPT in psi4, default
symmetry c1  #important for SAPT in psi4, default
}

set PROPERTIES_ORIGIN ["COM"]
properties('MP2/aug-cc-pvtz', properties = ['dipole'])
--------------------------------------------------------------------------

    Molecular point group: c1
  Charge       = 0
  Multiplicity = 1
  Basis Set: AUG-CC-PVTZ
    Blend: AUG-CC-PVTZ
  Basis Set: (AUG-CC-PVTZ AUX)
    Blend: AUG-CC-PVTZ-JKFIT

    Orbital Energies [Eh]
    ---------------------

    Doubly Occupied:

       1A    -11.223065     2A    -11.219782     3A    -11.214329
       4A    -11.214082     5A    -11.213722     6A    -11.213523
       7A    -11.209973     8A    -11.208927     9A     -1.156039
      10A     -1.057261    11A     -1.002270    12A     -0.913135
      13A     -0.895479    14A     -0.848509    15A     -0.759535
      16A     -0.747660    17A     -0.656184    18A     -0.627324
      19A     -0.616435    20A     -0.578966    21A     -0.573313
      22A     -0.546165    23A     -0.533389    24A     -0.532062
      25A     -0.511994    26A     -0.501277    27A     -0.484094
      28A     -0.458039    29A     -0.450604    30A     -0.431795
      31A     -0.403813    32A     -0.401629

  @DF-RHF Final Energy:  -312.29683746201283

   => Energetics <=

    Nuclear Repulsion Energy =            392.8084046210985889
    One-Electron Energy =               -1199.4017344993219467
    Two-Electron Energy =                 494.2964924162105262
    Total Energy =                       -312.2968374620128316
  Basis Set: (AUG-CC-PVTZ AUX)
    Blend: AUG-CC-PVTZ-RI
    Molecular point group: c1

    Geometry (in Angstrom), charge = 0, multiplicity = 1:

       Center              X                  Y                   Z               Mass
    ------------   -----------------  -----------------  -----------------  -----------------
         C            1.058889639200     0.357355534255     0.385792968120    12.000000000000
         C           -1.095069360800     0.357367534255     0.385793968120    12.000000000000
         C           -0.018084360800     1.409669534255     0.037359968120    12.000000000000
         C           -0.018096360800    -0.730734465745     0.162543968120    12.000000000000
         C            2.341428639200     0.301728534255    -0.423904031880    12.000000000000
         C           -2.208608960800     0.309070634255    -0.317199231880    12.000000000000
         C            3.201480639200    -0.910095465745    -0.072618031880    12.000000000000
         C           -3.237636360800    -0.910109465745    -0.072625031880    12.000000000000
         H            1.295821639200     0.418361534255     1.456997968120     1.007825032230
         H           -1.331994360800     0.418378534255     1.456999968120     1.007825032230
         H           -0.018079360800     2.360509534255     0.580421968120     1.007825032230
         H           -0.018083360800     1.618353534255    -1.040257031880     1.007825032230
         H           -0.018097360800    -1.060846465745    -0.885315031880     1.007825032230
         H           -0.018100360800    -1.613092465745     0.810374968120     1.007825032230
         H            2.913277639200     1.225731534255    -0.266176031880     1.007825032230
         H            2.081299639200     0.275004534255    -1.490431031880     1.007825032230
         H           -2.117493360800     0.275046534255    -1.490423031880     1.007825032230
         H           -2.949481360800     1.225727534255    -0.266138031880     1.007825032230
         H            2.654338639200    -1.839950465745    -0.255706031880     1.007825032230
         H            4.118863639200    -0.937039465745    -0.668247031880     1.007825032230
         H            3.486564639200    -0.891497465745     0.984041968120     1.007825032230
         H           -3.522683360800    -0.891554465745     0.984044968120     1.007825032230
         H           -4.155041360800    -0.937043465745    -0.668221031880     1.007825032230
         H           -2.690489360800    -1.839950465745    -0.255769031880     1.007825032230

  Basis Set: AUG-CC-PVTZ
    Blend: AUG-CC-PVTZ
  Basis Set: (AUG-CC-PVTZ AUX)
    Blend: AUG-CC-PVTZ-JKFIT
	 Reference Energy          =    -312.2968374620128316 [Eh]
	 Singles Energy            =      -0.0000000000000000 [Eh]
	 Same-Spin Energy          =      -0.3418892228343303 [Eh]
	 Opposite-Spin Energy      =      -1.2357167327821310 [Eh]
	 Correlation Energy        =      -1.5776059556164612 [Eh]
	 Total Energy              =    -313.8744434176292657 [Eh]

	 ================> DF-SCS-MP2 Energies <==================
	-----------------------------------------------------------
	 SCS Same-Spin Scale       =       0.3333333333333333 [-]
	 SCS Opposite-Spin Scale   =       1.2000000000000000 [-]
	 SCS Same-Spin Energy      =      -0.1139630742781101 [Eh]
	 SCS Opposite-Spin Energy  =      -1.4828600793385571 [Eh]
	 SCS Correlation Energy    =      -1.5968231536166673 [Eh]
	 SCS Total Energy          =    -313.8936606156294715 [Eh]
	-----------------------------------------------------------

  Dipole Moment: [D]
     X:     0.1233      Y:     0.0526      Z:     0.1412     Total:     0.1947

*** Psi4 exiting successfully. Buy a developer a beer!
