                               Psi4 1.4a3.dev225

  ==> Input File <==

--------------------------------------------------------------------------
#psi4
#
memory 32 gb

molecule  {
0 1
  C        1.0769770     0.3750480     0.4036540
  C       -1.0769820     0.3750600     0.4036550
  C        0.0000030     1.4273620     0.0552210
  C       -0.0000090    -0.7130420     0.1804050
  C        2.3595160     0.3194210    -0.4060430
  C       -2.3595260     0.3194330    -0.4060330
  C        3.2195680    -0.8924030    -0.0547570
  C       -3.2195490    -0.8924170    -0.0547640
  H        1.3139090     0.4360540     1.4748590
  H       -1.3139070     0.4360710     1.4748610
  H        0.0000080     2.3782020     0.5982830
  H        0.0000040     1.6360460    -1.0223960
  H       -0.0000100    -1.0431540    -0.8674540
  H       -0.0000130    -1.5954000     0.8282360
  H        3.0355240     1.4117259    -0.2195857
  H        2.0993870     0.2926970    -1.4725700
  H       -2.0994060     0.2927390    -1.4725620
  H       -2.9313940     1.2434200    -0.2482770
  H        2.6724260    -1.8222580    -0.2378450
  H        4.1369510    -0.9193470    -0.6503860
  H        3.5046520    -0.8738050     1.0019030
  H       -3.5045960    -0.8738620     1.0019060
  H       -4.1369540    -0.9193510    -0.6503600
  H       -2.6724020    -1.8222580    -0.2379080
units angstrom
no_reorient  #important for SAPT in psi4, default
symmetry c1  #important for SAPT in psi4, default
}

set PROPERTIES_ORIGIN ["COM"]
properties('MP2/aug-cc-pvtz', properties = ['dipole'])
--------------------------------------------------------------------------

    Molecular point group: c1
  Charge       = 0
  Multiplicity = 1
  Basis Set: AUG-CC-PVTZ
    Blend: AUG-CC-PVTZ
  Basis Set: (AUG-CC-PVTZ AUX)
    Blend: AUG-CC-PVTZ-JKFIT

    Orbital Energies [Eh]
    ---------------------

    Doubly Occupied:

       1A    -11.237389     2A    -11.220903     3A    -11.219521
       4A    -11.214276     5A    -11.213786     6A    -11.212052
       7A    -11.211832     8A    -11.209911     9A     -1.141825
      10A     -1.044527    11A     -1.006139    12A     -0.900401
      13A     -0.892854    14A     -0.838036    15A     -0.763273
      16A     -0.744914    17A     -0.652364    18A     -0.616158
      19A     -0.605132    20A     -0.580523    21A     -0.573377
      22A     -0.538378    23A     -0.532068    24A     -0.526444
      25A     -0.508123    26A     -0.501779    27A     -0.477055
      28A     -0.466153    29A     -0.443792    30A     -0.435521
      31A     -0.420360    32A     -0.405922

  @DF-RHF Final Energy:  -312.32740178411547

   => Energetics <=

    Nuclear Repulsion Energy =            389.2588158396126232
    One-Electron Energy =               -1192.4628596401933009
    Two-Electron Energy =                 490.8766420164651549
    Total Energy =                       -312.3274017841154659
  Basis Set: (AUG-CC-PVTZ AUX)
    Blend: AUG-CC-PVTZ-RI
    Molecular point group: c1

    Geometry (in Angstrom), charge = 0, multiplicity = 1:

       Center              X                  Y                   Z               Mass
    ------------   -----------------  -----------------  -----------------  -----------------
         C            1.076040812564     0.356627262043     0.396953559018    12.000000000000
         C           -1.077918187436     0.356639262043     0.396954559018    12.000000000000
         C           -0.000933187436     1.408941262043     0.048520559018    12.000000000000
         C           -0.000945187436    -0.731462737957     0.173704559018    12.000000000000
         C            2.358579812564     0.301000262043    -0.412743440982    12.000000000000
         C           -2.360462187436     0.301012262043    -0.412733440982    12.000000000000
         C            3.218631812564    -0.910823737957    -0.061457440982    12.000000000000
         C           -3.220485187436    -0.910837737957    -0.061464440982    12.000000000000
         H            1.312972812564     0.417633262043     1.468158559018     1.007825032230
         H           -1.314843187436     0.417650262043     1.468160559018     1.007825032230
         H           -0.000928187436     2.359781262043     0.591582559018     1.007825032230
         H           -0.000932187436     1.617625262043    -1.029096440982     1.007825032230
         H           -0.000946187436    -1.061574737957    -0.874154440982     1.007825032230
         H           -0.000949187436    -1.613820737957     0.821535559018     1.007825032230
         H            3.034587812564     1.393305162043    -0.226286140982     1.007825032230
         H            2.098450812564     0.274276262043    -1.479270440982     1.007825032230
         H           -2.100342187436     0.274318262043    -1.479262440982     1.007825032230
         H           -2.932330187436     1.224999262043    -0.254977440982     1.007825032230
         H            2.671489812564    -1.840678737957    -0.244545440982     1.007825032230
         H            4.136014812564    -0.937767737957    -0.657086440982     1.007825032230
         H            3.503715812564    -0.892225737957     0.995202559018     1.007825032230
         H           -3.505532187436    -0.892282737957     0.995205559018     1.007825032230
         H           -4.137890187436    -0.937771737957    -0.657060440982     1.007825032230
         H           -2.673338187436    -1.840678737957    -0.244608440982     1.007825032230

  Basis Set: AUG-CC-PVTZ
    Blend: AUG-CC-PVTZ
  Basis Set: (AUG-CC-PVTZ AUX)
    Blend: AUG-CC-PVTZ-JKFIT
	 Reference Energy          =    -312.3274017841154659 [Eh]
	 Singles Energy            =      -0.0000000000000000 [Eh]
	 Same-Spin Energy          =      -0.3390686522123587 [Eh]
	 Opposite-Spin Energy      =      -1.2330957582193229 [Eh]
	 Correlation Energy        =      -1.5721644104316816 [Eh]
	 Total Energy              =    -313.8995661945471625 [Eh]

	 ================> DF-SCS-MP2 Energies <==================
	-----------------------------------------------------------
	 SCS Same-Spin Scale       =       0.3333333333333333 [-]
	 SCS Opposite-Spin Scale   =       1.2000000000000000 [-]
	 SCS Same-Spin Energy      =      -0.1130228840707862 [Eh]
	 SCS Opposite-Spin Energy  =      -1.4797149098631874 [Eh]
	 SCS Correlation Energy    =      -1.5927377939339737 [Eh]
	 SCS Total Energy          =    -313.9201395780494295 [Eh]
	-----------------------------------------------------------

  Dipole Moment: [D]
     X:    -0.1328      Y:    -0.1001      Z:     0.0897     Total:     0.1890

*** Psi4 exiting successfully. Buy a developer a beer!
