                               Psi4 1.4a3.dev225

  ==> Input File <==

--------------------------------------------------------------------------
#psi4
#
memory 32 gb

molecule  {
0 1
  C        1.0769770     0.3750480     0.4036540
  C       -1.0769820     0.3750600     0.4036550
  C        0.0000030     1.4273620     0.0552210
  C       -0.0000090    -0.7130420     0.1804050
  C        2.3595160     0.3194210    -0.4060430
  C       -2.3172749     0.3212655    -0.3793593
  C        3.2195680    -0.8924030    -0.0547570
  C       -3.2195490    -0.8924170    -0.0547640
  H        1.3139090     0.4360540     1.4748590
  H       -1.3139070     0.4360710     1.4748610
  H        0.0000080     2.3782020     0.5982830
  H        0.0000040     1.6360460    -1.0223960
  H       -0.0000100    -1.0431540    -0.8674540
  H       -0.0000130    -1.5954000     0.8282360
  H        2.9313650     1.2434240    -0.2483150
  H        2.0993870     0.2926970    -1.4725700
  H       -2.0994060     0.2927390    -1.4725620
  H       -2.9313940     1.2434200    -0.2482770
  H        2.6724260    -1.8222580    -0.2378450
  H        4.1369510    -0.9193470    -0.6503860
  H        3.5046520    -0.8738050     1.0019030
  H       -3.5045960    -0.8738620     1.0019060
  H       -4.1369540    -0.9193510    -0.6503600
  H       -2.6724020    -1.8222580    -0.2379080
units angstrom
no_reorient  #important for SAPT in psi4, default
symmetry c1  #important for SAPT in psi4, default
}

set PROPERTIES_ORIGIN ["COM"]
properties('MP2/aug-cc-pvtz', properties = ['dipole'])
--------------------------------------------------------------------------

    Molecular point group: c1
  Charge       = 0
  Multiplicity = 1
  Basis Set: AUG-CC-PVTZ
    Blend: AUG-CC-PVTZ
  Basis Set: (AUG-CC-PVTZ AUX)
    Blend: AUG-CC-PVTZ-JKFIT

    Orbital Energies [Eh]
    ---------------------

    Doubly Occupied:

       1A    -11.218589     2A    -11.216567     3A    -11.215039
       4A    -11.213544     5A    -11.211737     6A    -11.211407
       7A    -11.210153     8A    -11.209308     9A     -1.143266
      10A     -1.047757    11A     -1.005705    12A     -0.902213
      13A     -0.892725    14A     -0.842658    15A     -0.767057
      16A     -0.744764    17A     -0.652538    18A     -0.616179
      19A     -0.615695    20A     -0.582397    21A     -0.573167
      22A     -0.537385    23A     -0.531140    24A     -0.526745
      25A     -0.508494    26A     -0.503477    27A     -0.480875
      28A     -0.463926    29A     -0.445067    30A     -0.437745
      31A     -0.420141    32A     -0.409178

  @DF-RHF Final Energy:  -312.34385857663307

   => Energetics <=

    Nuclear Repulsion Energy =            390.7427959629413294
    One-Electron Energy =               -1195.4600296192500082
    Two-Electron Energy =                 492.3733750796756681
    Total Energy =                       -312.3438585766330675
  Basis Set: (AUG-CC-PVTZ AUX)
    Blend: AUG-CC-PVTZ-RI
    Molecular point group: c1

    Geometry (in Angstrom), charge = 0, multiplicity = 1:

       Center              X                  Y                   Z               Mass
    ------------   -----------------  -----------------  -----------------  -----------------
         C            1.072455185509     0.357943905109     0.394357083909    12.000000000000
         C           -1.081503814491     0.357955905109     0.394358083909    12.000000000000
         C           -0.004518814491     1.410257905109     0.045924083909    12.000000000000
         C           -0.004530814491    -0.730146094891     0.171108083909    12.000000000000
         C            2.354994185509     0.302316905109    -0.415339916091    12.000000000000
         C           -2.321796714491     0.304161405109    -0.388656216091    12.000000000000
         C            3.215046185509    -0.909507094891    -0.064053916091    12.000000000000
         C           -3.224070814491    -0.909521094891    -0.064060916091    12.000000000000
         H            1.309387185509     0.418949905109     1.465562083909     1.007825032230
         H           -1.318428814491     0.418966905109     1.465564083909     1.007825032230
         H           -0.004513814491     2.361097905109     0.588986083909     1.007825032230
         H           -0.004517814491     1.618941905109    -1.031692916091     1.007825032230
         H           -0.004531814491    -1.060258094891    -0.876750916091     1.007825032230
         H           -0.004534814491    -1.612504094891     0.818939083909     1.007825032230
         H            2.926843185509     1.226319905109    -0.257611916091     1.007825032230
         H            2.094865185509     0.275592905109    -1.481866916091     1.007825032230
         H           -2.103927814491     0.275634905109    -1.481858916091     1.007825032230
         H           -2.935915814491     1.226315905109    -0.257573916091     1.007825032230
         H            2.667904185509    -1.839362094891    -0.247141916091     1.007825032230
         H            4.132429185509    -0.936451094891    -0.659682916091     1.007825032230
         H            3.500130185509    -0.890909094891     0.992606083909     1.007825032230
         H           -3.509117814491    -0.890966094891     0.992609083909     1.007825032230
         H           -4.141475814491    -0.936455094891    -0.659656916091     1.007825032230
         H           -2.676923814491    -1.839362094891    -0.247204916091     1.007825032230

  Basis Set: AUG-CC-PVTZ
    Blend: AUG-CC-PVTZ
  Basis Set: (AUG-CC-PVTZ AUX)
    Blend: AUG-CC-PVTZ-JKFIT
	 Reference Energy          =    -312.3438585766330675 [Eh]
	 Singles Energy            =      -0.0000000000000000 [Eh]
	 Same-Spin Energy          =      -0.3393978117402056 [Eh]
	 Opposite-Spin Energy      =      -1.2319261715330343 [Eh]
	 Correlation Energy        =      -1.5713239832732397 [Eh]
	 Total Energy              =    -313.9151825599063272 [Eh]

	 ================> DF-SCS-MP2 Energies <==================
	-----------------------------------------------------------
	 SCS Same-Spin Scale       =       0.3333333333333333 [-]
	 SCS Opposite-Spin Scale   =       1.2000000000000000 [-]
	 SCS Same-Spin Energy      =      -0.1131326039134019 [Eh]
	 SCS Opposite-Spin Energy  =      -1.4783114058396412 [Eh]
	 SCS Correlation Energy    =      -1.5914440097530429 [Eh]
	 SCS Total Energy          =    -313.9353025863861149 [Eh]
	-----------------------------------------------------------

  Dipole Moment: [D]
     X:     0.0158      Y:     0.0721      Z:     0.0894     Total:     0.1159

*** Psi4 exiting successfully. Buy a developer a beer!
