                               Psi4 1.4a3.dev225

  ==> Input File <==

--------------------------------------------------------------------------
#psi4
#
memory 32 gb

molecule  {
0 1
  C        1.0769770     0.3750480     0.4036540
  C       -1.0769820     0.3750600     0.4036550
  C        0.0000030     1.4273620     0.0552210
  C       -0.0000090    -0.7130420     0.1804050
  C        2.3595160     0.3194210    -0.4060430
  C       -2.3595260     0.3194330    -0.4060330
  C        3.2195680    -0.8924030    -0.0547570
  C       -3.2195490    -0.8924170    -0.0547640
  H        1.3139090     0.4360540     1.4748590
  H       -1.3139070     0.4360710     1.4748610
  H        0.0000080     2.3782020     0.5982830
  H        0.0000040     1.6360460    -1.0223960
  H       -0.0000100    -1.0431540    -0.8674540
  H       -0.0000130    -1.5954000     0.8282360
  H        2.9313650     1.2434240    -0.2483150
  H        2.0993870     0.2926970    -1.4725700
  H       -2.0994060     0.2927390    -1.4725620
  H       -2.9313940     1.2434200    -0.2482770
  H        2.6224272    -1.9072298    -0.2545759
  H        4.1369510    -0.9193470    -0.6503860
  H        3.5046520    -0.8738050     1.0019030
  H       -3.5045960    -0.8738620     1.0019060
  H       -4.1369540    -0.9193510    -0.6503600
  H       -2.6724020    -1.8222580    -0.2379080
units angstrom
no_reorient  #important for SAPT in psi4, default
symmetry c1  #important for SAPT in psi4, default
}

set PROPERTIES_ORIGIN ["COM"]
properties('MP2/aug-cc-pvtz', properties = ['dipole'])
--------------------------------------------------------------------------

    Molecular point group: c1
  Charge       = 0
  Multiplicity = 1
  Basis Set: AUG-CC-PVTZ
    Blend: AUG-CC-PVTZ
  Basis Set: (AUG-CC-PVTZ AUX)
    Blend: AUG-CC-PVTZ-JKFIT

    Orbital Energies [Eh]
    ---------------------

    Doubly Occupied:

       1A    -11.221442     2A    -11.218643     3A    -11.218273
       4A    -11.214727     5A    -11.213343     6A    -11.211245
       7A    -11.211139     8A    -11.209104     9A     -1.140644
      10A     -1.045263    11A     -1.005920    12A     -0.896627
      13A     -0.891864    14A     -0.838174    15A     -0.768123
      16A     -0.743821    17A     -0.651611    18A     -0.615600
      19A     -0.610929    20A     -0.582388    21A     -0.572947
      22A     -0.537121    23A     -0.530599    24A     -0.525447
      25A     -0.506529    26A     -0.497767    27A     -0.478183
      28A     -0.464682    29A     -0.442229    30A     -0.441226
      31A     -0.421309    32A     -0.407164

  @DF-RHF Final Energy:  -312.34033759353696

   => Energetics <=

    Nuclear Repulsion Energy =            389.7732527573156744
    One-Electron Energy =               -1193.5590099607909451
    Two-Electron Energy =                 491.4454196099382557
    Total Energy =                       -312.3403375935369581
  Basis Set: (AUG-CC-PVTZ AUX)
    Blend: AUG-CC-PVTZ-RI
    Molecular point group: c1

    Geometry (in Angstrom), charge = 0, multiplicity = 1:

       Center              X                  Y                   Z               Mass
    ------------   -----------------  -----------------  -----------------  -----------------
         C            1.077426442993     0.358903784838     0.397362173026    12.000000000000
         C           -1.076532557007     0.358915784838     0.397363173026    12.000000000000
         C            0.000452442993     1.411217784838     0.048929173026    12.000000000000
         C            0.000440442993    -0.729186215162     0.174113173026    12.000000000000
         C            2.359965442993     0.303276784838    -0.412334826974    12.000000000000
         C           -2.359076557007     0.303288784838    -0.412324826974    12.000000000000
         C            3.220017442993    -0.908547215162    -0.061048826974    12.000000000000
         C           -3.219099557007    -0.908561215162    -0.061055826974    12.000000000000
         H            1.314358442993     0.419909784838     1.468567173026     1.007825032230
         H           -1.313457557007     0.419926784838     1.468569173026     1.007825032230
         H            0.000457442993     2.362057784838     0.591991173026     1.007825032230
         H            0.000453442993     1.619901784838    -1.028687826974     1.007825032230
         H            0.000439442993    -1.059298215162    -0.873745826974     1.007825032230
         H            0.000436442993    -1.611544215162     0.821944173026     1.007825032230
         H            2.931814442993     1.227279784838    -0.254606826974     1.007825032230
         H            2.099836442993     0.276552784838    -1.478861826974     1.007825032230
         H           -2.098956557007     0.276594784838    -1.478853826974     1.007825032230
         H           -2.930944557007     1.227275784838    -0.254568826974     1.007825032230
         H            2.622876642993    -1.923374015162    -0.260867726974     1.007825032230
         H            4.137400442993    -0.935491215162    -0.656677826974     1.007825032230
         H            3.505101442993    -0.889949215162     0.995611173026     1.007825032230
         H           -3.504146557007    -0.890006215162     0.995614173026     1.007825032230
         H           -4.136504557007    -0.935495215162    -0.656651826974     1.007825032230
         H           -2.671952557007    -1.838402215162    -0.244199826974     1.007825032230

  Basis Set: AUG-CC-PVTZ
    Blend: AUG-CC-PVTZ
  Basis Set: (AUG-CC-PVTZ AUX)
    Blend: AUG-CC-PVTZ-JKFIT
	 Reference Energy          =    -312.3403375935369581 [Eh]
	 Singles Energy            =      -0.0000000000000000 [Eh]
	 Same-Spin Energy          =      -0.3390660596067304 [Eh]
	 Opposite-Spin Energy      =      -1.2322152481942386 [Eh]
	 Correlation Energy        =      -1.5712813078009691 [Eh]
	 Total Energy              =    -313.9116189013379312 [Eh]

	 ================> DF-SCS-MP2 Energies <==================
	-----------------------------------------------------------
	 SCS Same-Spin Scale       =       0.3333333333333333 [-]
	 SCS Opposite-Spin Scale   =       1.2000000000000000 [-]
	 SCS Same-Spin Energy      =      -0.1130220198689101 [Eh]
	 SCS Opposite-Spin Energy  =      -1.4786582978330862 [Eh]
	 SCS Correlation Energy    =      -1.5916803177019963 [Eh]
	 SCS Total Energy          =    -313.9320179112389724 [Eh]
	-----------------------------------------------------------

  Dipole Moment: [D]
     X:     0.0194      Y:     0.1418      Z:     0.0907     Total:     0.1694

*** Psi4 exiting successfully. Buy a developer a beer!
