                               Psi4 1.4a3.dev225

  ==> Input File <==

--------------------------------------------------------------------------
#psi4
#
memory 32 gb

molecule  {
0 1
  C        1.0769770     0.3750480     0.4036540
  C       -1.0769820     0.3750600     0.4036550
  C        0.0000030     1.4273620     0.0552210
  C        0.1392111    -0.8537008     0.1515455
  C        2.3595160     0.3194210    -0.4060430
  C       -2.3595260     0.3194330    -0.4060330
  C        3.2195680    -0.8924030    -0.0547570
  C       -3.2195490    -0.8924170    -0.0547640
  H        1.3139090     0.4360540     1.4748590
  H       -1.3139070     0.4360710     1.4748610
  H        0.0000080     2.3782020     0.5982830
  H        0.0000040     1.6360460    -1.0223960
  H       -0.0000100    -1.0431540    -0.8674540
  H       -0.0000130    -1.5954000     0.8282360
  H        2.9313650     1.2434240    -0.2483150
  H        2.0993870     0.2926970    -1.4725700
  H       -2.0994060     0.2927390    -1.4725620
  H       -2.9313940     1.2434200    -0.2482770
  H        2.6724260    -1.8222580    -0.2378450
  H        4.1369510    -0.9193470    -0.6503860
  H        3.5046520    -0.8738050     1.0019030
  H       -3.5045960    -0.8738620     1.0019060
  H       -4.1369540    -0.9193510    -0.6503600
  H       -2.6724020    -1.8222580    -0.2379080
units angstrom
no_reorient  #important for SAPT in psi4, default
symmetry c1  #important for SAPT in psi4, default
}

set PROPERTIES_ORIGIN ["COM"]
properties('MP2/aug-cc-pvtz', properties = ['dipole'])
--------------------------------------------------------------------------

    Molecular point group: c1
  Charge       = 0
  Multiplicity = 1
  Basis Set: AUG-CC-PVTZ
    Blend: AUG-CC-PVTZ
  Basis Set: (AUG-CC-PVTZ AUX)
    Blend: AUG-CC-PVTZ-JKFIT

    Orbital Energies [Eh]
    ---------------------

    Doubly Occupied:

       1A    -11.227495     2A    -11.224829     3A    -11.213876
       4A    -11.211815     5A    -11.210886     6A    -11.208728
       7A    -11.208613     8A    -11.207987     9A     -1.122239
      10A     -1.044270    11A     -1.002430    12A     -0.904703
      13A     -0.891884    14A     -0.839977    15A     -0.763777
      16A     -0.747630    17A     -0.656572    18A     -0.614152
      19A     -0.607485    20A     -0.585376    21A     -0.571762
      22A     -0.556995    23A     -0.535384    24A     -0.521277
      25A     -0.506942    26A     -0.500922    27A     -0.482187
      28A     -0.463645    29A     -0.451675    30A     -0.444757
      31A     -0.419877    32A     -0.366229

  @DF-RHF Final Energy:  -312.31799755377205

   => Energetics <=

    Nuclear Repulsion Energy =            387.9428271564056558
    One-Electron Energy =               -1189.8889015892325460
    Two-Electron Energy =                 489.6280768790548450
    Total Energy =                       -312.3179975537720452
  Basis Set: (AUG-CC-PVTZ AUX)
    Blend: AUG-CC-PVTZ-RI
    Molecular point group: c1

    Geometry (in Angstrom), charge = 0, multiplicity = 1:

       Center              X                  Y                   Z               Mass
    ------------   -----------------  -----------------  -----------------  -----------------
         C            1.062077250891     0.373193782854     0.400300425788    12.000000000000
         C           -1.091881749109     0.373205782854     0.400301425788    12.000000000000
         C           -0.014896749109     1.425507782854     0.051867425788    12.000000000000
         C            0.124311350891    -0.855555017146     0.148191925788    12.000000000000
         C            2.344616250891     0.317566782854    -0.409396574212    12.000000000000
         C           -2.374425749109     0.317578782854    -0.409386574212    12.000000000000
         C            3.204668250891    -0.894257217146    -0.058110574212    12.000000000000
         C           -3.234448749109    -0.894271217146    -0.058117574212    12.000000000000
         H            1.299009250891     0.434199782854     1.471505425788     1.007825032230
         H           -1.328806749109     0.434216782854     1.471507425788     1.007825032230
         H           -0.014891749109     2.376347782854     0.594929425788     1.007825032230
         H           -0.014895749109     1.634191782854    -1.025749574212     1.007825032230
         H           -0.014909749109    -1.045008217146    -0.870807574212     1.007825032230
         H           -0.014912749109    -1.597254217146     0.824882425788     1.007825032230
         H            2.916465250891     1.241569782854    -0.251668574212     1.007825032230
         H            2.084487250891     0.290842782854    -1.475923574212     1.007825032230
         H           -2.114305749109     0.290884782854    -1.475915574212     1.007825032230
         H           -2.946293749109     1.241565782854    -0.251630574212     1.007825032230
         H            2.657526250891    -1.824112217146    -0.241198574212     1.007825032230
         H            4.122051250891    -0.921201217146    -0.653739574212     1.007825032230
         H            3.489752250891    -0.875659217146     0.998549425788     1.007825032230
         H           -3.519495749109    -0.875716217146     0.998552425788     1.007825032230
         H           -4.151853749109    -0.921205217146    -0.653713574212     1.007825032230
         H           -2.687301749109    -1.824112217146    -0.241261574212     1.007825032230

  Basis Set: AUG-CC-PVTZ
    Blend: AUG-CC-PVTZ
  Basis Set: (AUG-CC-PVTZ AUX)
    Blend: AUG-CC-PVTZ-JKFIT
	 Reference Energy          =    -312.3179975537720452 [Eh]
	 Singles Energy            =      -0.0000000000000000 [Eh]
	 Same-Spin Energy          =      -0.3398529485378755 [Eh]
	 Opposite-Spin Energy      =      -1.2345248539304601 [Eh]
	 Correlation Energy        =      -1.5743778024683355 [Eh]
	 Total Energy              =    -313.8923753562403931 [Eh]

	 ================> DF-SCS-MP2 Energies <==================
	-----------------------------------------------------------
	 SCS Same-Spin Scale       =       0.3333333333333333 [-]
	 SCS Opposite-Spin Scale   =       1.2000000000000000 [-]
	 SCS Same-Spin Energy      =      -0.1132843161792918 [Eh]
	 SCS Opposite-Spin Energy  =      -1.4814298247165520 [Eh]
	 SCS Correlation Energy    =      -1.5947141408958438 [Eh]
	 SCS Total Energy          =    -313.9127116946679052 [Eh]
	-----------------------------------------------------------

  Dipole Moment: [D]
     X:    -0.1233      Y:     0.1434      Z:     0.1217     Total:     0.2249

*** Psi4 exiting successfully. Buy a developer a beer!
