                               Psi4 1.4a3.dev225

  ==> Input File <==

--------------------------------------------------------------------------
#psi4
#
memory 32 gb

molecule  {
0 1
  C        1.0769770     0.3750480     0.4036540
  C       -1.0769820     0.3750600     0.4036550
  C        0.0000030     1.4273620     0.0552210
  C       -0.0000090    -0.7130420     0.1804050
  C        2.3595160     0.3194210    -0.4060430
  C       -2.3595260     0.3194330    -0.4060330
  C        3.2195680    -0.8924030    -0.0547570
  C       -3.2082845    -0.8765443    -0.0593649
  H        1.3139090     0.4360540     1.4748590
  H       -1.3139070     0.4360710     1.4748610
  H        0.0000080     2.3782020     0.5982830
  H        0.0000040     1.6360460    -1.0223960
  H       -0.0000100    -1.0431540    -0.8674540
  H       -0.0000130    -1.5954000     0.8282360
  H        2.9313650     1.2434240    -0.2483150
  H        2.0993870     0.2926970    -1.4725700
  H       -2.0994060     0.2927390    -1.4725620
  H       -2.9313940     1.2434200    -0.2482770
  H        2.6724260    -1.8222580    -0.2378450
  H        4.1369510    -0.9193470    -0.6503860
  H        3.5046520    -0.8738050     1.0019030
  H       -3.5045960    -0.8738620     1.0019060
  H       -4.1369540    -0.9193510    -0.6503600
  H       -2.6724020    -1.8222580    -0.2379080
units angstrom
no_reorient  #important for SAPT in psi4, default
symmetry c1  #important for SAPT in psi4, default
}

set PROPERTIES_ORIGIN ["COM"]
properties('MP2/aug-cc-pvtz', properties = ['dipole'])
--------------------------------------------------------------------------

    Molecular point group: c1
  Charge       = 0
  Multiplicity = 1
  Basis Set: AUG-CC-PVTZ
    Blend: AUG-CC-PVTZ
  Basis Set: (AUG-CC-PVTZ AUX)
    Blend: AUG-CC-PVTZ-JKFIT

    Orbital Energies [Eh]
    ---------------------

    Doubly Occupied:

       1A    -11.218430     2A    -11.218376     3A    -11.213404
       4A    -11.212572     5A    -11.211455     6A    -11.211016
       7A    -11.210167     8A    -11.209181     9A     -1.140913
      10A     -1.047682    11A     -1.008947    12A     -0.898623
      13A     -0.892034    14A     -0.840115    15A     -0.769280
      16A     -0.743891    17A     -0.651862    18A     -0.617218
      19A     -0.612979    20A     -0.584700    21A     -0.572709
      22A     -0.538041    23A     -0.530731    24A     -0.526002
      25A     -0.506378    26A     -0.504539    27A     -0.480949
      28A     -0.463666    29A     -0.442052    30A     -0.441934
      31A     -0.421883    32A     -0.406985

  @DF-RHF Final Energy:  -312.34615076428781

   => Energetics <=

    Nuclear Repulsion Energy =            390.3924254981643003
    One-Electron Energy =               -1194.7797265034050724
    Two-Electron Energy =                 492.0411502409529021
    Total Energy =                       -312.3461507642878132
  Basis Set: (AUG-CC-PVTZ AUX)
    Blend: AUG-CC-PVTZ-RI
    Molecular point group: c1

    Geometry (in Angstrom), charge = 0, multiplicity = 1:

       Center              X                  Y                   Z               Mass
    ------------   -----------------  -----------------  -----------------  -----------------
         C            1.075771471217     0.356441277696     0.397704192304    12.000000000000
         C           -1.078187528783     0.356453277696     0.397705192304    12.000000000000
         C           -0.001202528783     1.408755277696     0.049271192304    12.000000000000
         C           -0.001214528783    -0.731648722304     0.174455192304    12.000000000000
         C            2.358310471217     0.300814277696    -0.411992807696    12.000000000000
         C           -2.360731528783     0.300826277696    -0.411982807696    12.000000000000
         C            3.218362471217    -0.911009722304    -0.060706807696    12.000000000000
         C           -3.209490028783    -0.895151022304    -0.065314707696    12.000000000000
         H            1.312703471217     0.417447277696     1.468909192304     1.007825032230
         H           -1.315112528783     0.417464277696     1.468911192304     1.007825032230
         H           -0.001197528783     2.359595277696     0.592333192304     1.007825032230
         H           -0.001201528783     1.617439277696    -1.028345807696     1.007825032230
         H           -0.001215528783    -1.061760722304    -0.873403807696     1.007825032230
         H           -0.001218528783    -1.614006722304     0.822286192304     1.007825032230
         H            2.930159471217     1.224817277696    -0.254264807696     1.007825032230
         H            2.098181471217     0.274090277696    -1.478519807696     1.007825032230
         H           -2.100611528783     0.274132277696    -1.478511807696     1.007825032230
         H           -2.932599528783     1.224813277696    -0.254226807696     1.007825032230
         H            2.671220471217    -1.840864722304    -0.243794807696     1.007825032230
         H            4.135745471217    -0.937953722304    -0.656335807696     1.007825032230
         H            3.503446471217    -0.892411722304     0.995953192304     1.007825032230
         H           -3.505801528783    -0.892468722304     0.995956192304     1.007825032230
         H           -4.138159528783    -0.937957722304    -0.656309807696     1.007825032230
         H           -2.673607528783    -1.840864722304    -0.243857807696     1.007825032230

  Basis Set: AUG-CC-PVTZ
    Blend: AUG-CC-PVTZ
  Basis Set: (AUG-CC-PVTZ AUX)
    Blend: AUG-CC-PVTZ-JKFIT
	 Reference Energy          =    -312.3461507642878132 [Eh]
	 Singles Energy            =      -0.0000000000000000 [Eh]
	 Same-Spin Energy          =      -0.3392110346892980 [Eh]
	 Opposite-Spin Energy      =      -1.2316270818949482 [Eh]
	 Correlation Energy        =      -1.5708381165842462 [Eh]
	 Total Energy              =    -313.9169888808720543 [Eh]

	 ================> DF-SCS-MP2 Energies <==================
	-----------------------------------------------------------
	 SCS Same-Spin Scale       =       0.3333333333333333 [-]
	 SCS Opposite-Spin Scale   =       1.2000000000000000 [-]
	 SCS Same-Spin Energy      =      -0.1130703448964327 [Eh]
	 SCS Opposite-Spin Energy  =      -1.4779524982739378 [Eh]
	 SCS Correlation Energy    =      -1.5910228431703706 [Eh]
	 SCS Total Energy          =    -313.9371736074581918 [Eh]
	-----------------------------------------------------------

  Dipole Moment: [D]
     X:     0.0005      Y:     0.0743      Z:     0.0816     Total:     0.1104

*** Psi4 exiting successfully. Buy a developer a beer!
