                               Psi4 1.4a3.dev225

  ==> Input File <==

--------------------------------------------------------------------------
#psi4
#
memory 32 gb

molecule  {
0 1
  C        1.0769770     0.3750480     0.4036540
  C       -1.0769820     0.3750600     0.4036550
  C        0.1393699     1.2911863     0.1003103
  C       -0.0000090    -0.7130420     0.1804050
  C        2.3595160     0.3194210    -0.4060430
  C       -2.3595260     0.3194330    -0.4060330
  C        3.2195680    -0.8924030    -0.0547570
  C       -3.2195490    -0.8924170    -0.0547640
  H        1.3139090     0.4360540     1.4748590
  H       -1.3139070     0.4360710     1.4748610
  H        0.0000080     2.3782020     0.5982830
  H        0.0000040     1.6360460    -1.0223960
  H       -0.0000100    -1.0431540    -0.8674540
  H       -0.0000130    -1.5954000     0.8282360
  H        2.9313650     1.2434240    -0.2483150
  H        2.0993870     0.2926970    -1.4725700
  H       -2.0994060     0.2927390    -1.4725620
  H       -2.9313940     1.2434200    -0.2482770
  H        2.6724260    -1.8222580    -0.2378450
  H        4.1369510    -0.9193470    -0.6503860
  H        3.5046520    -0.8738050     1.0019030
  H       -3.5045960    -0.8738620     1.0019060
  H       -4.1369540    -0.9193510    -0.6503600
  H       -2.6724020    -1.8222580    -0.2379080
units angstrom
no_reorient  #important for SAPT in psi4, default
symmetry c1  #important for SAPT in psi4, default
}

set PROPERTIES_ORIGIN ["COM"]
properties('MP2/aug-cc-pvtz', properties = ['dipole'])
--------------------------------------------------------------------------

    Molecular point group: c1
  Charge       = 0
  Multiplicity = 1
  Basis Set: AUG-CC-PVTZ
    Blend: AUG-CC-PVTZ
  Basis Set: (AUG-CC-PVTZ AUX)
    Blend: AUG-CC-PVTZ-JKFIT

    Orbital Energies [Eh]
    ---------------------

    Doubly Occupied:

       1A    -11.222762     2A    -11.216793     3A    -11.216093
       4A    -11.215336     5A    -11.215323     6A    -11.211387
       7A    -11.210058     8A    -11.207685     9A     -1.173467
      10A     -1.049995    11A     -1.013870    12A     -0.913227
      13A     -0.882293    14A     -0.842631    15A     -0.777303
      16A     -0.739338    17A     -0.652314    18A     -0.620164
      19A     -0.617699    20A     -0.589960    21A     -0.584378
      22A     -0.543941    23A     -0.528400    24A     -0.516422
      25A     -0.509556    26A     -0.504536    27A     -0.481216
      28A     -0.470949    29A     -0.463717    30A     -0.427836
      31A     -0.417058    32A     -0.389775

  @DF-RHF Final Energy:  -312.29952547503456

   => Energetics <=

    Nuclear Repulsion Energy =            392.8253323084357476
    One-Electron Energy =               -1199.3987521435517465
    Two-Electron Energy =                 494.2738943600814991
    Total Energy =                       -312.2995254750345566
  Basis Set: (AUG-CC-PVTZ AUX)
    Blend: AUG-CC-PVTZ-RI
    Molecular point group: c1

    Geometry (in Angstrom), charge = 0, multiplicity = 1:

       Center              X                  Y                   Z               Mass
    ------------   -----------------  -----------------  -----------------  -----------------
         C            1.062061539882     0.372713987057     0.392386187099    12.000000000000
         C           -1.091897460118     0.372725987057     0.392387187099    12.000000000000
         C            0.124454439882     1.288852287057     0.089042487099    12.000000000000
         C           -0.014924460118    -0.715376012943     0.169137187099    12.000000000000
         C            2.344600539882     0.317086987057    -0.417310812901    12.000000000000
         C           -2.374441460118     0.317098987057    -0.417300812901    12.000000000000
         C            3.204652539882    -0.894737012943    -0.066024812901    12.000000000000
         C           -3.234464460118    -0.894751012943    -0.066031812901    12.000000000000
         H            1.298993539882     0.433719987057     1.463591187099     1.007825032230
         H           -1.328822460118     0.433736987057     1.463593187099     1.007825032230
         H           -0.014907460118     2.375867987057     0.587015187099     1.007825032230
         H           -0.014911460118     1.633711987057    -1.033663812901     1.007825032230
         H           -0.014925460118    -1.045488012943    -0.878721812901     1.007825032230
         H           -0.014928460118    -1.597734012943     0.816968187099     1.007825032230
         H            2.916449539882     1.241089987057    -0.259582812901     1.007825032230
         H            2.084471539882     0.290362987057    -1.483837812901     1.007825032230
         H           -2.114321460118     0.290404987057    -1.483829812901     1.007825032230
         H           -2.946309460118     1.241085987057    -0.259544812901     1.007825032230
         H            2.657510539882    -1.824592012943    -0.249112812901     1.007825032230
         H            4.122035539882    -0.921681012943    -0.661653812901     1.007825032230
         H            3.489736539882    -0.876139012943     0.990635187099     1.007825032230
         H           -3.519511460118    -0.876196012943     0.990638187099     1.007825032230
         H           -4.151869460118    -0.921685012943    -0.661627812901     1.007825032230
         H           -2.687317460118    -1.824592012943    -0.249175812901     1.007825032230

  Basis Set: AUG-CC-PVTZ
    Blend: AUG-CC-PVTZ
  Basis Set: (AUG-CC-PVTZ AUX)
    Blend: AUG-CC-PVTZ-JKFIT
	 Reference Energy          =    -312.2995254750345566 [Eh]
	 Singles Energy            =      -0.0000000000000000 [Eh]
	 Same-Spin Energy          =      -0.3417258048467736 [Eh]
	 Opposite-Spin Energy      =      -1.2344994183686089 [Eh]
	 Correlation Energy        =      -1.5762252232153826 [Eh]
	 Total Energy              =    -313.8757506982499308 [Eh]

	 ================> DF-SCS-MP2 Energies <==================
	-----------------------------------------------------------
	 SCS Same-Spin Scale       =       0.3333333333333333 [-]
	 SCS Opposite-Spin Scale   =       1.2000000000000000 [-]
	 SCS Same-Spin Energy      =      -0.1139086016155912 [Eh]
	 SCS Opposite-Spin Energy  =      -1.4813993020423306 [Eh]
	 SCS Correlation Energy    =      -1.5953079036579219 [Eh]
	 SCS Total Energy          =    -313.8948333786924536 [Eh]
	-----------------------------------------------------------

  Dipole Moment: [D]
     X:    -0.0531      Y:    -0.1098      Z:     0.0577     Total:     0.1349

*** Psi4 exiting successfully. Buy a developer a beer!
