                               Psi4 1.4a3.dev225

  ==> Input File <==

--------------------------------------------------------------------------
#psi4
#
memory 32 gb

molecule  {
0 1
  C        1.0913227     0.3753931     0.4259202
  C       -1.0769820     0.3750600     0.4036550
  C        0.0000030     1.4273620     0.0552210
  C       -0.0000090    -0.7130420     0.1804050
  C        2.3595160     0.3194210    -0.4060430
  C       -2.3595260     0.3194330    -0.4060330
  C        3.2195680    -0.8924030    -0.0547570
  C       -3.2195490    -0.8924170    -0.0547640
  H        1.3139090     0.4360540     1.4748590
  H       -1.3139070     0.4360710     1.4748610
  H        0.0000080     2.3782020     0.5982830
  H        0.0000040     1.6360460    -1.0223960
  H       -0.0000100    -1.0431540    -0.8674540
  H       -0.0000130    -1.5954000     0.8282360
  H        2.9313650     1.2434240    -0.2483150
  H        2.0993870     0.2926970    -1.4725700
  H       -2.0994060     0.2927390    -1.4725620
  H       -2.9313940     1.2434200    -0.2482770
  H        2.6724260    -1.8222580    -0.2378450
  H        4.1369510    -0.9193470    -0.6503860
  H        3.5046520    -0.8738050     1.0019030
  H       -3.5045960    -0.8738620     1.0019060
  H       -4.1369540    -0.9193510    -0.6503600
  H       -2.6724020    -1.8222580    -0.2379080
units angstrom
no_reorient  #important for SAPT in psi4, default
symmetry c1  #important for SAPT in psi4, default
}

set PROPERTIES_ORIGIN ["COM"]
properties('MP2/aug-cc-pvtz', properties = ['dipole'])
--------------------------------------------------------------------------

    Molecular point group: c1
  Charge       = 0
  Multiplicity = 1
  Basis Set: AUG-CC-PVTZ
    Blend: AUG-CC-PVTZ
  Basis Set: (AUG-CC-PVTZ AUX)
    Blend: AUG-CC-PVTZ-JKFIT

    Orbital Energies [Eh]
    ---------------------

    Doubly Occupied:

       1A    -11.218034     2A    -11.217470     3A    -11.213350
       4A    -11.213299     5A    -11.211982     6A    -11.211573
       7A    -11.209093     8A    -11.208841     9A     -1.137601
      10A     -1.046029    11A     -1.006657    12A     -0.899247
      13A     -0.890184    14A     -0.840505    15A     -0.770580
      16A     -0.745886    17A     -0.649970    18A     -0.617025
      19A     -0.611847    20A     -0.584703    21A     -0.571848
      22A     -0.538118    23A     -0.530505    24A     -0.524246
      25A     -0.507871    26A     -0.505196    27A     -0.481984
      28A     -0.467155    29A     -0.445349    30A     -0.439042
      31A     -0.417870    32A     -0.405682

  @DF-RHF Final Energy:  -312.34615211876365

   => Energetics <=

    Nuclear Repulsion Energy =            389.8341460262250280
    One-Electron Energy =               -1193.6831122472542575
    Two-Electron Energy =                 491.5028141022656314
    Total Energy =                       -312.3461521187636549
  Basis Set: (AUG-CC-PVTZ AUX)
    Blend: AUG-CC-PVTZ-RI
    Molecular point group: c1

    Geometry (in Angstrom), charge = 0, multiplicity = 1:

       Center              X                  Y                   Z               Mass
    ------------   -----------------  -----------------  -----------------  -----------------
         C            1.089787411272     0.358448191447     0.417094988751    12.000000000000
         C           -1.078517288728     0.358115091447     0.394829788751    12.000000000000
         C           -0.001532288728     1.410417091447     0.046395788751    12.000000000000
         C           -0.001544288728    -0.729986908553     0.171579788751    12.000000000000
         C            2.357980711272     0.302476091447    -0.414868211249    12.000000000000
         C           -2.361061288728     0.302488091447    -0.414858211249    12.000000000000
         C            3.218032711272    -0.909347908553    -0.063582211249    12.000000000000
         C           -3.221084288728    -0.909361908553    -0.063589211249    12.000000000000
         H            1.312373711272     0.419109091447     1.466033788751     1.007825032230
         H           -1.315442288728     0.419126091447     1.466035788751     1.007825032230
         H           -0.001527288728     2.361257091447     0.589457788751     1.007825032230
         H           -0.001531288728     1.619101091447    -1.031221211249     1.007825032230
         H           -0.001545288728    -1.060098908553    -0.876279211249     1.007825032230
         H           -0.001548288728    -1.612344908553     0.819410788751     1.007825032230
         H            2.929829711272     1.226479091447    -0.257140211249     1.007825032230
         H            2.097851711272     0.275752091447    -1.481395211249     1.007825032230
         H           -2.100941288728     0.275794091447    -1.481387211249     1.007825032230
         H           -2.932929288728     1.226475091447    -0.257102211249     1.007825032230
         H            2.670890711272    -1.839202908553    -0.246670211249     1.007825032230
         H            4.135415711272    -0.936291908553    -0.659211211249     1.007825032230
         H            3.503116711272    -0.890749908553     0.993077788751     1.007825032230
         H           -3.506131288728    -0.890806908553     0.993080788751     1.007825032230
         H           -4.138489288728    -0.936295908553    -0.659185211249     1.007825032230
         H           -2.673937288728    -1.839202908553    -0.246733211249     1.007825032230

  Basis Set: AUG-CC-PVTZ
    Blend: AUG-CC-PVTZ
  Basis Set: (AUG-CC-PVTZ AUX)
    Blend: AUG-CC-PVTZ-JKFIT
	 Reference Energy          =    -312.3461521187636549 [Eh]
	 Singles Energy            =      -0.0000000000000000 [Eh]
	 Same-Spin Energy          =      -0.3389531860683280 [Eh]
	 Opposite-Spin Energy      =      -1.2315085877471348 [Eh]
	 Correlation Energy        =      -1.5704617738154627 [Eh]
	 Total Energy              =    -313.9166138925791074 [Eh]

	 ================> DF-SCS-MP2 Energies <==================
	-----------------------------------------------------------
	 SCS Same-Spin Scale       =       0.3333333333333333 [-]
	 SCS Opposite-Spin Scale   =       1.2000000000000000 [-]
	 SCS Same-Spin Energy      =      -0.1129843953561093 [Eh]
	 SCS Opposite-Spin Energy  =      -1.4778103052965617 [Eh]
	 SCS Correlation Energy    =      -1.5907947006526710 [Eh]
	 SCS Total Energy          =    -313.9369468194163346 [Eh]
	-----------------------------------------------------------

  Dipole Moment: [D]
     X:     0.0087      Y:     0.0764      Z:     0.0903     Total:     0.1186

*** Psi4 exiting successfully. Buy a developer a beer!
