                               Psi4 1.4a3.dev225

  ==> Input File <==

--------------------------------------------------------------------------
#psi4
#
memory 32 gb

molecule  {
0 1
  C        1.0769770     0.3750480     0.4036540
  C       -1.0769820     0.3750600     0.4036550
  C        0.0000030     1.4273620     0.0552210
  C       -0.0000090    -0.7130420     0.1804050
  C        2.3595160     0.3194210    -0.4060430
  C       -2.3595260     0.3194330    -0.4060330
  C        3.2195680    -0.8924030    -0.0547570
  C       -3.2195490    -0.8924170    -0.0547640
  H        1.3139090     0.4360540     1.4748590
  H       -1.3139070     0.4360710     1.4748610
  H        0.0000080     2.3782020     0.5982830
  H        0.0000040     1.6360460    -1.0223960
  H       -0.0000100    -1.0281302    -0.8197645
  H       -0.0000130    -1.5954000     0.8282360
  H        2.9313650     1.2434240    -0.2483150
  H        2.0993870     0.2926970    -1.4725700
  H       -2.0994060     0.2927390    -1.4725620
  H       -2.9313940     1.2434200    -0.2482770
  H        2.6724260    -1.8222580    -0.2378450
  H        4.1369510    -0.9193470    -0.6503860
  H        3.5046520    -0.8738050     1.0019030
  H       -3.5045960    -0.8738620     1.0019060
  H       -4.1369540    -0.9193510    -0.6503600
  H       -2.6724020    -1.8222580    -0.2379080
units angstrom
no_reorient  #important for SAPT in psi4, default
symmetry c1  #important for SAPT in psi4, default
}

set PROPERTIES_ORIGIN ["COM"]
properties('MP2/aug-cc-pvtz', properties = ['dipole'])
--------------------------------------------------------------------------

    Molecular point group: c1
  Charge       = 0
  Multiplicity = 1
  Basis Set: AUG-CC-PVTZ
    Blend: AUG-CC-PVTZ
  Basis Set: (AUG-CC-PVTZ AUX)
    Blend: AUG-CC-PVTZ-JKFIT

    Orbital Energies [Eh]
    ---------------------

    Doubly Occupied:

       1A    -11.217814     2A    -11.217780     3A    -11.213341
       4A    -11.213340     5A    -11.210786     6A    -11.209211
       7A    -11.209211     8A    -11.205076     9A     -1.141084
      10A     -1.045901    11A     -1.007508    12A     -0.899025
      13A     -0.895659    14A     -0.840989    15A     -0.768843
      16A     -0.747402    17A     -0.651413    18A     -0.616868
      19A     -0.612894    20A     -0.585498    21A     -0.572168
      22A     -0.536820    23A     -0.536468    24A     -0.524872
      25A     -0.507692    26A     -0.505418    27A     -0.482569
      28A     -0.464160    29A     -0.443177    30A     -0.440834
      31A     -0.421234    32A     -0.406509

  @DF-RHF Final Energy:  -312.34586941845527

   => Energetics <=

    Nuclear Repulsion Energy =            390.3553844871057663
    One-Electron Energy =               -1194.6993814530410418
    Two-Electron Energy =                 491.9981275474800100
    Total Energy =                       -312.3458694184552655
  Basis Set: (AUG-CC-PVTZ AUX)
    Blend: AUG-CC-PVTZ-RI
    Molecular point group: c1

    Geometry (in Angstrom), charge = 0, multiplicity = 1:

       Center              X                  Y                   Z               Mass
    ------------   -----------------  -----------------  -----------------  -----------------
         C            1.076977034279     0.358004985386     0.396783137346    12.000000000000
         C           -1.076981965721     0.358016985386     0.396784137346    12.000000000000
         C            0.000003034279     1.410318985386     0.048350137346    12.000000000000
         C           -0.000008965721    -0.730085014614     0.173534137346    12.000000000000
         C            2.359516034279     0.302377985386    -0.412913862654    12.000000000000
         C           -2.359525965721     0.302389985386    -0.412903862654    12.000000000000
         C            3.219568034279    -0.909446014614    -0.061627862654    12.000000000000
         C           -3.219548965721    -0.909460014614    -0.061634862654    12.000000000000
         H            1.313909034279     0.419010985386     1.467988137346     1.007825032230
         H           -1.313906965721     0.419027985386     1.467990137346     1.007825032230
         H            0.000008034279     2.361158985386     0.591412137346     1.007825032230
         H            0.000004034279     1.619002985386    -1.029266862654     1.007825032230
         H           -0.000009965721    -1.045173214614    -0.826635362654     1.007825032230
         H           -0.000012965721    -1.612443014614     0.821365137346     1.007825032230
         H            2.931365034279     1.226380985386    -0.255185862654     1.007825032230
         H            2.099387034279     0.275653985386    -1.479440862654     1.007825032230
         H           -2.099405965721     0.275695985386    -1.479432862654     1.007825032230
         H           -2.931393965721     1.226376985386    -0.255147862654     1.007825032230
         H            2.672426034279    -1.839301014614    -0.244715862654     1.007825032230
         H            4.136951034279    -0.936390014614    -0.657256862654     1.007825032230
         H            3.504652034279    -0.890848014614     0.995032137346     1.007825032230
         H           -3.504595965721    -0.890905014614     0.995035137346     1.007825032230
         H           -4.136953965721    -0.936394014614    -0.657230862654     1.007825032230
         H           -2.672401965721    -1.839301014614    -0.244778862654     1.007825032230

  Basis Set: AUG-CC-PVTZ
    Blend: AUG-CC-PVTZ
  Basis Set: (AUG-CC-PVTZ AUX)
    Blend: AUG-CC-PVTZ-JKFIT
	 Reference Energy          =    -312.3458694184552655 [Eh]
	 Singles Energy            =      -0.0000000000000000 [Eh]
	 Same-Spin Energy          =      -0.3390265163666313 [Eh]
	 Opposite-Spin Energy      =      -1.2311936028166930 [Eh]
	 Correlation Energy        =      -1.5702201191833243 [Eh]
	 Total Energy              =    -313.9160895376385838 [Eh]

	 ================> DF-SCS-MP2 Energies <==================
	-----------------------------------------------------------
	 SCS Same-Spin Scale       =       0.3333333333333333 [-]
	 SCS Opposite-Spin Scale   =       1.2000000000000000 [-]
	 SCS Same-Spin Energy      =      -0.1130088387888771 [Eh]
	 SCS Opposite-Spin Energy  =      -1.4774323233800315 [Eh]
	 SCS Correlation Energy    =      -1.5904411621689085 [Eh]
	 SCS Total Energy          =    -313.9363105806241947 [Eh]
	-----------------------------------------------------------

  Dipole Moment: [D]
     X:    -0.0000      Y:     0.0587      Z:     0.0561     Total:     0.0812

*** Psi4 exiting successfully. Buy a developer a beer!
