                               Psi4 1.4a3.dev225

  ==> Input File <==

--------------------------------------------------------------------------
#psi4
#
memory 32 gb

molecule  {
0 1
  C        1.1518360     0.2988038     0.3880107
  C       -1.0769820     0.3750600     0.4036550
  C        0.0000030     1.4273620     0.0552210
  C       -0.0000090    -0.7130420     0.1804050
  C        2.3595160     0.3194210    -0.4060430
  C       -2.3595260     0.3194330    -0.4060330
  C        3.2195680    -0.8924030    -0.0547570
  C       -3.2195490    -0.8924170    -0.0547640
  H        1.3139090     0.4360540     1.4748590
  H       -1.3139070     0.4360710     1.4748610
  H        0.0000080     2.3782020     0.5982830
  H        0.0000040     1.6360460    -1.0223960
  H       -0.0000100    -1.0431540    -0.8674540
  H       -0.0000130    -1.5954000     0.8282360
  H        2.9313650     1.2434240    -0.2483150
  H        2.0993870     0.2926970    -1.4725700
  H       -2.0994060     0.2927390    -1.4725620
  H       -2.9313940     1.2434200    -0.2482770
  H        2.6724260    -1.8222580    -0.2378450
  H        4.1369510    -0.9193470    -0.6503860
  H        3.5046520    -0.8738050     1.0019030
  H       -3.5045960    -0.8738620     1.0019060
  H       -4.1369540    -0.9193510    -0.6503600
  H       -2.6724020    -1.8222580    -0.2379080
units angstrom
no_reorient  #important for SAPT in psi4, default
symmetry c1  #important for SAPT in psi4, default
}

set PROPERTIES_ORIGIN ["COM"]
properties('MP2/aug-cc-pvtz', properties = ['dipole'])
--------------------------------------------------------------------------

    Molecular point group: c1
  Charge       = 0
  Multiplicity = 1
  Basis Set: AUG-CC-PVTZ
    Blend: AUG-CC-PVTZ
  Basis Set: (AUG-CC-PVTZ AUX)
    Blend: AUG-CC-PVTZ-JKFIT

    Orbital Energies [Eh]
    ---------------------

    Doubly Occupied:

       1A    -11.220218     2A    -11.217894     3A    -11.214575
       4A    -11.214045     5A    -11.213689     6A    -11.211626
       7A    -11.209305     8A    -11.208789     9A     -1.133228
      10A     -1.054197    11A     -1.006861    12A     -0.901875
      13A     -0.887985    14A     -0.842927    15A     -0.769584
      16A     -0.742282    17A     -0.646929    18A     -0.622630
      19A     -0.616734    20A     -0.584434    21A     -0.572767
      22A     -0.537377    23A     -0.529336    24A     -0.523874
      25A     -0.510493    26A     -0.505925    27A     -0.483340
      28A     -0.470136    29A     -0.446071    30A     -0.440086
      31A     -0.420428    32A     -0.388282

  @DF-RHF Final Energy:  -312.33573701026620

   => Energetics <=

    Nuclear Repulsion Energy =            389.8512475694546993
    One-Electron Energy =               -1193.6781250568703854
    Two-Electron Energy =                 491.4911404771494858
    Total Energy =                       -312.3357370102662003
  Basis Set: (AUG-CC-PVTZ AUX)
    Blend: AUG-CC-PVTZ-RI
    Molecular point group: c1

    Geometry (in Angstrom), charge = 0, multiplicity = 1:

       Center              X                  Y                   Z               Mass
    ------------   -----------------  -----------------  -----------------  -----------------
         C            1.143824383054     0.290055724949     0.383242685509    12.000000000000
         C           -1.084993616946     0.366311924949     0.398886985509    12.000000000000
         C           -0.008008616946     1.418613924949     0.050452985509    12.000000000000
         C           -0.008020616946    -0.721790075051     0.175636985509    12.000000000000
         C            2.351504383054     0.310672924949    -0.410811014491    12.000000000000
         C           -2.367537616946     0.310684924949    -0.410801014491    12.000000000000
         C            3.211556383054    -0.901151075051    -0.059525014491    12.000000000000
         C           -3.227560616946    -0.901165075051    -0.059532014491    12.000000000000
         H            1.305897383054     0.427305924949     1.470090985509     1.007825032230
         H           -1.321918616946     0.427322924949     1.470092985509     1.007825032230
         H           -0.008003616946     2.369453924949     0.593514985509     1.007825032230
         H           -0.008007616946     1.627297924949    -1.027164014491     1.007825032230
         H           -0.008021616946    -1.051902075051    -0.872222014491     1.007825032230
         H           -0.008024616946    -1.604148075051     0.823467985509     1.007825032230
         H            2.923353383054     1.234675924949    -0.253083014491     1.007825032230
         H            2.091375383054     0.283948924949    -1.477338014491     1.007825032230
         H           -2.107417616946     0.283990924949    -1.477330014491     1.007825032230
         H           -2.939405616946     1.234671924949    -0.253045014491     1.007825032230
         H            2.664414383054    -1.831006075051    -0.242613014491     1.007825032230
         H            4.128939383054    -0.928095075051    -0.655154014491     1.007825032230
         H            3.496640383054    -0.882553075051     0.997134985509     1.007825032230
         H           -3.512607616946    -0.882610075051     0.997137985509     1.007825032230
         H           -4.144965616946    -0.928099075051    -0.655128014491     1.007825032230
         H           -2.680413616946    -1.831006075051    -0.242676014491     1.007825032230

  Basis Set: AUG-CC-PVTZ
    Blend: AUG-CC-PVTZ
  Basis Set: (AUG-CC-PVTZ AUX)
    Blend: AUG-CC-PVTZ-JKFIT
	 Reference Energy          =    -312.3357370102662003 [Eh]
	 Singles Energy            =      -0.0000000000000000 [Eh]
	 Same-Spin Energy          =      -0.3397391814426365 [Eh]
	 Opposite-Spin Energy      =      -1.2329911263663473 [Eh]
	 Correlation Energy        =      -1.5727303078089838 [Eh]
	 Total Energy              =    -313.9084673180751679 [Eh]

	 ================> DF-SCS-MP2 Energies <==================
	-----------------------------------------------------------
	 SCS Same-Spin Scale       =       0.3333333333333333 [-]
	 SCS Opposite-Spin Scale   =       1.2000000000000000 [-]
	 SCS Same-Spin Energy      =      -0.1132463938142122 [Eh]
	 SCS Opposite-Spin Energy  =      -1.4795893516396168 [Eh]
	 SCS Correlation Energy    =      -1.5928357454538289 [Eh]
	 SCS Total Energy          =    -313.9285727557200403 [Eh]
	-----------------------------------------------------------

  Dipole Moment: [D]
     X:     0.0483      Y:     0.0657      Z:     0.0413     Total:     0.0914

*** Psi4 exiting successfully. Buy a developer a beer!
