                               Psi4 1.4a3.dev225

  ==> Input File <==

--------------------------------------------------------------------------
#psi4
#
memory 32 gb

molecule  {
0 1
  C        1.0769770     0.3750480     0.4036540
  C       -1.0769820     0.3750600     0.4036550
  C        0.0000030     1.4273620     0.0552210
  C       -0.0000090    -0.7130420     0.1804050
  C        2.3595160     0.3194210    -0.4060430
  C       -2.3595260     0.3194330    -0.4060330
  C        3.2195680    -0.8924030    -0.0547570
  C       -3.2195490    -0.8924170    -0.0547640
  H        1.3139090     0.4360540     1.4748590
  H       -1.3139070     0.4360710     1.4748610
  H        0.0000080     2.3782020     0.5982830
  H        0.0000040     1.6360460    -1.0223960
  H       -0.0000100    -1.0431540    -0.8674540
  H       -0.0000130    -1.5954000     0.8282360
  H        2.9313650     1.2434240    -0.2483150
  H        2.0993870     0.2926970    -1.4725700
  H       -2.0994060     0.2927390    -1.4725620
  H       -2.9313940     1.2434200    -0.2482770
  H        2.6724260    -1.8222580    -0.2378450
  H        4.1369510    -0.9193470    -0.6503860
  H        3.5046520    -0.8738050     1.0019030
  H       -3.5535452    -0.7724626     0.9807093
  H       -4.1369540    -0.9193510    -0.6503600
  H       -2.6724020    -1.8222580    -0.2379080
units angstrom
no_reorient  #important for SAPT in psi4, default
symmetry c1  #important for SAPT in psi4, default
}

set PROPERTIES_ORIGIN ["COM"]
properties('MP2/aug-cc-pvtz', properties = ['dipole'])
--------------------------------------------------------------------------

    Molecular point group: c1
  Charge       = 0
  Multiplicity = 1
  Basis Set: AUG-CC-PVTZ
    Blend: AUG-CC-PVTZ
  Basis Set: (AUG-CC-PVTZ AUX)
    Blend: AUG-CC-PVTZ-JKFIT

    Orbital Energies [Eh]
    ---------------------

    Doubly Occupied:

       1A    -11.218334     2A    -11.218230     3A    -11.213349
       4A    -11.212674     5A    -11.211370     6A    -11.210927
       7A    -11.209352     8A    -11.209145     9A     -1.140584
      10A     -1.046184    11A     -1.007751    12A     -0.899087
      13A     -0.891933    14A     -0.840365    15A     -0.768231
      16A     -0.743640    17A     -0.651807    18A     -0.619397
      19A     -0.611808    20A     -0.587370    21A     -0.571792
      22A     -0.534257    23A     -0.530593    24A     -0.525087
      25A     -0.511077    26A     -0.502251    27A     -0.483027
      28A     -0.462522    29A     -0.441848    30A     -0.441124
      31A     -0.421615    32A     -0.406806

  @DF-RHF Final Energy:  -312.34539503627195

   => Energetics <=

    Nuclear Repulsion Energy =            390.1313618069896165
    One-Electron Energy =               -1194.2664329364702098
    Two-Electron Energy =                 491.7896760932086409
    Total Energy =                       -312.3453950362719524
  Basis Set: (AUG-CC-PVTZ AUX)
    Blend: AUG-CC-PVTZ-RI
    Molecular point group: c1

    Geometry (in Angstrom), charge = 0, multiplicity = 1:

       Center              X                  Y                   Z               Mass
    ------------   -----------------  -----------------  -----------------  -----------------
         C            1.077417008779     0.357228607806     0.397402313378    12.000000000000
         C           -1.076541991221     0.357240607806     0.397403313378    12.000000000000
         C            0.000443008779     1.409542607806     0.048969313378    12.000000000000
         C            0.000431008779    -0.730861392194     0.174153313378    12.000000000000
         C            2.359956008779     0.301601607806    -0.412294686622    12.000000000000
         C           -2.359085991221     0.301613607806    -0.412284686622    12.000000000000
         C            3.220008008779    -0.910222392194    -0.061008686622    12.000000000000
         C           -3.219108991221    -0.910236392194    -0.061015686622    12.000000000000
         H            1.314349008779     0.418234607806     1.468607313378     1.007825032230
         H           -1.313466991221     0.418251607806     1.468609313378     1.007825032230
         H            0.000448008779     2.360382607806     0.592031313378     1.007825032230
         H            0.000444008779     1.618226607806    -1.028647686622     1.007825032230
         H            0.000430008779    -1.060973392194    -0.873705686622     1.007825032230
         H            0.000427008779    -1.613219392194     0.821984313378     1.007825032230
         H            2.931805008779     1.225604607806    -0.254566686622     1.007825032230
         H            2.099827008779     0.274877607806    -1.478821686622     1.007825032230
         H           -2.098965991221     0.274919607806    -1.478813686622     1.007825032230
         H           -2.930953991221     1.225600607806    -0.254528686622     1.007825032230
         H            2.672866008779    -1.840077392194    -0.244096686622     1.007825032230
         H            4.137391008779    -0.937166392194    -0.656637686622     1.007825032230
         H            3.505092008779    -0.891624392194     0.995651313378     1.007825032230
         H           -3.553105191221    -0.790281992194     0.974457613378     1.007825032230
         H           -4.136513991221    -0.937170392194    -0.656611686622     1.007825032230
         H           -2.671961991221    -1.840077392194    -0.244159686622     1.007825032230

  Basis Set: AUG-CC-PVTZ
    Blend: AUG-CC-PVTZ
  Basis Set: (AUG-CC-PVTZ AUX)
    Blend: AUG-CC-PVTZ-JKFIT
	 Reference Energy          =    -312.3453950362719524 [Eh]
	 Singles Energy            =      -0.0000000000000000 [Eh]
	 Same-Spin Energy          =      -0.3391509750139685 [Eh]
	 Opposite-Spin Energy      =      -1.2316609354266039 [Eh]
	 Correlation Energy        =      -1.5708119104405724 [Eh]
	 Total Energy              =    -313.9162069467125207 [Eh]

	 ================> DF-SCS-MP2 Energies <==================
	-----------------------------------------------------------
	 SCS Same-Spin Scale       =       0.3333333333333333 [-]
	 SCS Opposite-Spin Scale   =       1.2000000000000000 [-]
	 SCS Same-Spin Energy      =      -0.1130503250046562 [Eh]
	 SCS Opposite-Spin Energy  =      -1.4779931225119247 [Eh]
	 SCS Correlation Energy    =      -1.5910434475165809 [Eh]
	 SCS Total Energy          =    -313.9364384837885495 [Eh]
	-----------------------------------------------------------

  Dipole Moment: [D]
     X:    -0.0184      Y:     0.0918      Z:     0.0735     Total:     0.1191

*** Psi4 exiting successfully. Buy a developer a beer!
