                               Psi4 1.4a3.dev225

  ==> Input File <==

--------------------------------------------------------------------------
#psi4
#
memory 32 gb

molecule  {
0 1
  C        1.0769770     0.3750480     0.4036540
  C       -1.0769820     0.3750600     0.4036550
  C        0.0000030     1.4273620     0.0552210
  C       -0.0000090    -0.7130420     0.1804050
  C        2.3595160     0.3194210    -0.4060430
  C       -2.3595260     0.3194330    -0.4060330
  C        3.2195680    -0.8924030    -0.0547570
  C       -3.2195490    -0.8924170    -0.0547640
  H        1.3139090     0.4360540     1.4748590
  H       -1.3139070     0.4360710     1.4748610
  H        0.0000080     2.3782020     0.5982830
  H        0.0000040     1.6360460    -1.0223960
  H       -0.0000100    -1.0431540    -0.8674540
  H       -0.0000130    -1.5954000     0.8282360
  H        2.9313650     1.2434240    -0.2483150
  H        2.0993870     0.2926970    -1.4725700
  H       -2.0994060     0.2927390    -1.4725620
  H       -2.9313940     1.2434200    -0.2482770
  H        2.6724260    -1.8222580    -0.2378450
  H        4.1369510    -0.9193470    -0.6503860
  H        3.5567412    -0.8704069     1.1949708
  H       -3.5045960    -0.8738620     1.0019060
  H       -4.1369540    -0.9193510    -0.6503600
  H       -2.6724020    -1.8222580    -0.2379080
units angstrom
no_reorient  #important for SAPT in psi4, default
symmetry c1  #important for SAPT in psi4, default
}

set PROPERTIES_ORIGIN ["COM"]
properties('MP2/aug-cc-pvtz', properties = ['dipole'])
--------------------------------------------------------------------------

    Molecular point group: c1
  Charge       = 0
  Multiplicity = 1
  Basis Set: AUG-CC-PVTZ
    Blend: AUG-CC-PVTZ
  Basis Set: (AUG-CC-PVTZ AUX)
    Blend: AUG-CC-PVTZ-JKFIT

    Orbital Energies [Eh]
    ---------------------

    Doubly Occupied:

       1A    -11.233181     2A    -11.218938     3A    -11.218815
       4A    -11.216455     5A    -11.213759     6A    -11.211931
       7A    -11.211507     8A    -11.209455     9A     -1.141161
      10A     -1.045361    11A     -1.005454    12A     -0.895469
      13A     -0.892453    14A     -0.836658    15A     -0.767620
      16A     -0.743869    17A     -0.652203    18A     -0.616598
      19A     -0.612660    20A     -0.580097    21A     -0.571690
      22A     -0.532183    23A     -0.531224    24A     -0.525349
      25A     -0.509277    26A     -0.500757    27A     -0.474964
      28A     -0.455384    29A     -0.442489    30A     -0.442037
      31A     -0.422286    32A     -0.407841

  @DF-RHF Final Energy:  -312.32719065674161

   => Energetics <=

    Nuclear Repulsion Energy =            389.3861524452016170
    One-Electron Energy =               -1192.7484357601040301
    Two-Electron Energy =                 491.0350926581608633
    Total Energy =                       -312.3271906567416067
  Basis Set: (AUG-CC-PVTZ AUX)
    Blend: AUG-CC-PVTZ-RI
    Molecular point group: c1

    Geometry (in Angstrom), charge = 0, multiplicity = 1:

       Center              X                  Y                   Z               Mass
    ------------   -----------------  -----------------  -----------------  -----------------
         C            1.076508836234     0.358109481712     0.395476420487    12.000000000000
         C           -1.077450163766     0.358121481712     0.395477420487    12.000000000000
         C           -0.000465163766     1.410423481712     0.047043420487    12.000000000000
         C           -0.000477163766    -0.729980518288     0.172227420487    12.000000000000
         C            2.359047836234     0.302482481712    -0.414220579513    12.000000000000
         C           -2.359994163766     0.302494481712    -0.414210579513    12.000000000000
         C            3.219099836234    -0.909341518288    -0.062934579513    12.000000000000
         C           -3.220017163766    -0.909355518288    -0.062941579513    12.000000000000
         H            1.313440836234     0.419115481712     1.466681420487     1.007825032230
         H           -1.314375163766     0.419132481712     1.466683420487     1.007825032230
         H           -0.000460163766     2.361263481712     0.590105420487     1.007825032230
         H           -0.000464163766     1.619107481712    -1.030573579513     1.007825032230
         H           -0.000478163766    -1.060092518288    -0.875631579513     1.007825032230
         H           -0.000481163766    -1.612338518288     0.820058420487     1.007825032230
         H            2.930896836234     1.226485481712    -0.256492579513     1.007825032230
         H            2.098918836234     0.275758481712    -1.480747579513     1.007825032230
         H           -2.099874163766     0.275800481712    -1.480739579513     1.007825032230
         H           -2.931862163766     1.226481481712    -0.256454579513     1.007825032230
         H            2.671957836234    -1.839196518288    -0.246022579513     1.007825032230
         H            4.136482836234    -0.936285518288    -0.658563579513     1.007825032230
         H            3.556273036234    -0.887345418288     1.186793220487     1.007825032230
         H           -3.505064163766    -0.890800518288     0.993728420487     1.007825032230
         H           -4.137422163766    -0.936289518288    -0.658537579513     1.007825032230
         H           -2.672870163766    -1.839196518288    -0.246085579513     1.007825032230

  Basis Set: AUG-CC-PVTZ
    Blend: AUG-CC-PVTZ
  Basis Set: (AUG-CC-PVTZ AUX)
    Blend: AUG-CC-PVTZ-JKFIT
	 Reference Energy          =    -312.3271906567416067 [Eh]
	 Singles Energy            =      -0.0000000000000000 [Eh]
	 Same-Spin Energy          =      -0.3389590565777109 [Eh]
	 Opposite-Spin Energy      =      -1.2329296066932516 [Eh]
	 Correlation Energy        =      -1.5718886632709625 [Eh]
	 Total Energy              =    -313.8990793200125609 [Eh]

	 ================> DF-SCS-MP2 Energies <==================
	-----------------------------------------------------------
	 SCS Same-Spin Scale       =       0.3333333333333333 [-]
	 SCS Opposite-Spin Scale   =       1.2000000000000000 [-]
	 SCS Same-Spin Energy      =      -0.1129863521925703 [Eh]
	 SCS Opposite-Spin Energy  =      -1.4795155280319019 [Eh]
	 SCS Correlation Energy    =      -1.5925018802244721 [Eh]
	 SCS Total Energy          =    -313.9196925369660676 [Eh]
	-----------------------------------------------------------

  Dipole Moment: [D]
     X:    -0.0767      Y:     0.1050      Z:    -0.0684     Total:     0.1469

*** Psi4 exiting successfully. Buy a developer a beer!
