                               Psi4 1.4a3.dev225

  ==> Input File <==

--------------------------------------------------------------------------
#psi4
#
memory 32 gb

molecule  {
0 1
  C        1.0769770     0.3750480     0.4036540
  C       -1.0769820     0.3750600     0.4036550
  C        0.0000030     1.4273620     0.0552210
  C       -0.0000090    -0.7130420     0.1804050
  C        2.3595160     0.3194210    -0.4060430
  C       -2.3595260     0.3194330    -0.4060330
  C        3.2195680    -0.8924030    -0.0547570
  C       -3.2195490    -0.8924170    -0.0547640
  H        1.3139090     0.4360540     1.4748590
  H       -1.3139070     0.4360710     1.4748610
  H        0.0000080     2.3782020     0.5982830
  H        0.0000040     1.6360460    -1.0223960
  H       -0.0000100    -1.0431540    -0.8674540
  H       -0.0000130    -1.5954000     0.8282360
  H        2.9313650     1.2434240    -0.2483150
  H        2.0993870     0.2926970    -1.4725700
  H       -2.0994060     0.2927390    -1.4725620
  H       -2.9313940     1.2434200    -0.2482770
  H        2.6724260    -1.8222580    -0.2378450
  H        4.2207979    -0.9218096    -0.7048253
  H        3.5046520    -0.8738050     1.0019030
  H       -3.5045960    -0.8738620     1.0019060
  H       -4.1369540    -0.9193510    -0.6503600
  H       -2.6724020    -1.8222580    -0.2379080
units angstrom
no_reorient  #important for SAPT in psi4, default
symmetry c1  #important for SAPT in psi4, default
}

set PROPERTIES_ORIGIN ["COM"]
properties('MP2/aug-cc-pvtz', properties = ['dipole'])
--------------------------------------------------------------------------

    Molecular point group: c1
  Charge       = 0
  Multiplicity = 1
  Basis Set: AUG-CC-PVTZ
    Blend: AUG-CC-PVTZ
  Basis Set: (AUG-CC-PVTZ AUX)
    Blend: AUG-CC-PVTZ-JKFIT

    Orbital Energies [Eh]
    ---------------------

    Doubly Occupied:

       1A    -11.221402     2A    -11.219335     3A    -11.218955
       4A    -11.214476     5A    -11.213809     6A    -11.212084
       7A    -11.211790     8A    -11.209519     9A     -1.141348
      10A     -1.045699    11A     -1.006082    12A     -0.896374
      13A     -0.892677    14A     -0.838207    15A     -0.769297
      16A     -0.744449    17A     -0.652301    18A     -0.617637
      19A     -0.611373    20A     -0.585617    21A     -0.566075
      22A     -0.537299    23A     -0.531356    24A     -0.520622
      25A     -0.508003    26A     -0.501293    27A     -0.483009
      28A     -0.463781    29A     -0.442378    30A     -0.441532
      31A     -0.422334    32A     -0.406607

  @DF-RHF Final Energy:  -312.34031181644042

   => Energetics <=

    Nuclear Repulsion Energy =            389.7012483931528095
    One-Electron Energy =               -1193.3896827756072980
    Two-Electron Energy =                 491.3481225660140694
    Total Energy =                       -312.3403118164404191
  Basis Set: (AUG-CC-PVTZ AUX)
    Blend: AUG-CC-PVTZ-RI
    Molecular point group: c1

    Geometry (in Angstrom), charge = 0, multiplicity = 1:

       Center              X                  Y                   Z               Mass
    ------------   -----------------  -----------------  -----------------  -----------------
         C            1.076223385640     0.358162159969     0.397701110832    12.000000000000
         C           -1.077735614360     0.358174159969     0.397702110832    12.000000000000
         C           -0.000750614360     1.410476159969     0.049268110832    12.000000000000
         C           -0.000762614360    -0.729927840031     0.174452110832    12.000000000000
         C            2.358762385640     0.302535159969    -0.411995889168    12.000000000000
         C           -2.360279614360     0.302547159969    -0.411985889168    12.000000000000
         C            3.218814385640    -0.909288840031    -0.060709889168    12.000000000000
         C           -3.220302614360    -0.909302840031    -0.060716889168    12.000000000000
         H            1.313155385640     0.419168159969     1.468906110832     1.007825032230
         H           -1.314660614360     0.419185159969     1.468908110832     1.007825032230
         H           -0.000745614360     2.361316159969     0.592330110832     1.007825032230
         H           -0.000749614360     1.619160159969    -1.028348889168     1.007825032230
         H           -0.000763614360    -1.060039840031    -0.873406889168     1.007825032230
         H           -0.000766614360    -1.612285840031     0.822283110832     1.007825032230
         H            2.930611385640     1.226538159969    -0.254267889168     1.007825032230
         H            2.098633385640     0.275811159969    -1.478522889168     1.007825032230
         H           -2.100159614360     0.275853159969    -1.478514889168     1.007825032230
         H           -2.932147614360     1.226534159969    -0.254229889168     1.007825032230
         H            2.671672385640    -1.839143840031    -0.243797889168     1.007825032230
         H            4.220044285640    -0.938695440031    -0.710778189168     1.007825032230
         H            3.503898385640    -0.890690840031     0.995950110832     1.007825032230
         H           -3.505349614360    -0.890747840031     0.995953110832     1.007825032230
         H           -4.137707614360    -0.936236840031    -0.656312889168     1.007825032230
         H           -2.673155614360    -1.839143840031    -0.243860889168     1.007825032230

  Basis Set: AUG-CC-PVTZ
    Blend: AUG-CC-PVTZ
  Basis Set: (AUG-CC-PVTZ AUX)
    Blend: AUG-CC-PVTZ-JKFIT
	 Reference Energy          =    -312.3403118164404191 [Eh]
	 Singles Energy            =      -0.0000000000000000 [Eh]
	 Same-Spin Energy          =      -0.3390259472160225 [Eh]
	 Opposite-Spin Energy      =      -1.2321846556326510 [Eh]
	 Correlation Energy        =      -1.5712106028486734 [Eh]
	 Total Energy              =    -313.9115224192890992 [Eh]

	 ================> DF-SCS-MP2 Energies <==================
	-----------------------------------------------------------
	 SCS Same-Spin Scale       =       0.3333333333333333 [-]
	 SCS Opposite-Spin Scale   =       1.2000000000000000 [-]
	 SCS Same-Spin Energy      =      -0.1130086490720075 [Eh]
	 SCS Opposite-Spin Energy  =      -1.4786215867591812 [Eh]
	 SCS Correlation Energy    =      -1.5916302358311887 [Eh]
	 SCS Total Energy          =    -313.9319420522716086 [Eh]
	-----------------------------------------------------------

  Dipole Moment: [D]
     X:    -0.0927      Y:     0.0975      Z:     0.1164     Total:     0.1779

*** Psi4 exiting successfully. Buy a developer a beer!
