                               Psi4 1.4a3.dev225

  ==> Input File <==

--------------------------------------------------------------------------
#psi4
#
memory 32 gb

molecule  {
0 1
  C        1.0769770     0.3750480     0.4036540
  C       -1.0769820     0.3750600     0.4036550
  C       -0.0139337     1.4409796     0.0507121
  C       -0.0000090    -0.7130420     0.1804050
  C        2.3595160     0.3194210    -0.4060430
  C       -2.3595260     0.3194330    -0.4060330
  C        3.2195680    -0.8924030    -0.0547570
  C       -3.2195490    -0.8924170    -0.0547640
  H        1.3139090     0.4360540     1.4748590
  H       -1.3139070     0.4360710     1.4748610
  H        0.0000080     2.3782020     0.5982830
  H        0.0000040     1.6360460    -1.0223960
  H       -0.0000100    -1.0431540    -0.8674540
  H       -0.0000130    -1.5954000     0.8282360
  H        2.9313650     1.2434240    -0.2483150
  H        2.0993870     0.2926970    -1.4725700
  H       -2.0994060     0.2927390    -1.4725620
  H       -2.9313940     1.2434200    -0.2482770
  H        2.6724260    -1.8222580    -0.2378450
  H        4.1369510    -0.9193470    -0.6503860
  H        3.5046520    -0.8738050     1.0019030
  H       -3.5045960    -0.8738620     1.0019060
  H       -4.1369540    -0.9193510    -0.6503600
  H       -2.6724020    -1.8222580    -0.2379080
units angstrom
no_reorient  #important for SAPT in psi4, default
symmetry c1  #important for SAPT in psi4, default
}

set PROPERTIES_ORIGIN ["COM"]
properties('MP2/aug-cc-pvtz', properties = ['dipole'])
--------------------------------------------------------------------------

    Molecular point group: c1
  Charge       = 0
  Multiplicity = 1
  Basis Set: AUG-CC-PVTZ
    Blend: AUG-CC-PVTZ
  Basis Set: (AUG-CC-PVTZ AUX)
    Blend: AUG-CC-PVTZ-JKFIT

    Orbital Energies [Eh]
    ---------------------

    Doubly Occupied:

       1A    -11.219305     2A    -11.218793     3A    -11.213312
       4A    -11.213092     5A    -11.211289     6A    -11.210301
       7A    -11.209140     8A    -11.208964     9A     -1.138265
      10A     -1.045710    11A     -1.006820    12A     -0.898679
      13A     -0.892660    14A     -0.840964    15A     -0.768471
      16A     -0.744163    17A     -0.651858    18A     -0.616741
      19A     -0.612114    20A     -0.584878    21A     -0.571236
      22A     -0.536556    23A     -0.532964    24A     -0.524651
      25A     -0.507621    26A     -0.505344    27A     -0.482432
      28A     -0.464115    29A     -0.443384    30A     -0.440044
      31A     -0.422265    32A     -0.404283

  @DF-RHF Final Energy:  -312.34648947242789

   => Energetics <=

    Nuclear Repulsion Energy =            389.8616097641038891
    One-Electron Energy =               -1193.7353682848454355
    Two-Electron Energy =                 491.5272690483137126
    Total Energy =                       -312.3464894724278906
  Basis Set: (AUG-CC-PVTZ AUX)
    Blend: AUG-CC-PVTZ-RI
    Molecular point group: c1

    Geometry (in Angstrom), charge = 0, multiplicity = 1:

       Center              X                  Y                   Z               Mass
    ------------   -----------------  -----------------  -----------------  -----------------
         C            1.078468584789     0.356682625759     0.397694346168    12.000000000000
         C           -1.075490415211     0.356694625759     0.397695346168    12.000000000000
         C           -0.012442115211     1.422614225759     0.044752446168    12.000000000000
         C            0.001482584789    -0.731407374241     0.174445346168    12.000000000000
         C            2.361007584789     0.301055625759    -0.412002653832    12.000000000000
         C           -2.358034415211     0.301067625759    -0.411992653832    12.000000000000
         C            3.221059584789    -0.910768374241    -0.060716653832    12.000000000000
         C           -3.218057415211    -0.910782374241    -0.060723653832    12.000000000000
         H            1.315400584789     0.417688625759     1.468899346168     1.007825032230
         H           -1.312415415211     0.417705625759     1.468901346168     1.007825032230
         H            0.001499584789     2.359836625759     0.592323346168     1.007825032230
         H            0.001495584789     1.617680625759    -1.028355653832     1.007825032230
         H            0.001481584789    -1.061519374241    -0.873413653832     1.007825032230
         H            0.001478584789    -1.613765374241     0.822276346168     1.007825032230
         H            2.932856584789     1.225058625759    -0.254274653832     1.007825032230
         H            2.100878584789     0.274331625759    -1.478529653832     1.007825032230
         H           -2.097914415211     0.274373625759    -1.478521653832     1.007825032230
         H           -2.929902415211     1.225054625759    -0.254236653832     1.007825032230
         H            2.673917584789    -1.840623374241    -0.243804653832     1.007825032230
         H            4.138442584789    -0.937712374241    -0.656345653832     1.007825032230
         H            3.506143584789    -0.892170374241     0.995943346168     1.007825032230
         H           -3.503104415211    -0.892227374241     0.995946346168     1.007825032230
         H           -4.135462415211    -0.937716374241    -0.656319653832     1.007825032230
         H           -2.670910415211    -1.840623374241    -0.243867653832     1.007825032230

  Basis Set: AUG-CC-PVTZ
    Blend: AUG-CC-PVTZ
  Basis Set: (AUG-CC-PVTZ AUX)
    Blend: AUG-CC-PVTZ-JKFIT
	 Reference Energy          =    -312.3464894724278906 [Eh]
	 Singles Energy            =      -0.0000000000000000 [Eh]
	 Same-Spin Energy          =      -0.3390087275621521 [Eh]
	 Opposite-Spin Energy      =      -1.2315615998884908 [Eh]
	 Correlation Energy        =      -1.5705703274506428 [Eh]
	 Total Energy              =    -313.9170597998785297 [Eh]

	 ================> DF-SCS-MP2 Energies <==================
	-----------------------------------------------------------
	 SCS Same-Spin Scale       =       0.3333333333333333 [-]
	 SCS Opposite-Spin Scale   =       1.2000000000000000 [-]
	 SCS Same-Spin Energy      =      -0.1130029091873840 [Eh]
	 SCS Opposite-Spin Energy  =      -1.4778739198661890 [Eh]
	 SCS Correlation Energy    =      -1.5908768290535731 [Eh]
	 SCS Total Energy          =    -313.9373663014814611 [Eh]
	-----------------------------------------------------------

  Dipole Moment: [D]
     X:     0.0100      Y:     0.0795      Z:     0.0867     Total:     0.1181

*** Psi4 exiting successfully. Buy a developer a beer!
