                               Psi4 1.4a3.dev225

  ==> Input File <==

--------------------------------------------------------------------------
#psi4
#
memory 32 gb

molecule  {
0 1
  C        1.0769770     0.3750480     0.4036540
  C       -1.0769820     0.3750600     0.4036550
  C        0.0000030     1.4273620     0.0552210
  C       -0.0000090    -0.7130420     0.1804050
  C        2.3595160     0.3194210    -0.4060430
  C       -2.3595260     0.3194330    -0.4060330
  C        3.2195680    -0.8924030    -0.0547570
  C       -3.3359391    -0.7888969    -0.0189513
  H        1.3139090     0.4360540     1.4748590
  H       -1.3139070     0.4360710     1.4748610
  H        0.0000080     2.3782020     0.5982830
  H        0.0000040     1.6360460    -1.0223960
  H       -0.0000100    -1.0431540    -0.8674540
  H       -0.0000130    -1.5954000     0.8282360
  H        2.9313650     1.2434240    -0.2483150
  H        2.0993870     0.2926970    -1.4725700
  H       -2.0994060     0.2927390    -1.4725620
  H       -2.9313940     1.2434200    -0.2482770
  H        2.6724260    -1.8222580    -0.2378450
  H        4.1369510    -0.9193470    -0.6503860
  H        3.5046520    -0.8738050     1.0019030
  H       -3.5045960    -0.8738620     1.0019060
  H       -4.1369540    -0.9193510    -0.6503600
  H       -2.6724020    -1.8222580    -0.2379080
units angstrom
no_reorient  #important for SAPT in psi4, default
symmetry c1  #important for SAPT in psi4, default
}

set PROPERTIES_ORIGIN ["COM"]
properties('MP2/aug-cc-pvtz', properties = ['dipole'])
--------------------------------------------------------------------------

    Molecular point group: c1
  Charge       = 0
  Multiplicity = 1
  Basis Set: AUG-CC-PVTZ
    Blend: AUG-CC-PVTZ
  Basis Set: (AUG-CC-PVTZ AUX)
    Blend: AUG-CC-PVTZ-JKFIT

    Orbital Energies [Eh]
    ---------------------

    Doubly Occupied:

       1A    -11.220246     2A    -11.218539     3A    -11.215307
       4A    -11.213815     5A    -11.213549     6A    -11.212295
       7A    -11.211198     8A    -11.209182     9A     -1.140972
      10A     -1.046356    11A     -1.008778    12A     -0.901603
      13A     -0.892031    14A     -0.842774    15A     -0.769895
      16A     -0.744355    17A     -0.652549    18A     -0.621504
      19A     -0.610360    20A     -0.591007    21A     -0.576303
      22A     -0.545492    23A     -0.533011    24A     -0.530856
      25A     -0.510688    26A     -0.494798    27A     -0.468033
      28A     -0.461870    29A     -0.443654    30A     -0.434062
      31A     -0.417858    32A     -0.409225

  @DF-RHF Final Energy:  -312.32393035699255

   => Energetics <=

    Nuclear Repulsion Energy =            389.4570653567319596
    One-Electron Energy =               -1192.8376658211047925
    Two-Electron Energy =                 491.0566701073802847
    Total Energy =                       -312.3239303569925482
  Basis Set: (AUG-CC-PVTZ AUX)
    Blend: AUG-CC-PVTZ-RI
    Molecular point group: c1

    Geometry (in Angstrom), charge = 0, multiplicity = 1:

       Center              X                  Y                   Z               Mass
    ------------   -----------------  -----------------  -----------------  -----------------
         C            1.089433477554     0.347060970725     0.393378998701    12.000000000000
         C           -1.064525522446     0.347072970725     0.393379998701    12.000000000000
         C            0.012459477554     1.399374970725     0.044945998701    12.000000000000
         C            0.012447477554    -0.741029029275     0.170129998701    12.000000000000
         C            2.371972477554     0.291433970725    -0.416318001299    12.000000000000
         C           -2.347069522446     0.291445970725    -0.416308001299    12.000000000000
         C            3.232024477554    -0.920390029275    -0.065032001299    12.000000000000
         C           -3.323482622446    -0.816883929275    -0.029226301299    12.000000000000
         H            1.326365477554     0.408066970725     1.464583998701     1.007825032230
         H           -1.301450522446     0.408083970725     1.464585998701     1.007825032230
         H            0.012464477554     2.350214970725     0.588007998701     1.007825032230
         H            0.012460477554     1.608058970725    -1.032671001299     1.007825032230
         H            0.012446477554    -1.071141029275    -0.877729001299     1.007825032230
         H            0.012443477554    -1.623387029275     0.817960998701     1.007825032230
         H            2.943821477554     1.215436970725    -0.258590001299     1.007825032230
         H            2.111843477554     0.264709970725    -1.482845001299     1.007825032230
         H           -2.086949522446     0.264751970725    -1.482837001299     1.007825032230
         H           -2.918937522446     1.215432970725    -0.258552001299     1.007825032230
         H            2.684882477554    -1.850245029275    -0.248120001299     1.007825032230
         H            4.149407477554    -0.947334029275    -0.660661001299     1.007825032230
         H            3.517108477554    -0.901792029275     0.991627998701     1.007825032230
         H           -3.492139522446    -0.901849029275     0.991630998701     1.007825032230
         H           -4.124497522446    -0.947338029275    -0.660635001299     1.007825032230
         H           -2.659945522446    -1.850245029275    -0.248183001299     1.007825032230

  Basis Set: AUG-CC-PVTZ
    Blend: AUG-CC-PVTZ
  Basis Set: (AUG-CC-PVTZ AUX)
    Blend: AUG-CC-PVTZ-JKFIT
	 Reference Energy          =    -312.3239303569925482 [Eh]
	 Singles Energy            =      -0.0000000000000000 [Eh]
	 Same-Spin Energy          =      -0.3393693423305044 [Eh]
	 Opposite-Spin Energy      =      -1.2325099643094737 [Eh]
	 Correlation Energy        =      -1.5718793066399781 [Eh]
	 Total Energy              =    -313.8958096636325195 [Eh]

	 ================> DF-SCS-MP2 Energies <==================
	-----------------------------------------------------------
	 SCS Same-Spin Scale       =       0.3333333333333333 [-]
	 SCS Opposite-Spin Scale   =       1.2000000000000000 [-]
	 SCS Same-Spin Energy      =      -0.1131231141101681 [Eh]
	 SCS Opposite-Spin Energy  =      -1.4790119571713685 [Eh]
	 SCS Correlation Energy    =      -1.5921350712815365 [Eh]
	 SCS Total Energy          =    -313.9160654282740666 [Eh]
	-----------------------------------------------------------

  Dipole Moment: [D]
     X:    -0.0127      Y:     0.1489      Z:     0.1036     Total:     0.1818

*** Psi4 exiting successfully. Buy a developer a beer!
