                               Psi4 1.4a3.dev225

  ==> Input File <==

--------------------------------------------------------------------------
#psi4
#
memory 32 gb

molecule  {
0 1
  C        1.0769770     0.3750480     0.4036540
  C       -1.0769820     0.3750600     0.4036550
  C        0.0000030     1.4273620     0.0552210
  C       -0.0000090    -0.7130420     0.1804050
  C        2.3595160     0.3194210    -0.4060430
  C       -2.3595260     0.3194330    -0.4060330
  C        3.2195680    -0.8924030    -0.0547570
  C       -3.2195490    -0.8924170    -0.0547640
  H        1.3139090     0.4360540     1.4748590
  H       -1.3139070     0.4360710     1.4748610
  H        0.0000080     2.3782020     0.5982830
  H        0.0000040     1.6360460    -1.0223960
  H       -0.0000100    -1.0431540    -0.8674540
  H       -0.0000130    -1.5954000     0.8282360
  H        2.9313650     1.2434240    -0.2483150
  H        2.0993870     0.2926970    -1.4725700
  H       -2.0994060     0.2927390    -1.4725620
  H       -2.9313940     1.2434200    -0.2482770
  H        2.6724260    -1.8222580    -0.2378450
  H        4.1369510    -0.9193470    -0.6503860
  H        3.5046520    -0.8738050     1.0019030
  H       -3.5045960    -0.8738620     1.0019060
  H       -4.1319505    -0.9365483    -0.6569831
  H       -2.6724020    -1.8222580    -0.2379080
units angstrom
no_reorient  #important for SAPT in psi4, default
symmetry c1  #important for SAPT in psi4, default
}

set PROPERTIES_ORIGIN ["COM"]
properties('MP2/aug-cc-pvtz', properties = ['dipole'])
--------------------------------------------------------------------------

    Molecular point group: c1
  Charge       = 0
  Multiplicity = 1
  Basis Set: AUG-CC-PVTZ
    Blend: AUG-CC-PVTZ
  Basis Set: (AUG-CC-PVTZ AUX)
    Blend: AUG-CC-PVTZ-JKFIT

    Orbital Energies [Eh]
    ---------------------

    Doubly Occupied:

       1A    -11.218446     2A    -11.218358     3A    -11.213490
       4A    -11.213389     5A    -11.211390     6A    -11.211035
       7A    -11.209171     8A    -11.209143     9A     -1.140650
      10A     -1.045946    11A     -1.007369    12A     -0.899213
      13A     -0.892007    14A     -0.841148    15A     -0.769141
      16A     -0.743767    17A     -0.651797    18A     -0.616818
      19A     -0.612382    20A     -0.584743    21A     -0.572461
      22A     -0.536913    23A     -0.530694    24A     -0.525349
      25A     -0.507388    26A     -0.504899    27A     -0.482232
      28A     -0.464355    29A     -0.442153    30A     -0.441259
      31A     -0.421655    32A     -0.406989

  @DF-RHF Final Energy:  -312.34668789209684

   => Energetics <=

    Nuclear Repulsion Energy =            390.1112864677311904
    One-Electron Energy =               -1194.2244492444833668
    Two-Electron Energy =                 491.7664748846553948
    Total Energy =                       -312.3466878920968384
  Basis Set: (AUG-CC-PVTZ AUX)
    Blend: AUG-CC-PVTZ-RI
    Molecular point group: c1

    Geometry (in Angstrom), charge = 0, multiplicity = 1:

       Center              X                  Y                   Z               Mass
    ------------   -----------------  -----------------  -----------------  -----------------
         C            1.076932060869     0.358294601199     0.397271320177    12.000000000000
         C           -1.077026939131     0.358306601199     0.397272320177    12.000000000000
         C           -0.000041939131     1.410608601199     0.048838320177    12.000000000000
         C           -0.000053939131    -0.729795398801     0.174022320177    12.000000000000
         C            2.359471060869     0.302667601199    -0.412425679823    12.000000000000
         C           -2.359570939131     0.302679601199    -0.412415679823    12.000000000000
         C            3.219523060869    -0.909156398801    -0.061139679823    12.000000000000
         C           -3.219593939131    -0.909170398801    -0.061146679823    12.000000000000
         H            1.313864060869     0.419300601199     1.468476320177     1.007825032230
         H           -1.313951939131     0.419317601199     1.468478320177     1.007825032230
         H           -0.000036939131     2.361448601199     0.591900320177     1.007825032230
         H           -0.000040939131     1.619292601199    -1.028778679823     1.007825032230
         H           -0.000054939131    -1.059907398801    -0.873836679823     1.007825032230
         H           -0.000057939131    -1.612153398801     0.821853320177     1.007825032230
         H            2.931320060869     1.226670601199    -0.254697679823     1.007825032230
         H            2.099342060869     0.275943601199    -1.478952679823     1.007825032230
         H           -2.099450939131     0.275985601199    -1.478944679823     1.007825032230
         H           -2.931438939131     1.226666601199    -0.254659679823     1.007825032230
         H            2.672381060869    -1.839011398801    -0.244227679823     1.007825032230
         H            4.136906060869    -0.936100398801    -0.656768679823     1.007825032230
         H            3.504607060869    -0.890558398801     0.995520320177     1.007825032230
         H           -3.504640939131    -0.890615398801     0.995523320177     1.007825032230
         H           -4.131995439131    -0.953301698801    -0.663365779823     1.007825032230
         H           -2.672446939131    -1.839011398801    -0.244290679823     1.007825032230

  Basis Set: AUG-CC-PVTZ
    Blend: AUG-CC-PVTZ
  Basis Set: (AUG-CC-PVTZ AUX)
    Blend: AUG-CC-PVTZ-JKFIT
	 Reference Energy          =    -312.3466878920968384 [Eh]
	 Singles Energy            =      -0.0000000000000000 [Eh]
	 Same-Spin Energy          =      -0.3390825179582364 [Eh]
	 Opposite-Spin Energy      =      -1.2315174080895195 [Eh]
	 Correlation Energy        =      -1.5705999260477559 [Eh]
	 Total Energy              =    -313.9172878181445867 [Eh]

	 ================> DF-SCS-MP2 Energies <==================
	-----------------------------------------------------------
	 SCS Same-Spin Scale       =       0.3333333333333333 [-]
	 SCS Opposite-Spin Scale   =       1.2000000000000000 [-]
	 SCS Same-Spin Energy      =      -0.1130275059860788 [Eh]
	 SCS Opposite-Spin Energy  =      -1.4778208897074234 [Eh]
	 SCS Correlation Energy    =      -1.5908483956935022 [Eh]
	 SCS Total Energy          =    -313.9375362877903513 [Eh]
	-----------------------------------------------------------

  Dipole Moment: [D]
     X:     0.0029      Y:     0.0697      Z:     0.0801     Total:     0.1062

*** Psi4 exiting successfully. Buy a developer a beer!
