                               Psi4 1.4a3.dev225

  ==> Input File <==

--------------------------------------------------------------------------
#psi4
#
memory 32 gb

molecule  {
0 1
  C        1.0769770     0.3750480     0.4036540
  C       -1.0769820     0.3750600     0.4036550
  C        0.0000030     1.4273620     0.0552210
  C       -0.0000090    -0.7130420     0.1804050
  C        2.3595160     0.3194210    -0.4060430
  C       -2.3595260     0.3194330    -0.4060330
  C        3.2195680    -0.8924030    -0.0547570
  C       -3.2195490    -0.8924170    -0.0547640
  H        1.3139090     0.4360540     1.4748590
  H       -1.3139070     0.4360710     1.4748610
  H        0.0000080     2.3782020     0.5982830
  H        0.0000040     1.6360460    -1.0223960
  H       -0.0000100    -1.0431540    -0.8674540
  H       -0.0000130    -1.5954000     0.8282360
  H        2.9417809     1.2602542    -0.2454421
  H        2.0993870     0.2926970    -1.4725700
  H       -2.0994060     0.2927390    -1.4725620
  H       -2.9313940     1.2434200    -0.2482770
  H        2.6724260    -1.8222580    -0.2378450
  H        4.1369510    -0.9193470    -0.6503860
  H        3.5046520    -0.8738050     1.0019030
  H       -3.5045960    -0.8738620     1.0019060
  H       -4.1369540    -0.9193510    -0.6503600
  H       -2.6724020    -1.8222580    -0.2379080
units angstrom
no_reorient  #important for SAPT in psi4, default
symmetry c1  #important for SAPT in psi4, default
}

set PROPERTIES_ORIGIN ["COM"]
properties('MP2/aug-cc-pvtz', properties = ['dipole'])
--------------------------------------------------------------------------

    Molecular point group: c1
  Charge       = 0
  Multiplicity = 1
  Basis Set: AUG-CC-PVTZ
    Blend: AUG-CC-PVTZ
  Basis Set: (AUG-CC-PVTZ AUX)
    Blend: AUG-CC-PVTZ-JKFIT

    Orbital Energies [Eh]
    ---------------------

    Doubly Occupied:

       1A    -11.218587     2A    -11.218444     3A    -11.215884
       4A    -11.213449     5A    -11.211585     6A    -11.211044
       7A    -11.209408     8A    -11.209224     9A     -1.140693
      10A     -1.045649    11A     -1.007151    12A     -0.899241
      13A     -0.892038    14A     -0.840515    15A     -0.768250
      16A     -0.743828    17A     -0.651750    18A     -0.616198
      19A     -0.612047    20A     -0.584367    21A     -0.572326
      22A     -0.537085    23A     -0.530798    24A     -0.524908
      25A     -0.507573    26A     -0.505047    27A     -0.481885
      28A     -0.464414    29A     -0.442248    30A     -0.440693
      31A     -0.421557    32A     -0.406873

  @DF-RHF Final Energy:  -312.34621142449970

   => Energetics <=

    Nuclear Repulsion Energy =            390.0227461388662960
    One-Electron Energy =               -1194.0483965317516777
    Two-Electron Energy =                 491.6794389683856821
    Total Energy =                       -312.3462114244996997
  Basis Set: (AUG-CC-PVTZ AUX)
    Blend: AUG-CC-PVTZ-RI
    Molecular point group: c1

    Geometry (in Angstrom), charge = 0, multiplicity = 1:

       Center              X                  Y                   Z               Mass
    ------------   -----------------  -----------------  -----------------  -----------------
         C            1.076883412107     0.357988748758     0.397185966426    12.000000000000
         C           -1.077075587893     0.358000748758     0.397186966426    12.000000000000
         C           -0.000090587893     1.410302748758     0.048752966426    12.000000000000
         C           -0.000102587893    -0.730101251242     0.173936966426    12.000000000000
         C            2.359422412107     0.302361748758    -0.412511033574    12.000000000000
         C           -2.359619587893     0.302373748758    -0.412501033574    12.000000000000
         C            3.219474412107    -0.909462251242    -0.061225033574    12.000000000000
         C           -3.219642587893    -0.909476251242    -0.061232033574    12.000000000000
         H            1.313815412107     0.418994748758     1.468390966426     1.007825032230
         H           -1.314000587893     0.419011748758     1.468392966426     1.007825032230
         H           -0.000085587893     2.361142748758     0.591814966426     1.007825032230
         H           -0.000089587893     1.618986748758    -1.028864033574     1.007825032230
         H           -0.000103587893    -1.060213251242    -0.873922033574     1.007825032230
         H           -0.000106587893    -1.612459251242     0.821767966426     1.007825032230
         H            2.941687312107     1.243194948758    -0.251910133574     1.007825032230
         H            2.099293412107     0.275637748758    -1.479038033574     1.007825032230
         H           -2.099499587893     0.275679748758    -1.479030033574     1.007825032230
         H           -2.931487587893     1.226360748758    -0.254745033574     1.007825032230
         H            2.672332412107    -1.839317251242    -0.244313033574     1.007825032230
         H            4.136857412107    -0.936406251242    -0.656854033574     1.007825032230
         H            3.504558412107    -0.890864251242     0.995434966426     1.007825032230
         H           -3.504689587893    -0.890921251242     0.995437966426     1.007825032230
         H           -4.137047587893    -0.936410251242    -0.656828033574     1.007825032230
         H           -2.672495587893    -1.839317251242    -0.244376033574     1.007825032230

  Basis Set: AUG-CC-PVTZ
    Blend: AUG-CC-PVTZ
  Basis Set: (AUG-CC-PVTZ AUX)
    Blend: AUG-CC-PVTZ-JKFIT
	 Reference Energy          =    -312.3462114244996997 [Eh]
	 Singles Energy            =      -0.0000000000000000 [Eh]
	 Same-Spin Energy          =      -0.3390794739650783 [Eh]
	 Opposite-Spin Energy      =      -1.2316548001582150 [Eh]
	 Correlation Energy        =      -1.5707342741232933 [Eh]
	 Total Energy              =    -313.9169456986230102 [Eh]

	 ================> DF-SCS-MP2 Energies <==================
	-----------------------------------------------------------
	 SCS Same-Spin Scale       =       0.3333333333333333 [-]
	 SCS Opposite-Spin Scale   =       1.2000000000000000 [-]
	 SCS Same-Spin Energy      =      -0.1130264913216927 [Eh]
	 SCS Opposite-Spin Energy  =      -1.4779857601898581 [Eh]
	 SCS Correlation Energy    =      -1.5910122515115508 [Eh]
	 SCS Total Energy          =    -313.9372236760112287 [Eh]
	-----------------------------------------------------------

  Dipole Moment: [D]
     X:    -0.0107      Y:     0.0600      Z:     0.0838     Total:     0.1036

*** Psi4 exiting successfully. Buy a developer a beer!
