                               Psi4 1.4a3.dev225

  ==> Input File <==

--------------------------------------------------------------------------
#psi4
#
memory 32 gb

molecule  {
0 1
  C        1.0769770     0.3750480     0.4036540
  C       -1.0769820     0.3750600     0.4036550
  C        0.0002935     1.4352587     0.0810117
  C       -0.0000090    -0.7130420     0.1804050
  C        2.3595160     0.3194210    -0.4060430
  C       -2.3595260     0.3194330    -0.4060330
  C        3.2195680    -0.8924030    -0.0547570
  C       -3.2195490    -0.8924170    -0.0547640
  H        1.3139090     0.4360540     1.4748590
  H       -1.3139070     0.4360710     1.4748610
  H        0.0000080     2.3782020     0.5982830
  H        0.0000040     1.6360460    -1.0223960
  H       -0.0000100    -1.0431540    -0.8674540
  H       -0.0000130    -1.5954000     0.8282360
  H        2.9313650     1.2434240    -0.2483150
  H        2.0993870     0.2926970    -1.4725700
  H       -2.0994060     0.2927390    -1.4725620
  H       -2.9313940     1.2434200    -0.2482770
  H        2.6724260    -1.8222580    -0.2378450
  H        4.1369510    -0.9193470    -0.6503860
  H        3.5046520    -0.8738050     1.0019030
  H       -3.5045960    -0.8738620     1.0019060
  H       -4.1369540    -0.9193510    -0.6503600
  H       -2.6724020    -1.8222580    -0.2379080
units angstrom
no_reorient  #important for SAPT in psi4, default
symmetry c1  #important for SAPT in psi4, default
}

set PROPERTIES_ORIGIN ["COM"]
properties('MP2/aug-cc-pvtz', properties = ['dipole'])
--------------------------------------------------------------------------

    Molecular point group: c1
  Charge       = 0
  Multiplicity = 1
  Basis Set: AUG-CC-PVTZ
    Blend: AUG-CC-PVTZ
  Basis Set: (AUG-CC-PVTZ AUX)
    Blend: AUG-CC-PVTZ-JKFIT

    Orbital Energies [Eh]
    ---------------------

    Doubly Occupied:

       1A    -11.218598     2A    -11.218554     3A    -11.213559
       4A    -11.213554     5A    -11.211436     6A    -11.211388
       7A    -11.209290     8A    -11.209287     9A     -1.140247
      10A     -1.045983    11A     -1.007520    12A     -0.899189
      13A     -0.892373    14A     -0.841325    15A     -0.769353
      16A     -0.741997    17A     -0.654561    18A     -0.616919
      19A     -0.612238    20A     -0.585001    21A     -0.572384
      22A     -0.536333    23A     -0.528663    24A     -0.524946
      25A     -0.507875    26A     -0.504165    27A     -0.482685
      28A     -0.464024    29A     -0.441919    30A     -0.440101
      31A     -0.423789    32A     -0.406738

  @DF-RHF Final Energy:  -312.34587463524849

   => Energetics <=

    Nuclear Repulsion Energy =            390.0174081319773904
    One-Electron Energy =               -1194.0345837285483412
    Two-Electron Energy =                 491.6713009613224585
    Total Energy =                       -312.3458746352484923
  Basis Set: (AUG-CC-PVTZ AUX)
    Blend: AUG-CC-PVTZ-RI
    Molecular point group: c1

    Geometry (in Angstrom), charge = 0, multiplicity = 1:

       Center              X                  Y                   Z               Mass
    ------------   -----------------  -----------------  -----------------  -----------------
         C            1.076945944033     0.357294894899     0.394451585412    12.000000000000
         C           -1.077013055967     0.357306894899     0.394452585412    12.000000000000
         C            0.000262444033     1.417505594899     0.071809285412    12.000000000000
         C           -0.000040055967    -0.730795105101     0.171202585412    12.000000000000
         C            2.359484944033     0.301667894899    -0.415245414588    12.000000000000
         C           -2.359557055967     0.301679894899    -0.415235414588    12.000000000000
         C            3.219536944033    -0.910156105101    -0.063959414588    12.000000000000
         C           -3.219580055967    -0.910170105101    -0.063966414588    12.000000000000
         H            1.313877944033     0.418300894899     1.465656585412     1.007825032230
         H           -1.313938055967     0.418317894899     1.465658585412     1.007825032230
         H           -0.000023055967     2.360448894899     0.589080585412     1.007825032230
         H           -0.000027055967     1.618292894899    -1.031598414588     1.007825032230
         H           -0.000041055967    -1.060907105101    -0.876656414588     1.007825032230
         H           -0.000044055967    -1.613153105101     0.819033585412     1.007825032230
         H            2.931333944033     1.225670894899    -0.257517414588     1.007825032230
         H            2.099355944033     0.274943894899    -1.481772414588     1.007825032230
         H           -2.099437055967     0.274985894899    -1.481764414588     1.007825032230
         H           -2.931425055967     1.225666894899    -0.257479414588     1.007825032230
         H            2.672394944033    -1.840011105101    -0.247047414588     1.007825032230
         H            4.136919944033    -0.937100105101    -0.659588414588     1.007825032230
         H            3.504620944033    -0.891558105101     0.992700585412     1.007825032230
         H           -3.504627055967    -0.891615105101     0.992703585412     1.007825032230
         H           -4.136985055967    -0.937104105101    -0.659562414588     1.007825032230
         H           -2.672433055967    -1.840011105101    -0.247110414588     1.007825032230

  Basis Set: AUG-CC-PVTZ
    Blend: AUG-CC-PVTZ
  Basis Set: (AUG-CC-PVTZ AUX)
    Blend: AUG-CC-PVTZ-JKFIT
	 Reference Energy          =    -312.3458746352484923 [Eh]
	 Singles Energy            =      -0.0000000000000000 [Eh]
	 Same-Spin Energy          =      -0.3391159718182623 [Eh]
	 Opposite-Spin Energy      =      -1.2315897952194244 [Eh]
	 Correlation Energy        =      -1.5707057670376867 [Eh]
	 Total Energy              =    -313.9165804022861721 [Eh]

	 ================> DF-SCS-MP2 Energies <==================
	-----------------------------------------------------------
	 SCS Same-Spin Scale       =       0.3333333333333333 [-]
	 SCS Opposite-Spin Scale   =       1.2000000000000000 [-]
	 SCS Same-Spin Energy      =      -0.1130386572727541 [Eh]
	 SCS Opposite-Spin Energy  =      -1.4779077542633092 [Eh]
	 SCS Correlation Energy    =      -1.5909464115360634 [Eh]
	 SCS Total Energy          =    -313.9368210467845302 [Eh]
	-----------------------------------------------------------

  Dipole Moment: [D]
     X:    -0.0002      Y:     0.0793      Z:     0.1034     Total:     0.1303

*** Psi4 exiting successfully. Buy a developer a beer!
