                               Psi4 1.4a3.dev225

  ==> Input File <==

--------------------------------------------------------------------------
#psi4
#
memory 32 gb

molecule  {
0 1
  C        1.0769770     0.3750480     0.4036540
  C       -1.0769820     0.3750600     0.4036550
  C        0.0002558     1.4428325     0.1069007
  C       -0.0000090    -0.7130420     0.1804050
  C        2.3595160     0.3194210    -0.4060430
  C       -2.3595260     0.3194330    -0.4060330
  C        3.2195680    -0.8924030    -0.0547570
  C       -3.2195490    -0.8924170    -0.0547640
  H        1.3139090     0.4360540     1.4748590
  H       -1.3139070     0.4360710     1.4748610
  H        0.0000080     2.3782020     0.5982830
  H        0.0000040     1.6360460    -1.0223960
  H       -0.0000100    -1.0431540    -0.8674540
  H       -0.0000130    -1.5954000     0.8282360
  H        2.9313650     1.2434240    -0.2483150
  H        2.0993870     0.2926970    -1.4725700
  H       -2.0994060     0.2927390    -1.4725620
  H       -2.9313940     1.2434200    -0.2482770
  H        2.6724260    -1.8222580    -0.2378450
  H        4.1369510    -0.9193470    -0.6503860
  H        3.5046520    -0.8738050     1.0019030
  H       -3.5045960    -0.8738620     1.0019060
  H       -4.1369540    -0.9193510    -0.6503600
  H       -2.6724020    -1.8222580    -0.2379080
units angstrom
no_reorient  #important for SAPT in psi4, default
symmetry c1  #important for SAPT in psi4, default
}

set PROPERTIES_ORIGIN ["COM"]
properties('MP2/aug-cc-pvtz', properties = ['dipole'])
--------------------------------------------------------------------------

    Molecular point group: c1
  Charge       = 0
  Multiplicity = 1
  Basis Set: AUG-CC-PVTZ
    Blend: AUG-CC-PVTZ
  Basis Set: (AUG-CC-PVTZ AUX)
    Blend: AUG-CC-PVTZ-JKFIT

    Orbital Energies [Eh]
    ---------------------

    Doubly Occupied:

       1A    -11.218951     2A    -11.218908     3A    -11.213763
       4A    -11.213760     5A    -11.212028     6A    -11.211495
       7A    -11.209430     8A    -11.209427     9A     -1.139916
      10A     -1.046031    11A     -1.007657    12A     -0.899242
      13A     -0.892984    14A     -0.841691    15A     -0.769672
      16A     -0.740626    17A     -0.657527    18A     -0.617010
      19A     -0.611974    20A     -0.585188    21A     -0.572573
      22A     -0.535716    23A     -0.526935    24A     -0.525121
      25A     -0.508052    26A     -0.502690    27A     -0.483052
      28A     -0.463855    29A     -0.442630    30A     -0.439357
      31A     -0.424168    32A     -0.406584

  @DF-RHF Final Energy:  -312.34343359037030

   => Energetics <=

    Nuclear Repulsion Energy =            389.9166547533473590
    One-Electron Energy =               -1193.8241505042394692
    Two-Electron Energy =                 491.5640621605218712
    Total Energy =                       -312.3434335903702959
  Basis Set: (AUG-CC-PVTZ AUX)
    Blend: AUG-CC-PVTZ-RI
    Molecular point group: c1

    Geometry (in Angstrom), charge = 0, multiplicity = 1:

       Center              X                  Y                   Z               Mass
    ------------   -----------------  -----------------  -----------------  -----------------
         C            1.076949978809     0.356484322435     0.391680861270    12.000000000000
         C           -1.077009021191     0.356496322435     0.391681861270    12.000000000000
         C            0.000228778809     1.424268822435     0.094927561270    12.000000000000
         C           -0.000036021191    -0.731605677565     0.168431861270    12.000000000000
         C            2.359488978809     0.300857322435    -0.418016138730    12.000000000000
         C           -2.359553021191     0.300869322435    -0.418006138730    12.000000000000
         C            3.219540978809    -0.910966677565    -0.066730138730    12.000000000000
         C           -3.219576021191    -0.910980677565    -0.066737138730    12.000000000000
         H            1.313881978809     0.417490322435     1.462885861270     1.007825032230
         H           -1.313934021191     0.417507322435     1.462887861270     1.007825032230
         H           -0.000019021191     2.359638322435     0.586309861270     1.007825032230
         H           -0.000023021191     1.617482322435    -1.034369138730     1.007825032230
         H           -0.000037021191    -1.061717677565    -0.879427138730     1.007825032230
         H           -0.000040021191    -1.613963677565     0.816262861270     1.007825032230
         H            2.931337978809     1.224860322435    -0.260288138730     1.007825032230
         H            2.099359978809     0.274133322435    -1.484543138730     1.007825032230
         H           -2.099433021191     0.274175322435    -1.484535138730     1.007825032230
         H           -2.931421021191     1.224856322435    -0.260250138730     1.007825032230
         H            2.672398978809    -1.840821677565    -0.249818138730     1.007825032230
         H            4.136923978809    -0.937910677565    -0.662359138730     1.007825032230
         H            3.504624978809    -0.892368677565     0.989929861270     1.007825032230
         H           -3.504623021191    -0.892425677565     0.989932861270     1.007825032230
         H           -4.136981021191    -0.937914677565    -0.662333138730     1.007825032230
         H           -2.672429021191    -1.840821677565    -0.249881138730     1.007825032230

  Basis Set: AUG-CC-PVTZ
    Blend: AUG-CC-PVTZ
  Basis Set: (AUG-CC-PVTZ AUX)
    Blend: AUG-CC-PVTZ-JKFIT
	 Reference Energy          =    -312.3434335903702959 [Eh]
	 Singles Energy            =      -0.0000000000000000 [Eh]
	 Same-Spin Energy          =      -0.3391765058603569 [Eh]
	 Opposite-Spin Energy      =      -1.2317335776583369 [Eh]
	 Correlation Energy        =      -1.5709100835186938 [Eh]
	 Total Energy              =    -313.9143436738889932 [Eh]

	 ================> DF-SCS-MP2 Energies <==================
	-----------------------------------------------------------
	 SCS Same-Spin Scale       =       0.3333333333333333 [-]
	 SCS Opposite-Spin Scale   =       1.2000000000000000 [-]
	 SCS Same-Spin Energy      =      -0.1130588352867856 [Eh]
	 SCS Opposite-Spin Energy  =      -1.4780802931900043 [Eh]
	 SCS Correlation Energy    =      -1.5911391284767900 [Eh]
	 SCS Total Energy          =    -313.9345727188471074 [Eh]
	-----------------------------------------------------------

  Dipole Moment: [D]
     X:    -0.0002      Y:     0.0808      Z:     0.1254     Total:     0.1492

*** Psi4 exiting successfully. Buy a developer a beer!
