                               Psi4 1.4a3.dev225

  ==> Input File <==

--------------------------------------------------------------------------
#psi4
#
memory 32 gb

molecule  {
0 1
  C        1.0769770     0.3750480     0.4036540
  C       -1.0769820     0.3750600     0.4036550
  C        0.0000030     1.4273620     0.0552210
  C       -0.0000090    -0.7130420     0.1804050
  C        2.3595160     0.3194210    -0.4060430
  C       -2.3595260     0.3194330    -0.4060330
  C        3.2195680    -0.8924030    -0.0547570
  C       -3.2195490    -0.8924170    -0.0547640
  H        1.3139090     0.4360540     1.4748590
  H       -1.3139070     0.4360710     1.4748610
  H        0.0000080     2.3782020     0.5982830
  H        0.0000040     1.6360460    -1.0223960
  H       -0.0000100    -1.0431540    -0.8674540
  H       -0.0000130    -1.5954000     0.8282360
  H        2.9313650     1.2434240    -0.2483150
  H        2.0993870     0.2926970    -1.4725700
  H       -2.0994060     0.2927390    -1.4725620
  H       -2.9313940     1.2434200    -0.2482770
  H        2.6724260    -1.8222580    -0.2378450
  H        4.1369510    -0.9193470    -0.6503860
  H        3.5046520    -0.8738050     1.0019030
  H       -3.5045960    -0.8738620     1.0019060
  H       -4.1416780    -0.9021455    -0.6435555
  H       -2.6724020    -1.8222580    -0.2379080
units angstrom
no_reorient  #important for SAPT in psi4, default
symmetry c1  #important for SAPT in psi4, default
}

set PROPERTIES_ORIGIN ["COM"]
properties('MP2/aug-cc-pvtz', properties = ['dipole'])
--------------------------------------------------------------------------

    Molecular point group: c1
  Charge       = 0
  Multiplicity = 1
  Basis Set: AUG-CC-PVTZ
    Blend: AUG-CC-PVTZ
  Basis Set: (AUG-CC-PVTZ AUX)
    Blend: AUG-CC-PVTZ-JKFIT

    Orbital Energies [Eh]
    ---------------------

    Doubly Occupied:

       1A    -11.218351     2A    -11.218262     3A    -11.213367
       4A    -11.213269     5A    -11.211398     6A    -11.210929
       7A    -11.209190     8A    -11.209160     9A     -1.140602
      10A     -1.045988    11A     -1.007459    12A     -0.899129
      13A     -0.891984    14A     -0.840900    15A     -0.769009
      16A     -0.743729    17A     -0.651708    18A     -0.616981
      19A     -0.612892    20A     -0.584750    21A     -0.571929
      22A     -0.537062    23A     -0.530686    24A     -0.524211
      25A     -0.508265    26A     -0.505683    27A     -0.482403
      28A     -0.464174    29A     -0.442080    30A     -0.441058
      31A     -0.421570    32A     -0.406732

  @DF-RHF Final Energy:  -312.34668042559787

   => Energetics <=

    Nuclear Repulsion Energy =            390.1227853288529559
    One-Electron Energy =               -1194.2491047867147245
    Two-Electron Energy =                 491.7796390322639013
    Total Energy =                       -312.3466804255978673
  Basis Set: (AUG-CC-PVTZ AUX)
    Blend: AUG-CC-PVTZ-RI
    Molecular point group: c1

    Geometry (in Angstrom), charge = 0, multiplicity = 1:

       Center              X                  Y                   Z               Mass
    ------------   -----------------  -----------------  -----------------  -----------------
         C            1.077019495433     0.357985375416     0.397150627672    12.000000000000
         C           -1.076939504567     0.357997375416     0.397151627672    12.000000000000
         C            0.000045495433     1.410299375416     0.048717627672    12.000000000000
         C            0.000033495433    -0.730104624584     0.173901627672    12.000000000000
         C            2.359558495433     0.302358375416    -0.412546372328    12.000000000000
         C           -2.359483504567     0.302370375416    -0.412536372328    12.000000000000
         C            3.219610495433    -0.909465624584    -0.061260372328    12.000000000000
         C           -3.219506504567    -0.909479624584    -0.061267372328    12.000000000000
         H            1.313951495433     0.418991375416     1.468355627672     1.007825032230
         H           -1.313864504567     0.419008375416     1.468357627672     1.007825032230
         H            0.000050495433     2.361139375416     0.591779627672     1.007825032230
         H            0.000046495433     1.618983375416    -1.028899372328     1.007825032230
         H            0.000032495433    -1.060216624584    -0.873957372328     1.007825032230
         H            0.000029495433    -1.612462624584     0.821732627672     1.007825032230
         H            2.931407495433     1.226361375416    -0.254818372328     1.007825032230
         H            2.099429495433     0.275634375416    -1.479073372328     1.007825032230
         H           -2.099363504567     0.275676375416    -1.479065372328     1.007825032230
         H           -2.931351504567     1.226357375416    -0.254780372328     1.007825032230
         H            2.672468495433    -1.839320624584    -0.244348372328     1.007825032230
         H            4.136993495433    -0.936409624584    -0.656889372328     1.007825032230
         H            3.504694495433    -0.890867624584     0.995399627672     1.007825032230
         H           -3.504553504567    -0.890924624584     0.995402627672     1.007825032230
         H           -4.141635504567    -0.919208124584    -0.650058872328     1.007825032230
         H           -2.672359504567    -1.839320624584    -0.244411372328     1.007825032230

  Basis Set: AUG-CC-PVTZ
    Blend: AUG-CC-PVTZ
  Basis Set: (AUG-CC-PVTZ AUX)
    Blend: AUG-CC-PVTZ-JKFIT
	 Reference Energy          =    -312.3466804255978673 [Eh]
	 Singles Energy            =      -0.0000000000000000 [Eh]
	 Same-Spin Energy          =      -0.3390805088346756 [Eh]
	 Opposite-Spin Energy      =      -1.2315300766965425 [Eh]
	 Correlation Energy        =      -1.5706105855312180 [Eh]
	 Total Energy              =    -313.9172910111290662 [Eh]

	 ================> DF-SCS-MP2 Energies <==================
	-----------------------------------------------------------
	 SCS Same-Spin Scale       =       0.3333333333333333 [-]
	 SCS Opposite-Spin Scale   =       1.2000000000000000 [-]
	 SCS Same-Spin Energy      =      -0.1130268362782252 [Eh]
	 SCS Opposite-Spin Energy  =      -1.4778360920358509 [Eh]
	 SCS Correlation Energy    =      -1.5908629283140761 [Eh]
	 SCS Total Energy          =    -313.9375433539119626 [Eh]
	-----------------------------------------------------------

  Dipole Moment: [D]
     X:    -0.0028      Y:     0.0786      Z:     0.0861     Total:     0.1166

*** Psi4 exiting successfully. Buy a developer a beer!
