                               Psi4 1.4a3.dev225

  ==> Input File <==

--------------------------------------------------------------------------
#psi4
#
memory 32 gb

molecule  {
0 1
  C        1.0769770     0.3750480     0.4036540
  C       -1.0769820     0.3750600     0.4036550
  C        0.0000030     1.4273620     0.0552210
  C       -0.0000090    -0.7130420     0.1804050
  C        2.3595160     0.3194210    -0.4060430
  C       -2.5285304     0.3121029    -0.5127278
  C        3.2195680    -0.8924030    -0.0547570
  C       -3.2195490    -0.8924170    -0.0547640
  H        1.3139090     0.4360540     1.4748590
  H       -1.3139070     0.4360710     1.4748610
  H        0.0000080     2.3782020     0.5982830
  H        0.0000040     1.6360460    -1.0223960
  H       -0.0000100    -1.0431540    -0.8674540
  H       -0.0000130    -1.5954000     0.8282360
  H        2.9313650     1.2434240    -0.2483150
  H        2.0993870     0.2926970    -1.4725700
  H       -2.0994060     0.2927390    -1.4725620
  H       -2.9313940     1.2434200    -0.2482770
  H        2.6724260    -1.8222580    -0.2378450
  H        4.1369510    -0.9193470    -0.6503860
  H        3.5046520    -0.8738050     1.0019030
  H       -3.5045960    -0.8738620     1.0019060
  H       -4.1369540    -0.9193510    -0.6503600
  H       -2.6724020    -1.8222580    -0.2379080
units angstrom
no_reorient  #important for SAPT in psi4, default
symmetry c1  #important for SAPT in psi4, default
}

set PROPERTIES_ORIGIN ["COM"]
properties('MP2/aug-cc-pvtz', properties = ['dipole'])
--------------------------------------------------------------------------

    Molecular point group: c1
  Charge       = 0
  Multiplicity = 1
  Basis Set: AUG-CC-PVTZ
    Blend: AUG-CC-PVTZ
  Basis Set: (AUG-CC-PVTZ AUX)
    Blend: AUG-CC-PVTZ-JKFIT

    Orbital Energies [Eh]
    ---------------------

    Doubly Occupied:

       1A    -11.222869     2A    -11.217866     3A    -11.212978
       4A    -11.212929     5A    -11.210862     6A    -11.209858
       7A    -11.208783     8A    -11.207765     9A     -1.134161
      10A     -1.044273    11A     -1.014342    12A     -0.892169
      13A     -0.888547    14A     -0.837009    15A     -0.774162
      16A     -0.740361    17A     -0.649894    18A     -0.624624
      19A     -0.604909    20A     -0.590990    21A     -0.567560
      22A     -0.548754    23A     -0.529697    24A     -0.526520
      25A     -0.507033    26A     -0.505846    27A     -0.492782
      28A     -0.461294    29A     -0.449134    30A     -0.432878
      31A     -0.422670    32A     -0.372606

  @DF-RHF Final Energy:  -312.31694072044252

   => Energetics <=

    Nuclear Repulsion Energy =            387.7778256888678925
    One-Electron Energy =               -1189.5572851029805861
    Two-Electron Energy =                 489.4625186936701766
    Total Energy =                       -312.3169407204425170
  Basis Set: (AUG-CC-PVTZ AUX)
    Blend: AUG-CC-PVTZ-RI
    Molecular point group: c1

    Geometry (in Angstrom), charge = 0, multiplicity = 1:

       Center              X                  Y                   Z               Mass
    ------------   -----------------  -----------------  -----------------  -----------------
         C            1.095064429357     0.358924516065     0.408630610223    12.000000000000
         C           -1.058894570643     0.358936516065     0.408631610223    12.000000000000
         C            0.018090429357     1.411238516065     0.060197610223    12.000000000000
         C            0.018078429357    -0.729165483935     0.185381610223    12.000000000000
         C            2.377603429357     0.303297516065    -0.401066389777    12.000000000000
         C           -2.510442970643     0.295979416065    -0.507751189777    12.000000000000
         C            3.237655429357    -0.908526483935    -0.049780389777    12.000000000000
         C           -3.201461570643    -0.908540483935    -0.049787389777    12.000000000000
         H            1.331996429357     0.419930516065     1.479835610223     1.007825032230
         H           -1.295819570643     0.419947516065     1.479837610223     1.007825032230
         H            0.018095429357     2.362078516065     0.603259610223     1.007825032230
         H            0.018091429357     1.619922516065    -1.017419389777     1.007825032230
         H            0.018077429357    -1.059277483935    -0.862477389777     1.007825032230
         H            0.018074429357    -1.611523483935     0.833212610223     1.007825032230
         H            2.949452429357     1.227300516065    -0.243338389777     1.007825032230
         H            2.117474429357     0.276573516065    -1.467593389777     1.007825032230
         H           -2.081318570643     0.276615516065    -1.467585389777     1.007825032230
         H           -2.913306570643     1.227296516065    -0.243300389777     1.007825032230
         H            2.690513429357    -1.838381483935    -0.232868389777     1.007825032230
         H            4.155038429357    -0.935470483935    -0.645409389777     1.007825032230
         H            3.522739429357    -0.889928483935     1.006879610223     1.007825032230
         H           -3.486508570643    -0.889985483935     1.006882610223     1.007825032230
         H           -4.118866570643    -0.935474483935    -0.645383389777     1.007825032230
         H           -2.654314570643    -1.838381483935    -0.232931389777     1.007825032230

  Basis Set: AUG-CC-PVTZ
    Blend: AUG-CC-PVTZ
  Basis Set: (AUG-CC-PVTZ AUX)
    Blend: AUG-CC-PVTZ-JKFIT
	 Reference Energy          =    -312.3169407204425170 [Eh]
	 Singles Energy            =      -0.0000000000000000 [Eh]
	 Same-Spin Energy          =      -0.3398706883517934 [Eh]
	 Opposite-Spin Energy      =      -1.2335770889164668 [Eh]
	 Correlation Energy        =      -1.5734477772682602 [Eh]
	 Total Energy              =    -313.8903884977107737 [Eh]

	 ================> DF-SCS-MP2 Energies <==================
	-----------------------------------------------------------
	 SCS Same-Spin Scale       =       0.3333333333333333 [-]
	 SCS Opposite-Spin Scale   =       1.2000000000000000 [-]
	 SCS Same-Spin Energy      =      -0.1132902294505978 [Eh]
	 SCS Opposite-Spin Energy  =      -1.4802925066997601 [Eh]
	 SCS Correlation Energy    =      -1.5935827361503578 [Eh]
	 SCS Total Energy          =    -313.9105234565928981 [Eh]
	-----------------------------------------------------------

  Dipole Moment: [D]
     X:     0.0060      Y:     0.0624      Z:     0.0970     Total:     0.1155

*** Psi4 exiting successfully. Buy a developer a beer!
