                               Psi4 1.4a3.dev225

  ==> Input File <==

--------------------------------------------------------------------------
#psi4
#
memory 32 gb

molecule  {
0 1
  C        1.0769770     0.3750480     0.4036540
  C       -1.0769820     0.3750600     0.4036550
  C        0.0000030     1.4273620     0.0552210
  C       -0.0000090    -0.7130420     0.1804050
  C        2.2750142     0.3230861    -0.3526950
  C       -2.3595260     0.3194330    -0.4060330
  C        3.2195680    -0.8924030    -0.0547570
  C       -3.2195490    -0.8924170    -0.0547640
  H        1.3139090     0.4360540     1.4748590
  H       -1.3139070     0.4360710     1.4748610
  H        0.0000080     2.3782020     0.5982830
  H        0.0000040     1.6360460    -1.0223960
  H       -0.0000100    -1.0431540    -0.8674540
  H       -0.0000130    -1.5954000     0.8282360
  H        2.9313650     1.2434240    -0.2483150
  H        2.0993870     0.2926970    -1.4725700
  H       -2.0994060     0.2927390    -1.4725620
  H       -2.9313940     1.2434200    -0.2482770
  H        2.6724260    -1.8222580    -0.2378450
  H        4.1369510    -0.9193470    -0.6503860
  H        3.5046520    -0.8738050     1.0019030
  H       -3.5045960    -0.8738620     1.0019060
  H       -4.1369540    -0.9193510    -0.6503600
  H       -2.6724020    -1.8222580    -0.2379080
units angstrom
no_reorient  #important for SAPT in psi4, default
symmetry c1  #important for SAPT in psi4, default
}

set PROPERTIES_ORIGIN ["COM"]
properties('MP2/aug-cc-pvtz', properties = ['dipole'])
--------------------------------------------------------------------------

    Molecular point group: c1
  Charge       = 0
  Multiplicity = 1
  Basis Set: AUG-CC-PVTZ
    Blend: AUG-CC-PVTZ
  Basis Set: (AUG-CC-PVTZ AUX)
    Blend: AUG-CC-PVTZ-JKFIT

    Orbital Energies [Eh]
    ---------------------

    Doubly Occupied:

       1A    -11.218888     2A    -11.217482     3A    -11.214225
       4A    -11.213746     5A    -11.212194     6A    -11.211916
       7A    -11.211337     8A    -11.209482     9A     -1.146571
      10A     -1.050203    11A     -1.004206    12A     -0.905667
      13A     -0.893518    14A     -0.844497    15A     -0.764723
      16A     -0.745813    17A     -0.653505    18A     -0.619405
      19A     -0.615735    20A     -0.580212    21A     -0.573950
      22A     -0.539027    23A     -0.531714    24A     -0.529099
      25A     -0.509440    26A     -0.501943    27A     -0.481051
      28A     -0.462245    29A     -0.447522    30A     -0.434614
      31A     -0.417038    32A     -0.409033

  @DF-RHF Final Energy:  -312.33526677491170

   => Energetics <=

    Nuclear Repulsion Energy =            391.3959805083323999
    One-Electron Energy =               -1196.7224921444217216
    Two-Electron Energy =                 492.9912448611776199
    Total Energy =                       -312.3352667749117018
  Basis Set: (AUG-CC-PVTZ AUX)
    Blend: AUG-CC-PVTZ-RI
    Molecular point group: c1

    Geometry (in Angstrom), charge = 0, multiplicity = 1:

       Center              X                  Y                   Z               Mass
    ------------   -----------------  -----------------  -----------------  -----------------
         C            1.086020689009     0.357747774356     0.391502314432    12.000000000000
         C           -1.067938310991     0.357759774356     0.391503314432    12.000000000000
         C            0.009046689009     1.410061774356     0.043069314432    12.000000000000
         C            0.009034689009    -0.730342225644     0.168253314432    12.000000000000
         C            2.284057889009     0.305785874356    -0.364846685568    12.000000000000
         C           -2.350482310991     0.302132774356    -0.418184685568    12.000000000000
         C            3.228611689009    -0.909703225644    -0.066908685568    12.000000000000
         C           -3.210505310991    -0.909717225644    -0.066915685568    12.000000000000
         H            1.322952689009     0.418753774356     1.462707314432     1.007825032230
         H           -1.304863310991     0.418770774356     1.462709314432     1.007825032230
         H            0.009051689009     2.360901774356     0.586131314432     1.007825032230
         H            0.009047689009     1.618745774356    -1.034547685568     1.007825032230
         H            0.009033689009    -1.060454225644    -0.879605685568     1.007825032230
         H            0.009030689009    -1.612700225644     0.816084314432     1.007825032230
         H            2.940408689009     1.226123774356    -0.260466685568     1.007825032230
         H            2.108430689009     0.275396774356    -1.484721685568     1.007825032230
         H           -2.090362310991     0.275438774356    -1.484713685568     1.007825032230
         H           -2.922350310991     1.226119774356    -0.260428685568     1.007825032230
         H            2.681469689009    -1.839558225644    -0.249996685568     1.007825032230
         H            4.145994689009    -0.936647225644    -0.662537685568     1.007825032230
         H            3.513695689009    -0.891105225644     0.989751314432     1.007825032230
         H           -3.495552310991    -0.891162225644     0.989754314432     1.007825032230
         H           -4.127910310991    -0.936651225644    -0.662511685568     1.007825032230
         H           -2.663358310991    -1.839558225644    -0.250059685568     1.007825032230

  Basis Set: AUG-CC-PVTZ
    Blend: AUG-CC-PVTZ
  Basis Set: (AUG-CC-PVTZ AUX)
    Blend: AUG-CC-PVTZ-JKFIT
	 Reference Energy          =    -312.3352667749117018 [Eh]
	 Singles Energy            =      -0.0000000000000000 [Eh]
	 Same-Spin Energy          =      -0.3399572084220426 [Eh]
	 Opposite-Spin Energy      =      -1.2327415756340494 [Eh]
	 Correlation Energy        =      -1.5726987840560920 [Eh]
	 Total Energy              =    -313.9079655589678168 [Eh]

	 ================> DF-SCS-MP2 Energies <==================
	-----------------------------------------------------------
	 SCS Same-Spin Scale       =       0.3333333333333333 [-]
	 SCS Opposite-Spin Scale   =       1.2000000000000000 [-]
	 SCS Same-Spin Energy      =      -0.1133190694740142 [Eh]
	 SCS Opposite-Spin Energy  =      -1.4792898907608591 [Eh]
	 SCS Correlation Energy    =      -1.5926089602348734 [Eh]
	 SCS Total Energy          =    -313.9278757351465856 [Eh]
	-----------------------------------------------------------

  Dipole Moment: [D]
     X:    -0.0400      Y:     0.0679      Z:     0.1005     Total:     0.1277

*** Psi4 exiting successfully. Buy a developer a beer!
