                               Psi4 1.4a3.dev225

  ==> Input File <==

--------------------------------------------------------------------------
#psi4
#
memory 32 gb

molecule  {
0 1
  C        1.0769770     0.3750480     0.4036540
  C       -1.0769820     0.3750600     0.4036550
  C        0.0000030     1.4273620     0.0552210
  C       -0.0000090    -0.7130420     0.1804050
  C        2.3595160     0.3194210    -0.4060430
  C       -2.3595260     0.3194330    -0.4060330
  C        3.2195680    -0.8924030    -0.0547570
  C       -3.2195490    -0.8924170    -0.0547640
  H        1.3139090     0.4360540     1.4748590
  H       -1.3139070     0.4360710     1.4748610
  H        0.0000080     2.3782020     0.5982830
  H        0.0000040     1.6360460    -1.0223960
  H       -0.0000100    -1.0431540    -0.8674540
  H       -0.0000130    -1.5954000     0.8282360
  H        2.9313650     1.2434240    -0.2483150
  H        2.0993870     0.2926970    -1.4725700
  H       -2.0994060     0.2927390    -1.4725620
  H       -2.9313940     1.2434200    -0.2482770
  H        2.6724260    -1.8222580    -0.2378450
  H        4.1369510    -0.9193470    -0.6503860
  H        3.4786074    -0.8755041     0.9053691
  H       -3.5045960    -0.8738620     1.0019060
  H       -4.1369540    -0.9193510    -0.6503600
  H       -2.6724020    -1.8222580    -0.2379080
units angstrom
no_reorient  #important for SAPT in psi4, default
symmetry c1  #important for SAPT in psi4, default
}

set PROPERTIES_ORIGIN ["COM"]
properties('MP2/aug-cc-pvtz', properties = ['dipole'])
--------------------------------------------------------------------------

    Molecular point group: c1
  Charge       = 0
  Multiplicity = 1
  Basis Set: AUG-CC-PVTZ
    Blend: AUG-CC-PVTZ
  Basis Set: (AUG-CC-PVTZ AUX)
    Blend: AUG-CC-PVTZ-JKFIT

    Orbital Energies [Eh]
    ---------------------

    Doubly Occupied:

       1A    -11.218234     2A    -11.218191     3A    -11.213262
       4A    -11.212253     5A    -11.211236     6A    -11.210837
       7A    -11.209078     8A    -11.196317     9A     -1.140532
      10A     -1.047409    11A     -1.009884    12A     -0.903156
      13A     -0.891859    14A     -0.844617    15A     -0.770425
      16A     -0.743821    17A     -0.651656    18A     -0.619232
      19A     -0.612464    20A     -0.589816    21A     -0.572273
      22A     -0.541286    23A     -0.530525    24A     -0.524467
      25A     -0.509809    26A     -0.505305    27A     -0.484916
      28A     -0.465322    29A     -0.441954    30A     -0.440800
      31A     -0.421399    32A     -0.406548

  @DF-RHF Final Energy:  -312.34056874937608

   => Energetics <=

    Nuclear Repulsion Energy =            390.5534510617891897
    One-Electron Energy =               -1195.0702739471239511
    Two-Electron Energy =                 492.1762541359586294
    Total Energy =                       -312.3405687493760752
  Basis Set: (AUG-CC-PVTZ AUX)
    Blend: AUG-CC-PVTZ-RI
    Molecular point group: c1

    Geometry (in Angstrom), charge = 0, multiplicity = 1:

       Center              X                  Y                   Z               Mass
    ------------   -----------------  -----------------  -----------------  -----------------
         C            1.077211133301     0.358155297333     0.398079473514    12.000000000000
         C           -1.076747866699     0.358167297333     0.398080473514    12.000000000000
         C            0.000237133301     1.410469297333     0.049646473514    12.000000000000
         C            0.000225133301    -0.729934702667     0.174830473514    12.000000000000
         C            2.359750133301     0.302528297333    -0.411617526486    12.000000000000
         C           -2.359291866699     0.302540297333    -0.411607526486    12.000000000000
         C            3.219802133301    -0.909295702667    -0.060331526486    12.000000000000
         C           -3.219314866699    -0.909309702667    -0.060338526486    12.000000000000
         H            1.314143133301     0.419161297333     1.469284473514     1.007825032230
         H           -1.313672866699     0.419178297333     1.469286473514     1.007825032230
         H            0.000242133301     2.361309297333     0.592708473514     1.007825032230
         H            0.000238133301     1.619153297333    -1.027970526486     1.007825032230
         H            0.000224133301    -1.060046702667    -0.873028526486     1.007825032230
         H            0.000221133301    -1.612292702667     0.822661473514     1.007825032230
         H            2.931599133301     1.226531297333    -0.253889526486     1.007825032230
         H            2.099621133301     0.275804297333    -1.478144526486     1.007825032230
         H           -2.099171866699     0.275846297333    -1.478136526486     1.007825032230
         H           -2.931159866699     1.226527297333    -0.253851526486     1.007825032230
         H            2.672660133301    -1.839150702667    -0.243419526486     1.007825032230
         H            4.137185133301    -0.936239702667    -0.655960526486     1.007825032230
         H            3.478841533301    -0.892396802667     0.899794573514     1.007825032230
         H           -3.504361866699    -0.890754702667     0.996331473514     1.007825032230
         H           -4.136719866699    -0.936243702667    -0.655934526486     1.007825032230
         H           -2.672167866699    -1.839150702667    -0.243482526486     1.007825032230

  Basis Set: AUG-CC-PVTZ
    Blend: AUG-CC-PVTZ
  Basis Set: (AUG-CC-PVTZ AUX)
    Blend: AUG-CC-PVTZ-JKFIT
	 Reference Energy          =    -312.3405687493760752 [Eh]
	 Singles Energy            =      -0.0000000000000000 [Eh]
	 Same-Spin Energy          =      -0.3391507681582466 [Eh]
	 Opposite-Spin Energy      =      -1.2311103566812882 [Eh]
	 Correlation Energy        =      -1.5702611248395348 [Eh]
	 Total Energy              =    -313.9108298742156080 [Eh]

	 ================> DF-SCS-MP2 Energies <==================
	-----------------------------------------------------------
	 SCS Same-Spin Scale       =       0.3333333333333333 [-]
	 SCS Opposite-Spin Scale   =       1.2000000000000000 [-]
	 SCS Same-Spin Energy      =      -0.1130502560527488 [Eh]
	 SCS Opposite-Spin Energy  =      -1.4773324280175457 [Eh]
	 SCS Correlation Energy    =      -1.5903826840702946 [Eh]
	 SCS Total Energy          =    -313.9309514334463529 [Eh]
	-----------------------------------------------------------

  Dipole Moment: [D]
     X:     0.0269      Y:     0.0624      Z:     0.1368     Total:     0.1527

*** Psi4 exiting successfully. Buy a developer a beer!
