                               Psi4 1.4a3.dev225

  ==> Input File <==

--------------------------------------------------------------------------
#psi4
#
memory 32 gb

molecule  {
0 1
  C        1.0769770     0.3750480     0.4036540
  C       -1.0769820     0.3750600     0.4036550
  C        0.0348447     1.3933181     0.0664933
  C       -0.0000090    -0.7130420     0.1804050
  C        2.3595160     0.3194210    -0.4060430
  C       -2.3595260     0.3194330    -0.4060330
  C        3.2195680    -0.8924030    -0.0547570
  C       -3.2195490    -0.8924170    -0.0547640
  H        1.3139090     0.4360540     1.4748590
  H       -1.3139070     0.4360710     1.4748610
  H        0.0000080     2.3782020     0.5982830
  H        0.0000040     1.6360460    -1.0223960
  H       -0.0000100    -1.0431540    -0.8674540
  H       -0.0000130    -1.5954000     0.8282360
  H        2.9313650     1.2434240    -0.2483150
  H        2.0993870     0.2926970    -1.4725700
  H       -2.0994060     0.2927390    -1.4725620
  H       -2.9313940     1.2434200    -0.2482770
  H        2.6724260    -1.8222580    -0.2378450
  H        4.1369510    -0.9193470    -0.6503860
  H        3.5046520    -0.8738050     1.0019030
  H       -3.5045960    -0.8738620     1.0019060
  H       -4.1369540    -0.9193510    -0.6503600
  H       -2.6724020    -1.8222580    -0.2379080
units angstrom
no_reorient  #important for SAPT in psi4, default
symmetry c1  #important for SAPT in psi4, default
}

set PROPERTIES_ORIGIN ["COM"]
properties('MP2/aug-cc-pvtz', properties = ['dipole'])
--------------------------------------------------------------------------

    Molecular point group: c1
  Charge       = 0
  Multiplicity = 1
  Basis Set: AUG-CC-PVTZ
    Blend: AUG-CC-PVTZ
  Basis Set: (AUG-CC-PVTZ AUX)
    Blend: AUG-CC-PVTZ-JKFIT

    Orbital Energies [Eh]
    ---------------------

    Doubly Occupied:

       1A    -11.217463     2A    -11.215938     3A    -11.214127
       4A    -11.213616     5A    -11.213074     6A    -11.211850
       7A    -11.209690     8A    -11.209274     9A     -1.147169
      10A     -1.046717    11A     -1.008939    12A     -0.901429
      13A     -0.889700    14A     -0.841244    15A     -0.770794
      16A     -0.742639    17A     -0.651651    18A     -0.617294
      19A     -0.614012    20A     -0.584565    21A     -0.575123
      22A     -0.538346    23A     -0.526614    24A     -0.524022
      25A     -0.508113    26A     -0.505417    27A     -0.481995
      28A     -0.464763    29A     -0.446361    30A     -0.438148
      31A     -0.420652    32A     -0.409182

  @DF-RHF Final Energy:  -312.34393092111628

   => Energetics <=

    Nuclear Repulsion Energy =            390.7642250726104294
    One-Electron Energy =               -1195.4964677561063127
    Two-Electron Energy =                 492.3883117623796011
    Total Energy =                       -312.3439309211162822
  Basis Set: (AUG-CC-PVTZ AUX)
    Blend: AUG-CC-PVTZ-RI
    Molecular point group: c1

    Geometry (in Angstrom), charge = 0, multiplicity = 1:

       Center              X                  Y                   Z               Mass
    ------------   -----------------  -----------------  -----------------  -----------------
         C            1.073248163355     0.361783512959     0.396005391329    12.000000000000
         C           -1.080710836645     0.361795512959     0.396006391329    12.000000000000
         C            0.031115863355     1.380053612959     0.058844691329    12.000000000000
         C           -0.003737836645    -0.726306487041     0.172756391329    12.000000000000
         C            2.355787163355     0.306156512959    -0.413691608671    12.000000000000
         C           -2.363254836645     0.306168512959    -0.413681608671    12.000000000000
         C            3.215839163355    -0.905667487041    -0.062405608671    12.000000000000
         C           -3.223277836645    -0.905681487041    -0.062412608671    12.000000000000
         H            1.310180163355     0.422789512959     1.467210391329     1.007825032230
         H           -1.317635836645     0.422806512959     1.467212391329     1.007825032230
         H           -0.003720836645     2.364937512959     0.590634391329     1.007825032230
         H           -0.003724836645     1.622781512959    -1.030044608671     1.007825032230
         H           -0.003738836645    -1.056418487041    -0.875102608671     1.007825032230
         H           -0.003741836645    -1.608664487041     0.820587391329     1.007825032230
         H            2.927636163355     1.230159512959    -0.255963608671     1.007825032230
         H            2.095658163355     0.279432512959    -1.480218608671     1.007825032230
         H           -2.103134836645     0.279474512959    -1.480210608671     1.007825032230
         H           -2.935122836645     1.230155512959    -0.255925608671     1.007825032230
         H            2.668697163355    -1.835522487041    -0.245493608671     1.007825032230
         H            4.133222163355    -0.932611487041    -0.658034608671     1.007825032230
         H            3.500923163355    -0.887069487041     0.994254391329     1.007825032230
         H           -3.508324836645    -0.887126487041     0.994257391329     1.007825032230
         H           -4.140682836645    -0.932615487041    -0.658008608671     1.007825032230
         H           -2.676130836645    -1.835522487041    -0.245556608671     1.007825032230

  Basis Set: AUG-CC-PVTZ
    Blend: AUG-CC-PVTZ
  Basis Set: (AUG-CC-PVTZ AUX)
    Blend: AUG-CC-PVTZ-JKFIT
	 Reference Energy          =    -312.3439309211162822 [Eh]
	 Singles Energy            =      -0.0000000000000000 [Eh]
	 Same-Spin Energy          =      -0.3394008878025701 [Eh]
	 Opposite-Spin Energy      =      -1.2316785432987263 [Eh]
	 Correlation Energy        =      -1.5710794311012963 [Eh]
	 Total Energy              =    -313.9150103522175641 [Eh]

	 ================> DF-SCS-MP2 Energies <==================
	-----------------------------------------------------------
	 SCS Same-Spin Scale       =       0.3333333333333333 [-]
	 SCS Opposite-Spin Scale   =       1.2000000000000000 [-]
	 SCS Same-Spin Energy      =      -0.1131336292675234 [Eh]
	 SCS Opposite-Spin Energy  =      -1.4780142519584716 [Eh]
	 SCS Correlation Energy    =      -1.5911478812259949 [Eh]
	 SCS Total Energy          =    -313.9350788023422751 [Eh]
	-----------------------------------------------------------

  Dipole Moment: [D]
     X:    -0.0217      Y:     0.0511      Z:     0.0749     Total:     0.0932

*** Psi4 exiting successfully. Buy a developer a beer!
