                               Psi4 1.4a3.dev225

  ==> Input File <==

--------------------------------------------------------------------------
#psi4
#
memory 32 gb

molecule  {
0 1
  C        1.0769770     0.3750480     0.4036540
  C       -1.0769820     0.3750600     0.4036550
  C        0.0006214     1.4191447     0.0295364
  C       -0.0000090    -0.7130420     0.1804050
  C        2.3595160     0.3194210    -0.4060430
  C       -2.3595260     0.3194330    -0.4060330
  C        3.2195680    -0.8924030    -0.0547570
  C       -3.2195490    -0.8924170    -0.0547640
  H        1.3139090     0.4360540     1.4748590
  H       -1.3139070     0.4360710     1.4748610
  H        0.0000080     2.3782020     0.5982830
  H        0.0000040     1.6360460    -1.0223960
  H       -0.0000100    -1.0431540    -0.8674540
  H       -0.0000130    -1.5954000     0.8282360
  H        2.9313650     1.2434240    -0.2483150
  H        2.0993870     0.2926970    -1.4725700
  H       -2.0994060     0.2927390    -1.4725620
  H       -2.9313940     1.2434200    -0.2482770
  H        2.6724260    -1.8222580    -0.2378450
  H        4.1369510    -0.9193470    -0.6503860
  H        3.5046520    -0.8738050     1.0019030
  H       -3.5045960    -0.8738620     1.0019060
  H       -4.1369540    -0.9193510    -0.6503600
  H       -2.6724020    -1.8222580    -0.2379080
units angstrom
no_reorient  #important for SAPT in psi4, default
symmetry c1  #important for SAPT in psi4, default
}

set PROPERTIES_ORIGIN ["COM"]
properties('MP2/aug-cc-pvtz', properties = ['dipole'])
--------------------------------------------------------------------------

    Molecular point group: c1
  Charge       = 0
  Multiplicity = 1
  Basis Set: AUG-CC-PVTZ
    Blend: AUG-CC-PVTZ
  Basis Set: (AUG-CC-PVTZ AUX)
    Blend: AUG-CC-PVTZ-JKFIT

    Orbital Energies [Eh]
    ---------------------

    Doubly Occupied:

       1A    -11.218293     2A    -11.218244     3A    -11.213232
       4A    -11.213223     5A    -11.211433     6A    -11.210747
       7A    -11.209064     8A    -11.209057     9A     -1.141055
      10A     -1.045980    11A     -1.007333    12A     -0.899182
      13A     -0.891864    14A     -0.840791    15A     -0.768837
      16A     -0.745827    17A     -0.649246    18A     -0.616877
      19A     -0.613183    20A     -0.584359    21A     -0.572061
      22A     -0.537673    23A     -0.532913    24A     -0.524638
      25A     -0.507653    26A     -0.506365    27A     -0.481970
      28A     -0.464573    29A     -0.444606    30A     -0.440381
      31A     -0.418455    32A     -0.406966

  @DF-RHF Final Energy:  -312.34591177982446

   => Energetics <=

    Nuclear Repulsion Energy =            390.2150488282596257
    One-Electron Energy =               -1194.4297605268216103
    Two-Electron Energy =                 491.8687999187375794
    Total Energy =                       -312.3459117798244620
  Basis Set: (AUG-CC-PVTZ AUX)
    Blend: AUG-CC-PVTZ-RI
    Molecular point group: c1

    Geometry (in Angstrom), charge = 0, multiplicity = 1:

       Center              X                  Y                   Z               Mass
    ------------   -----------------  -----------------  -----------------  -----------------
         C            1.076910851119     0.359019467065     0.399960637767    12.000000000000
         C           -1.077048148881     0.359031467065     0.399961637767    12.000000000000
         C            0.000555251119     1.403116167065     0.025843037767    12.000000000000
         C           -0.000075148881    -0.729070532935     0.176711637767    12.000000000000
         C            2.359449851119     0.303392467065    -0.409736362233    12.000000000000
         C           -2.359592148881     0.303404467065    -0.409726362233    12.000000000000
         C            3.219501851119    -0.908431532935    -0.058450362233    12.000000000000
         C           -3.219615148881    -0.908445532935    -0.058457362233    12.000000000000
         H            1.313842851119     0.420025467065     1.471165637767     1.007825032230
         H           -1.313973148881     0.420042467065     1.471167637767     1.007825032230
         H           -0.000058148881     2.362173467065     0.594589637767     1.007825032230
         H           -0.000062148881     1.620017467065    -1.026089362233     1.007825032230
         H           -0.000076148881    -1.059182532935    -0.871147362233     1.007825032230
         H           -0.000079148881    -1.611428532935     0.824542637767     1.007825032230
         H            2.931298851119     1.227395467065    -0.252008362233     1.007825032230
         H            2.099320851119     0.276668467065    -1.476263362233     1.007825032230
         H           -2.099472148881     0.276710467065    -1.476255362233     1.007825032230
         H           -2.931460148881     1.227391467065    -0.251970362233     1.007825032230
         H            2.672359851119    -1.838286532935    -0.241538362233     1.007825032230
         H            4.136884851119    -0.935375532935    -0.654079362233     1.007825032230
         H            3.504585851119    -0.889833532935     0.998209637767     1.007825032230
         H           -3.504662148881    -0.889890532935     0.998212637767     1.007825032230
         H           -4.137020148881    -0.935379532935    -0.654053362233     1.007825032230
         H           -2.672468148881    -1.838286532935    -0.241601362233     1.007825032230

  Basis Set: AUG-CC-PVTZ
    Blend: AUG-CC-PVTZ
  Basis Set: (AUG-CC-PVTZ AUX)
    Blend: AUG-CC-PVTZ-JKFIT
	 Reference Energy          =    -312.3459117798244620 [Eh]
	 Singles Energy            =      -0.0000000000000000 [Eh]
	 Same-Spin Energy          =      -0.3390685032684920 [Eh]
	 Opposite-Spin Energy      =      -1.2315296916124172 [Eh]
	 Correlation Energy        =      -1.5705981948809091 [Eh]
	 Total Energy              =    -313.9165099747053773 [Eh]

	 ================> DF-SCS-MP2 Energies <==================
	-----------------------------------------------------------
	 SCS Same-Spin Scale       =       0.3333333333333333 [-]
	 SCS Opposite-Spin Scale   =       1.2000000000000000 [-]
	 SCS Same-Spin Energy      =      -0.1130228344228307 [Eh]
	 SCS Opposite-Spin Energy  =      -1.4778356299349007 [Eh]
	 SCS Correlation Energy    =      -1.5908584643577313 [Eh]
	 SCS Total Energy          =    -313.9367702441821848 [Eh]
	-----------------------------------------------------------

  Dipole Moment: [D]
     X:    -0.0004      Y:     0.0654      Z:     0.0645     Total:     0.0918

*** Psi4 exiting successfully. Buy a developer a beer!
