                               Psi4 1.4a3.dev225

  ==> Input File <==

--------------------------------------------------------------------------
#psi4
#
memory 32 gb

molecule  {
0 1
  C        1.0769770     0.3750480     0.4036540
  C       -1.0769820     0.3750600     0.4036550
  C        0.0000030     1.4273620     0.0552210
  C       -0.0000090    -0.7130420     0.1804050
  C        2.3595160     0.3194210    -0.4060430
  C       -2.3595260     0.3194330    -0.4060330
  C        3.2195680    -0.8924030    -0.0547570
  C       -3.2195490    -0.8924170    -0.0547640
  H        1.3139090     0.4360540     1.4748590
  H       -1.3139070     0.4360710     1.4748610
  H        0.0000080     2.3782020     0.5982830
  H        0.0000040     1.6360460    -1.0223960
  H       -0.0000100    -1.0431540    -0.8674540
  H       -0.0000130    -1.5954000     0.8282360
  H        2.9313650     1.2434240    -0.2483150
  H        2.0993870     0.2926970    -1.4725700
  H       -2.0994060     0.2927390    -1.4725620
  H       -2.9313940     1.2434200    -0.2482770
  H        2.6724260    -1.8222580    -0.2378450
  H        4.1369510    -0.9193470    -0.6503860
  H        3.5046520    -0.8738050     1.0019030
  H       -3.4961192    -0.8908118     1.0043177
  H       -4.1369540    -0.9193510    -0.6503600
  H       -2.6724020    -1.8222580    -0.2379080
units angstrom
no_reorient  #important for SAPT in psi4, default
symmetry c1  #important for SAPT in psi4, default
}

set PROPERTIES_ORIGIN ["COM"]
properties('MP2/aug-cc-pvtz', properties = ['dipole'])
--------------------------------------------------------------------------

    Molecular point group: c1
  Charge       = 0
  Multiplicity = 1
  Basis Set: AUG-CC-PVTZ
    Blend: AUG-CC-PVTZ
  Basis Set: (AUG-CC-PVTZ AUX)
    Blend: AUG-CC-PVTZ-JKFIT

    Orbital Energies [Eh]
    ---------------------

    Doubly Occupied:

       1A    -11.218393     2A    -11.218347     3A    -11.213505
       4A    -11.213385     5A    -11.211402     6A    -11.210993
       7A    -11.209171     8A    -11.209139     9A     -1.140637
      10A     -1.045941    11A     -1.007371    12A     -0.899199
      13A     -0.892009    14A     -0.841147    15A     -0.769220
      16A     -0.743767    17A     -0.651749    18A     -0.616541
      19A     -0.612816    20A     -0.584249    21A     -0.572291
      22A     -0.537501    23A     -0.530705    24A     -0.524745
      25A     -0.507192    26A     -0.505929    27A     -0.482027
      28A     -0.464477    29A     -0.442159    30A     -0.441154
      31A     -0.421611    32A     -0.406879

  @DF-RHF Final Energy:  -312.34669325732398

   => Energetics <=

    Nuclear Repulsion Energy =            390.1153364450801746
    One-Electron Energy =               -1194.2327635226190523
    Two-Electron Energy =                 491.7707338202149003
    Total Energy =                       -312.3466932573239774
  Basis Set: (AUG-CC-PVTZ AUX)
    Blend: AUG-CC-PVTZ-RI
    Molecular point group: c1

    Geometry (in Angstrom), charge = 0, multiplicity = 1:

       Center              X                  Y                   Z               Mass
    ------------   -----------------  -----------------  -----------------  -----------------
         C            1.076900841494     0.358292376573     0.397190111871    12.000000000000
         C           -1.077058158506     0.358304376573     0.397191111871    12.000000000000
         C           -0.000073158506     1.410606376573     0.048757111871    12.000000000000
         C           -0.000085158506    -0.729797623427     0.173941111871    12.000000000000
         C            2.359439841494     0.302665376573    -0.412506888129    12.000000000000
         C           -2.359602158506     0.302677376573    -0.412496888129    12.000000000000
         C            3.219491841494    -0.909158623427    -0.061220888129    12.000000000000
         C           -3.219625158506    -0.909172623427    -0.061227888129    12.000000000000
         H            1.313832841494     0.419298376573     1.468395111871     1.007825032230
         H           -1.313983158506     0.419315376573     1.468397111871     1.007825032230
         H           -0.000068158506     2.361446376573     0.591819111871     1.007825032230
         H           -0.000072158506     1.619290376573    -1.028859888129     1.007825032230
         H           -0.000086158506    -1.059909623427    -0.873917888129     1.007825032230
         H           -0.000089158506    -1.612155623427     0.821772111871     1.007825032230
         H            2.931288841494     1.226668376573    -0.254778888129     1.007825032230
         H            2.099310841494     0.275941376573    -1.479033888129     1.007825032230
         H           -2.099482158506     0.275983376573    -1.479025888129     1.007825032230
         H           -2.931470158506     1.226664376573    -0.254740888129     1.007825032230
         H            2.672349841494    -1.839013623427    -0.244308888129     1.007825032230
         H            4.136874841494    -0.936102623427    -0.656849888129     1.007825032230
         H            3.504575841494    -0.890560623427     0.995439111871     1.007825032230
         H           -3.496195358506    -0.907567423427     0.997853811871     1.007825032230
         H           -4.137030158506    -0.936106623427    -0.656823888129     1.007825032230
         H           -2.672478158506    -1.839013623427    -0.244371888129     1.007825032230

  Basis Set: AUG-CC-PVTZ
    Blend: AUG-CC-PVTZ
  Basis Set: (AUG-CC-PVTZ AUX)
    Blend: AUG-CC-PVTZ-JKFIT
	 Reference Energy          =    -312.3466932573239774 [Eh]
	 Singles Energy            =      -0.0000000000000000 [Eh]
	 Same-Spin Energy          =      -0.3390790660341971 [Eh]
	 Opposite-Spin Energy      =      -1.2315141546416837 [Eh]
	 Correlation Energy        =      -1.5705932206758808 [Eh]
	 Total Energy              =    -313.9172864779998804 [Eh]

	 ================> DF-SCS-MP2 Energies <==================
	-----------------------------------------------------------
	 SCS Same-Spin Scale       =       0.3333333333333333 [-]
	 SCS Opposite-Spin Scale   =       1.2000000000000000 [-]
	 SCS Same-Spin Energy      =      -0.1130263553447323 [Eh]
	 SCS Opposite-Spin Energy  =      -1.4778169855700203 [Eh]
	 SCS Correlation Energy    =      -1.5908433409147527 [Eh]
	 SCS Total Energy          =    -313.9375365982387507 [Eh]
	-----------------------------------------------------------

  Dipole Moment: [D]
     X:     0.0035      Y:     0.0710      Z:     0.0843     Total:     0.1102

*** Psi4 exiting successfully. Buy a developer a beer!
