                               Psi4 1.4a3.dev225

  ==> Input File <==

--------------------------------------------------------------------------
#psi4
#
memory 32 gb

molecule  {
0 1
  C        1.0574276     0.3932947     0.4073977
  C       -1.0769820     0.3750600     0.4036550
  C        0.0000030     1.4273620     0.0552210
  C       -0.0000090    -0.7130420     0.1804050
  C        2.3595160     0.3194210    -0.4060430
  C       -2.3595260     0.3194330    -0.4060330
  C        3.2195680    -0.8924030    -0.0547570
  C       -3.2195490    -0.8924170    -0.0547640
  H        1.3139090     0.4360540     1.4748590
  H       -1.3139070     0.4360710     1.4748610
  H        0.0000080     2.3782020     0.5982830
  H        0.0000040     1.6360460    -1.0223960
  H       -0.0000100    -1.0431540    -0.8674540
  H       -0.0000130    -1.5954000     0.8282360
  H        2.9313650     1.2434240    -0.2483150
  H        2.0993870     0.2926970    -1.4725700
  H       -2.0994060     0.2927390    -1.4725620
  H       -2.9313940     1.2434200    -0.2482770
  H        2.6724260    -1.8222580    -0.2378450
  H        4.1369510    -0.9193470    -0.6503860
  H        3.5046520    -0.8738050     1.0019030
  H       -3.5045960    -0.8738620     1.0019060
  H       -4.1369540    -0.9193510    -0.6503600
  H       -2.6724020    -1.8222580    -0.2379080
units angstrom
no_reorient  #important for SAPT in psi4, default
symmetry c1  #important for SAPT in psi4, default
}

set PROPERTIES_ORIGIN ["COM"]
properties('MP2/aug-cc-pvtz', properties = ['dipole'])
--------------------------------------------------------------------------

    Molecular point group: c1
  Charge       = 0
  Multiplicity = 1
  Basis Set: AUG-CC-PVTZ
    Blend: AUG-CC-PVTZ
  Basis Set: (AUG-CC-PVTZ AUX)
    Blend: AUG-CC-PVTZ-JKFIT

    Orbital Energies [Eh]
    ---------------------

    Doubly Occupied:

       1A    -11.218627     2A    -11.218327     3A    -11.213791
       4A    -11.213234     5A    -11.210746     6A    -11.210067
       7A    -11.209282     8A    -11.209152     9A     -1.143262
      10A     -1.044295    11A     -1.007472    12A     -0.898818
      13A     -0.893100    14A     -0.840333    15A     -0.768861
      16A     -0.744098    17A     -0.653244    18A     -0.615926
      19A     -0.611578    20A     -0.584815    21A     -0.572343
      22A     -0.537064    23A     -0.531151    24A     -0.524936
      25A     -0.507032    26A     -0.505433    27A     -0.482120
      28A     -0.463192    29A     -0.443676    30A     -0.440634
      31A     -0.425116    32A     -0.404419

  @DF-RHF Final Energy:  -312.34605206037963

   => Energetics <=

    Nuclear Repulsion Energy =            390.2048143621868803
    One-Electron Energy =               -1194.4094441506879321
    Two-Electron Energy =                 491.8585777281214177
    Total Energy =                       -312.3460520603796340
  Basis Set: (AUG-CC-PVTZ AUX)
    Blend: AUG-CC-PVTZ-RI
    Molecular point group: c1

    Geometry (in Angstrom), charge = 0, multiplicity = 1:

       Center              X                  Y                   Z               Mass
    ------------   -----------------  -----------------  -----------------  -----------------
         C            1.059519874015     0.374433904572     0.400554826343    12.000000000000
         C           -1.074889725985     0.356199204572     0.396812126343    12.000000000000
         C            0.002095274015     1.408501204572     0.048378126343    12.000000000000
         C            0.002083274015    -0.731902795428     0.173562126343    12.000000000000
         C            2.361608274015     0.300560204572    -0.412885873657    12.000000000000
         C           -2.357433725985     0.300572204572    -0.412875873657    12.000000000000
         C            3.221660274015    -0.911263795428    -0.061599873657    12.000000000000
         C           -3.217456725985    -0.911277795428    -0.061606873657    12.000000000000
         H            1.316001274015     0.417193204572     1.468016126343     1.007825032230
         H           -1.311814725985     0.417210204572     1.468018126343     1.007825032230
         H            0.002100274015     2.359341204572     0.591440126343     1.007825032230
         H            0.002096274015     1.617185204572    -1.029238873657     1.007825032230
         H            0.002082274015    -1.062014795428    -0.874296873657     1.007825032230
         H            0.002079274015    -1.614260795428     0.821393126343     1.007825032230
         H            2.933457274015     1.224563204572    -0.255157873657     1.007825032230
         H            2.101479274015     0.273836204572    -1.479412873657     1.007825032230
         H           -2.097313725985     0.273878204572    -1.479404873657     1.007825032230
         H           -2.929301725985     1.224559204572    -0.255119873657     1.007825032230
         H            2.674518274015    -1.841118795428    -0.244687873657     1.007825032230
         H            4.139043274015    -0.938207795428    -0.657228873657     1.007825032230
         H            3.506744274015    -0.892665795428     0.995060126343     1.007825032230
         H           -3.502503725985    -0.892722795428     0.995063126343     1.007825032230
         H           -4.134861725985    -0.938211795428    -0.657202873657     1.007825032230
         H           -2.670309725985    -1.841118795428    -0.244750873657     1.007825032230

  Basis Set: AUG-CC-PVTZ
    Blend: AUG-CC-PVTZ
  Basis Set: (AUG-CC-PVTZ AUX)
    Blend: AUG-CC-PVTZ-JKFIT
	 Reference Energy          =    -312.3460520603796340 [Eh]
	 Singles Energy            =      -0.0000000000000000 [Eh]
	 Same-Spin Energy          =      -0.3390998978757997 [Eh]
	 Opposite-Spin Energy      =      -1.2314589465167927 [Eh]
	 Correlation Energy        =      -1.5705588443925924 [Eh]
	 Total Energy              =    -313.9166109047721989 [Eh]

	 ================> DF-SCS-MP2 Energies <==================
	-----------------------------------------------------------
	 SCS Same-Spin Scale       =       0.3333333333333333 [-]
	 SCS Opposite-Spin Scale   =       1.2000000000000000 [-]
	 SCS Same-Spin Energy      =      -0.1130332992919332 [Eh]
	 SCS Opposite-Spin Energy  =      -1.4777507358201512 [Eh]
	 SCS Correlation Energy    =      -1.5907840351120843 [Eh]
	 SCS Total Energy          =    -313.9368360954917421 [Eh]
	-----------------------------------------------------------

  Dipole Moment: [D]
     X:    -0.0154      Y:     0.0757      Z:     0.0934     Total:     0.1212

*** Psi4 exiting successfully. Buy a developer a beer!
