                               Psi4 1.4a3.dev225

  ==> Input File <==

--------------------------------------------------------------------------
#psi4
#
memory 32 gb

molecule  {
0 1
  C        1.0769770     0.3750480     0.4036540
  C       -1.0769820     0.3750600     0.4036550
  C        0.0000030     1.4273620     0.0552210
  C       -0.0000090    -0.7130420     0.1804050
  C        2.3595160     0.3194210    -0.4060430
  C       -2.3595260     0.3194330    -0.4060330
  C        3.2195680    -0.8924030    -0.0547570
  C       -3.2195490    -0.8924170    -0.0547640
  H        1.3139090     0.4360540     1.4748590
  H       -1.3139070     0.4360710     1.4748610
  H        0.0000080     2.3782020     0.5982830
  H        0.0000040     1.6360460    -1.0223960
  H       -0.0000100    -1.0431540    -0.8674540
  H       -0.0000130    -1.5954000     0.8282360
  H        2.9313650     1.2434240    -0.2483150
  H        2.0993870     0.2926970    -1.4725700
  H       -2.0994060     0.2927390    -1.4725620
  H       -2.9313940     1.2434200    -0.2482770
  H        2.6724260    -1.8222580    -0.2378450
  H        4.0950275    -0.9181157    -0.6231664
  H        3.5046520    -0.8738050     1.0019030
  H       -3.5045960    -0.8738620     1.0019060
  H       -4.1369540    -0.9193510    -0.6503600
  H       -2.6724020    -1.8222580    -0.2379080
units angstrom
no_reorient  #important for SAPT in psi4, default
symmetry c1  #important for SAPT in psi4, default
}

set PROPERTIES_ORIGIN ["COM"]
properties('MP2/aug-cc-pvtz', properties = ['dipole'])
--------------------------------------------------------------------------

    Molecular point group: c1
  Charge       = 0
  Multiplicity = 1
  Basis Set: AUG-CC-PVTZ
    Blend: AUG-CC-PVTZ
  Basis Set: (AUG-CC-PVTZ AUX)
    Blend: AUG-CC-PVTZ-JKFIT

    Orbital Energies [Eh]
    ---------------------

    Doubly Occupied:

       1A    -11.218108     2A    -11.217955     3A    -11.213200
       4A    -11.212900     5A    -11.211108     6A    -11.210641
       7A    -11.209019     8A    -11.202859     9A     -1.140338
      10A     -1.046395    11A     -1.008477    12A     -0.901202
      13A     -0.891710    14A     -0.842743    15A     -0.769073
      16A     -0.743457    17A     -0.651574    18A     -0.616616
      19A     -0.613805    20A     -0.584370    21A     -0.576205
      22A     -0.537093    23A     -0.530430    24A     -0.527092
      25A     -0.507929    26A     -0.505938    27A     -0.482038
      28A     -0.464386    29A     -0.442078    30A     -0.440883
      31A     -0.421312    32A     -0.406940

  @DF-RHF Final Energy:  -312.34570805039533

   => Energetics <=

    Nuclear Repulsion Energy =            390.3446941952602174
    One-Electron Energy =               -1194.6850520022214823
    Two-Electron Energy =                 491.9946497565659342
    Total Energy =                       -312.3457080503953307
  Basis Set: (AUG-CC-PVTZ AUX)
    Blend: AUG-CC-PVTZ-RI
    Molecular point group: c1

    Geometry (in Angstrom), charge = 0, multiplicity = 1:

       Center              X                  Y                   Z               Mass
    ------------   -----------------  -----------------  -----------------  -----------------
         C            1.077353859047     0.358128957755     0.396967128791    12.000000000000
         C           -1.076605140953     0.358140957755     0.396968128791    12.000000000000
         C            0.000379859047     1.410442957755     0.048534128791    12.000000000000
         C            0.000367859047    -0.729961042245     0.173718128791    12.000000000000
         C            2.359892859047     0.302501957755    -0.412729871209    12.000000000000
         C           -2.359149140953     0.302513957755    -0.412719871209    12.000000000000
         C            3.219944859047    -0.909322042245    -0.061443871209    12.000000000000
         C           -3.219172140953    -0.909336042245    -0.061450871209    12.000000000000
         H            1.314285859047     0.419134957755     1.468172128791     1.007825032230
         H           -1.313530140953     0.419151957755     1.468174128791     1.007825032230
         H            0.000384859047     2.361282957755     0.591596128791     1.007825032230
         H            0.000380859047     1.619126957755    -1.029082871209     1.007825032230
         H            0.000366859047    -1.060073042245    -0.874140871209     1.007825032230
         H            0.000363859047    -1.612319042245     0.821549128791     1.007825032230
         H            2.931741859047     1.226504957755    -0.255001871209     1.007825032230
         H            2.099763859047     0.275777957755    -1.479256871209     1.007825032230
         H           -2.099029140953     0.275819957755    -1.479248871209     1.007825032230
         H           -2.931017140953     1.226500957755    -0.254963871209     1.007825032230
         H            2.672802859047    -1.839177042245    -0.244531871209     1.007825032230
         H            4.095404359047    -0.935034742245    -0.629853271209     1.007825032230
         H            3.505028859047    -0.890724042245     0.995216128791     1.007825032230
         H           -3.504219140953    -0.890781042245     0.995219128791     1.007825032230
         H           -4.136577140953    -0.936270042245    -0.657046871209     1.007825032230
         H           -2.672025140953    -1.839177042245    -0.244594871209     1.007825032230

  Basis Set: AUG-CC-PVTZ
    Blend: AUG-CC-PVTZ
  Basis Set: (AUG-CC-PVTZ AUX)
    Blend: AUG-CC-PVTZ-JKFIT
	 Reference Energy          =    -312.3457080503953307 [Eh]
	 Singles Energy            =      -0.0000000000000000 [Eh]
	 Same-Spin Energy          =      -0.3391107795098046 [Eh]
	 Opposite-Spin Energy      =      -1.2312652200864611 [Eh]
	 Correlation Energy        =      -1.5703759995962656 [Eh]
	 Total Energy              =    -313.9160840499915821 [Eh]

	 ================> DF-SCS-MP2 Energies <==================
	-----------------------------------------------------------
	 SCS Same-Spin Scale       =       0.3333333333333333 [-]
	 SCS Opposite-Spin Scale   =       1.2000000000000000 [-]
	 SCS Same-Spin Energy      =      -0.1130369265032682 [Eh]
	 SCS Opposite-Spin Energy  =      -1.4775182641037532 [Eh]
	 SCS Correlation Energy    =      -1.5905551906070214 [Eh]
	 SCS Total Energy          =    -313.9362632410023366 [Eh]
	-----------------------------------------------------------

  Dipole Moment: [D]
     X:     0.0389      Y:     0.0640      Z:     0.0696     Total:     0.1022

*** Psi4 exiting successfully. Buy a developer a beer!
