                               Psi4 1.4a3.dev225

  ==> Input File <==

--------------------------------------------------------------------------
#psi4
#
memory 32 gb

molecule  {
0 1
  C        1.0769770     0.3750480     0.4036540
  C       -1.0769820     0.3750600     0.4036550
  C        0.0000030     1.4273620     0.0552210
  C       -0.0000090    -0.7130420     0.1804050
  C        2.3595160     0.3194210    -0.4060430
  C       -2.3595260     0.3194330    -0.4060330
  C        3.2195680    -0.8924030    -0.0547570
  C       -3.2195490    -0.8924170    -0.0547640
  H        1.3139090     0.4360540     1.4748590
  H       -1.3139070     0.4360710     1.4748610
  H        0.0000080     2.3782020     0.5982830
  H        0.0000040     1.6360460    -1.0223960
  H       -0.0000100    -1.0431540    -0.8674540
  H       -0.0000130    -1.5954000     0.8282360
  H        2.9313650     1.2434240    -0.2483150
  H        2.0993870     0.2926970    -1.4725700
  H       -2.0994060     0.2927390    -1.4725620
  H       -2.9313940     1.2434200    -0.2482770
  H        2.6724260    -1.8222580    -0.2378450
  H        4.1369510    -0.9193470    -0.6503860
  H        3.5046520    -0.8738050     1.0019030
  H       -3.5045960    -0.8738620     1.0019060
  H       -4.1266691    -0.9537321    -0.6634227
  H       -2.6724020    -1.8222580    -0.2379080
units angstrom
no_reorient  #important for SAPT in psi4, default
symmetry c1  #important for SAPT in psi4, default
}

set PROPERTIES_ORIGIN ["COM"]
properties('MP2/aug-cc-pvtz', properties = ['dipole'])
--------------------------------------------------------------------------

    Molecular point group: c1
  Charge       = 0
  Multiplicity = 1
  Basis Set: AUG-CC-PVTZ
    Blend: AUG-CC-PVTZ
  Basis Set: (AUG-CC-PVTZ AUX)
    Blend: AUG-CC-PVTZ-JKFIT

    Orbital Energies [Eh]
    ---------------------

    Doubly Occupied:

       1A    -11.218528     2A    -11.218369     3A    -11.213606
       4A    -11.213399     5A    -11.211385     6A    -11.211086
       7A    -11.209177     8A    -11.209121     9A     -1.140674
      10A     -1.045929    11A     -1.007330    12A     -0.899262
      13A     -0.892018    14A     -0.841278    15A     -0.769210
      16A     -0.743786    17A     -0.651842    18A     -0.616802
      19A     -0.612102    20A     -0.584804    21A     -0.572669
      22A     -0.536842    23A     -0.530697    24A     -0.525911
      25A     -0.507192    26A     -0.504216    27A     -0.482131
      28A     -0.464436    29A     -0.442199    30A     -0.441341
      31A     -0.421696    32A     -0.407103

  @DF-RHF Final Energy:  -312.34658664282676

   => Energetics <=

    Nuclear Repulsion Energy =            390.1061552390920042
    One-Electron Energy =               -1194.2131995358643053
    Two-Electron Energy =                 491.7604576539455365
    Total Energy =                       -312.3465866428267645
  Basis Set: (AUG-CC-PVTZ AUX)
    Blend: AUG-CC-PVTZ-RI
    Molecular point group: c1

    Geometry (in Angstrom), charge = 0, multiplicity = 1:

       Center              X                  Y                   Z               Mass
    ------------   -----------------  -----------------  -----------------  -----------------
         C            1.076884589586     0.358449055896     0.397329201814    12.000000000000
         C           -1.077074410414     0.358461055896     0.397330201814    12.000000000000
         C           -0.000089410414     1.410763055896     0.048896201814    12.000000000000
         C           -0.000101410414    -0.729640944104     0.174080201814    12.000000000000
         C            2.359423589586     0.302822055896    -0.412367798186    12.000000000000
         C           -2.359618410414     0.302834055896    -0.412357798186    12.000000000000
         C            3.219475589586    -0.909001944104    -0.061081798186    12.000000000000
         C           -3.219641410414    -0.909015944104    -0.061088798186    12.000000000000
         H            1.313816589586     0.419455055896     1.468534201814     1.007825032230
         H           -1.313999410414     0.419472055896     1.468536201814     1.007825032230
         H           -0.000084410414     2.361603055896     0.591958201814     1.007825032230
         H           -0.000088410414     1.619447055896    -1.028720798186     1.007825032230
         H           -0.000102410414    -1.059752944104    -0.873778798186     1.007825032230
         H           -0.000105410414    -1.611998944104     0.821911201814     1.007825032230
         H            2.931272589586     1.226825055896    -0.254639798186     1.007825032230
         H            2.099294589586     0.276098055896    -1.478894798186     1.007825032230
         H           -2.099498410414     0.276140055896    -1.478886798186     1.007825032230
         H           -2.931486410414     1.226821055896    -0.254601798186     1.007825032230
         H            2.672333589586    -1.838856944104    -0.244169798186     1.007825032230
         H            4.136858589586    -0.935945944104    -0.656710798186     1.007825032230
         H            3.504559589586    -0.890403944104     0.995578201814     1.007825032230
         H           -3.504688410414    -0.890460944104     0.995581201814     1.007825032230
         H           -4.126761510414    -0.970331044104    -0.669747498186     1.007825032230
         H           -2.672494410414    -1.838856944104    -0.244232798186     1.007825032230

  Basis Set: AUG-CC-PVTZ
    Blend: AUG-CC-PVTZ
  Basis Set: (AUG-CC-PVTZ AUX)
    Blend: AUG-CC-PVTZ-JKFIT
	 Reference Energy          =    -312.3465866428267645 [Eh]
	 Singles Energy            =      -0.0000000000000000 [Eh]
	 Same-Spin Energy          =      -0.3390884890690803 [Eh]
	 Opposite-Spin Energy      =      -1.2315183165065977 [Eh]
	 Correlation Energy        =      -1.5706068055756779 [Eh]
	 Total Energy              =    -313.9171934484024291 [Eh]

	 ================> DF-SCS-MP2 Energies <==================
	-----------------------------------------------------------
	 SCS Same-Spin Scale       =       0.3333333333333333 [-]
	 SCS Opposite-Spin Scale   =       1.2000000000000000 [-]
	 SCS Same-Spin Energy      =      -0.1130294963563601 [Eh]
	 SCS Opposite-Spin Energy  =      -1.4778219798079173 [Eh]
	 SCS Correlation Energy    =      -1.5908514761642774 [Eh]
	 SCS Total Energy          =    -313.9374381189910537 [Eh]
	-----------------------------------------------------------

  Dipole Moment: [D]
     X:     0.0060      Y:     0.0651      Z:     0.0772     Total:     0.1011

*** Psi4 exiting successfully. Buy a developer a beer!
