                               Psi4 1.4a3.dev225

  ==> Input File <==

--------------------------------------------------------------------------
#psi4
#
memory 32 gb

molecule  {
0 1
  C        1.0769770     0.3750480     0.4036540
  C       -1.0769820     0.3750600     0.4036550
  C        0.0000030     1.4273620     0.0552210
  C       -0.0000090    -0.7130420     0.1804050
  C        2.3595160     0.3194210    -0.4060430
  C       -2.3595260     0.3194330    -0.4060330
  C        3.2195680    -0.8924030    -0.0547570
  C       -3.2195490    -0.8924170    -0.0547640
  H        1.3139090     0.4360540     1.4748590
  H       -1.3139070     0.4360710     1.4748610
  H        0.0000080     2.3782020     0.5982830
  H        0.0000040     1.6360460    -1.0223960
  H       -0.0000100    -1.0581778    -0.9151435
  H       -0.0000130    -1.5954000     0.8282360
  H        2.9313650     1.2434240    -0.2483150
  H        2.0993870     0.2926970    -1.4725700
  H       -2.0994060     0.2927390    -1.4725620
  H       -2.9313940     1.2434200    -0.2482770
  H        2.6724260    -1.8222580    -0.2378450
  H        4.1369510    -0.9193470    -0.6503860
  H        3.5046520    -0.8738050     1.0019030
  H       -3.5045960    -0.8738620     1.0019060
  H       -4.1369540    -0.9193510    -0.6503600
  H       -2.6724020    -1.8222580    -0.2379080
units angstrom
no_reorient  #important for SAPT in psi4, default
symmetry c1  #important for SAPT in psi4, default
}

set PROPERTIES_ORIGIN ["COM"]
properties('MP2/aug-cc-pvtz', properties = ['dipole'])
--------------------------------------------------------------------------

    Molecular point group: c1
  Charge       = 0
  Multiplicity = 1
  Basis Set: AUG-CC-PVTZ
    Blend: AUG-CC-PVTZ
  Basis Set: (AUG-CC-PVTZ AUX)
    Blend: AUG-CC-PVTZ-JKFIT

    Orbital Energies [Eh]
    ---------------------

    Doubly Occupied:

       1A    -11.219082     2A    -11.218959     3A    -11.217479
       4A    -11.213433     5A    -11.213432     6A    -11.211216
       7A    -11.209122     8A    -11.209122     9A     -1.140366
      10A     -1.046048    11A     -1.007364    12A     -0.899337
      13A     -0.889064    14A     -0.841069    15A     -0.769336
      16A     -0.740469    17A     -0.652194    18A     -0.616895
      19A     -0.612458    20A     -0.584114    21A     -0.572273
      22A     -0.537177    23A     -0.526374    24A     -0.523208
      25A     -0.507816    26A     -0.505343    27A     -0.482033
      28A     -0.464393    29A     -0.441554    30A     -0.440827
      31A     -0.421996    32A     -0.407275

  @DF-RHF Final Energy:  -312.34459866582642

   => Energetics <=

    Nuclear Repulsion Energy =            389.8904239033233239
    One-Electron Energy =               -1193.7883907030986848
    Two-Electron Energy =                 491.5533681339488794
    Total Energy =                       -312.3445986658264246
  Basis Set: (AUG-CC-PVTZ AUX)
    Blend: AUG-CC-PVTZ-RI
    Molecular point group: c1

    Geometry (in Angstrom), charge = 0, multiplicity = 1:

       Center              X                  Y                   Z               Mass
    ------------   -----------------  -----------------  -----------------  -----------------
         C            1.076977034279     0.358275064934     0.397640440997    12.000000000000
         C           -1.076981965721     0.358287064934     0.397641440997    12.000000000000
         C            0.000003034279     1.410589064934     0.049207440997    12.000000000000
         C           -0.000008965721    -0.729814935066     0.174391440997    12.000000000000
         C            2.359516034279     0.302648064934    -0.412056559003    12.000000000000
         C           -2.359525965721     0.302660064934    -0.412046559003    12.000000000000
         C            3.219568034279    -0.909175935066    -0.060770559003    12.000000000000
         C           -3.219548965721    -0.909189935066    -0.060777559003    12.000000000000
         H            1.313909034279     0.419281064934     1.468845440997     1.007825032230
         H           -1.313906965721     0.419298064934     1.468847440997     1.007825032230
         H            0.000008034279     2.361429064934     0.592269440997     1.007825032230
         H            0.000004034279     1.619273064934    -1.028409559003     1.007825032230
         H           -0.000009965721    -1.074950735066    -0.921157059003     1.007825032230
         H           -0.000012965721    -1.612172935066     0.822222440997     1.007825032230
         H            2.931365034279     1.226651064934    -0.254328559003     1.007825032230
         H            2.099387034279     0.275924064934    -1.478583559003     1.007825032230
         H           -2.099405965721     0.275966064934    -1.478575559003     1.007825032230
         H           -2.931393965721     1.226647064934    -0.254290559003     1.007825032230
         H            2.672426034279    -1.839030935066    -0.243858559003     1.007825032230
         H            4.136951034279    -0.936119935066    -0.656399559003     1.007825032230
         H            3.504652034279    -0.890577935066     0.995889440997     1.007825032230
         H           -3.504595965721    -0.890634935066     0.995892440997     1.007825032230
         H           -4.136953965721    -0.936123935066    -0.656373559003     1.007825032230
         H           -2.672401965721    -1.839030935066    -0.243921559003     1.007825032230

  Basis Set: AUG-CC-PVTZ
    Blend: AUG-CC-PVTZ
  Basis Set: (AUG-CC-PVTZ AUX)
    Blend: AUG-CC-PVTZ-JKFIT
	 Reference Energy          =    -312.3445986658264246 [Eh]
	 Singles Energy            =      -0.0000000000000000 [Eh]
	 Same-Spin Energy          =      -0.3391373463473554 [Eh]
	 Opposite-Spin Energy      =      -1.2319018079374482 [Eh]
	 Correlation Energy        =      -1.5710391542848037 [Eh]
	 Total Energy              =    -313.9156378201112148 [Eh]

	 ================> DF-SCS-MP2 Energies <==================
	-----------------------------------------------------------
	 SCS Same-Spin Scale       =       0.3333333333333333 [-]
	 SCS Opposite-Spin Scale   =       1.2000000000000000 [-]
	 SCS Same-Spin Energy      =      -0.1130457821157851 [Eh]
	 SCS Opposite-Spin Energy  =      -1.4782821695249377 [Eh]
	 SCS Correlation Energy    =      -1.5913279516407228 [Eh]
	 SCS Total Energy          =    -313.9359266174671461 [Eh]
	-----------------------------------------------------------

  Dipole Moment: [D]
     X:    -0.0000      Y:     0.0918      Z:     0.1135     Total:     0.1460

*** Psi4 exiting successfully. Buy a developer a beer!
