                               Psi4 1.4a3.dev225

  ==> Input File <==

--------------------------------------------------------------------------
#psi4
#
memory 32 gb

molecule  {
0 1
  C        1.0769770     0.3750480     0.4036540
  C       -1.0769820     0.3750600     0.4036550
  C        0.0000030     1.4273620     0.0552210
  C       -0.0000090    -0.7130420     0.1804050
  C        2.3595160     0.3194210    -0.4060430
  C       -2.3595260     0.3194330    -0.4060330
  C        3.2195680    -0.8924030    -0.0547570
  C       -3.2195490    -0.8924170    -0.0547640
  H        1.3139090     0.4360540     1.4748590
  H       -1.3139070     0.4360710     1.4748610
  H        0.0000080     2.3782020     0.5982830
  H        0.0000040     1.6360460    -1.0223960
  H       -0.0000099    -1.0131063    -0.7720751
  H       -0.0000130    -1.5954000     0.8282360
  H        2.9313650     1.2434240    -0.2483150
  H        2.0993870     0.2926970    -1.4725700
  H       -2.0994060     0.2927390    -1.4725620
  H       -2.9313940     1.2434200    -0.2482770
  H        2.6724260    -1.8222580    -0.2378450
  H        4.1369510    -0.9193470    -0.6503860
  H        3.5046520    -0.8738050     1.0019030
  H       -3.5045960    -0.8738620     1.0019060
  H       -4.1369540    -0.9193510    -0.6503600
  H       -2.6724020    -1.8222580    -0.2379080
units angstrom
no_reorient  #important for SAPT in psi4, default
symmetry c1  #important for SAPT in psi4, default
}

set PROPERTIES_ORIGIN ["COM"]
properties('MP2/aug-cc-pvtz', properties = ['dipole'])
--------------------------------------------------------------------------

    Molecular point group: c1
  Charge       = 0
  Multiplicity = 1
  Basis Set: AUG-CC-PVTZ
    Blend: AUG-CC-PVTZ
  Basis Set: (AUG-CC-PVTZ AUX)
    Blend: AUG-CC-PVTZ-JKFIT

    Orbital Energies [Eh]
    ---------------------

    Doubly Occupied:

       1A    -11.217330     2A    -11.217299     3A    -11.213318
       4A    -11.213317     5A    -11.210621     6A    -11.209257
       7A    -11.209257     8A    -11.198648     9A     -1.141760
      10A     -1.045852    11A     -1.007660    12A     -0.900151
      13A     -0.898904    14A     -0.840966    15A     -0.768641
      16A     -0.751382    17A     -0.651178    18A     -0.616870
      19A     -0.613198    20A     -0.586456    21A     -0.572135
      22A     -0.542130    23A     -0.536677    24A     -0.524840
      25A     -0.507663    26A     -0.505433    27A     -0.482780
      28A     -0.464072    29A     -0.444059    30A     -0.440565
      31A     -0.420886    32A     -0.406207

  @DF-RHF Final Energy:  -312.34107700554887

   => Energetics <=

    Nuclear Repulsion Energy =            390.6078107346494903
    One-Electron Energy =               -1195.1787432758044361
    Two-Electron Energy =                 492.2298555356060206
    Total Energy =                       -312.3410770055488683
  Basis Set: (AUG-CC-PVTZ AUX)
    Blend: AUG-CC-PVTZ-RI
    Molecular point group: c1

    Geometry (in Angstrom), charge = 0, multiplicity = 1:

       Center              X                  Y                   Z               Mass
    ------------   -----------------  -----------------  -----------------  -----------------
         C            1.076977033380     0.357869944713     0.396354486420    12.000000000000
         C           -1.076981966620     0.357881944713     0.396355486420    12.000000000000
         C            0.000003033380     1.410183944713     0.047921486420    12.000000000000
         C           -0.000008966620    -0.730220055287     0.173105486420    12.000000000000
         C            2.359516033380     0.302242944713    -0.413342513580    12.000000000000
         C           -2.359525966620     0.302254944713    -0.413332513580    12.000000000000
         C            3.219568033380    -0.909581055287    -0.062056513580    12.000000000000
         C           -3.219548966620    -0.909595055287    -0.062063513580    12.000000000000
         H            1.313909033380     0.418875944713     1.467559486420     1.007825032230
         H           -1.313906966620     0.418892944713     1.467561486420     1.007825032230
         H            0.000008033380     2.361023944713     0.590983486420     1.007825032230
         H            0.000004033380     1.618867944713    -1.029695513580     1.007825032230
         H           -0.000009866620    -1.030284355287    -0.779374613580     1.007825032230
         H           -0.000012966620    -1.612578055287     0.820936486420     1.007825032230
         H            2.931365033380     1.226245944713    -0.255614513580     1.007825032230
         H            2.099387033380     0.275518944713    -1.479869513580     1.007825032230
         H           -2.099405966620     0.275560944713    -1.479861513580     1.007825032230
         H           -2.931393966620     1.226241944713    -0.255576513580     1.007825032230
         H            2.672426033380    -1.839436055287    -0.245144513580     1.007825032230
         H            4.136951033380    -0.936525055287    -0.657685513580     1.007825032230
         H            3.504652033380    -0.890983055287     0.994603486420     1.007825032230
         H           -3.504595966620    -0.891040055287     0.994606486420     1.007825032230
         H           -4.136953966620    -0.936529055287    -0.657659513580     1.007825032230
         H           -2.672401966620    -1.839436055287    -0.245207513580     1.007825032230

  Basis Set: AUG-CC-PVTZ
    Blend: AUG-CC-PVTZ
  Basis Set: (AUG-CC-PVTZ AUX)
    Blend: AUG-CC-PVTZ-JKFIT
	 Reference Energy          =    -312.3410770055488683 [Eh]
	 Singles Energy            =      -0.0000000000000000 [Eh]
	 Same-Spin Energy          =      -0.3389821333730400 [Eh]
	 Opposite-Spin Energy      =      -1.2309373107637080 [Eh]
	 Correlation Energy        =      -1.5699194441367481 [Eh]
	 Total Energy              =    -313.9109964496856264 [Eh]

	 ================> DF-SCS-MP2 Energies <==================
	-----------------------------------------------------------
	 SCS Same-Spin Scale       =       0.3333333333333333 [-]
	 SCS Opposite-Spin Scale   =       1.2000000000000000 [-]
	 SCS Same-Spin Energy      =      -0.1129940444576800 [Eh]
	 SCS Opposite-Spin Energy  =      -1.4771247729164496 [Eh]
	 SCS Correlation Energy    =      -1.5901188173741296 [Eh]
	 SCS Total Energy          =    -313.9311958229229731 [Eh]
	-----------------------------------------------------------

  Dipole Moment: [D]
     X:    -0.0000      Y:     0.0453      Z:     0.0325     Total:     0.0558

*** Psi4 exiting successfully. Buy a developer a beer!
