                               Psi4 1.4a3.dev225

  ==> Input File <==

--------------------------------------------------------------------------
#psi4
#
memory 32 gb

molecule  {
0 1
  C        1.0769770     0.3750480     0.4036540
  C       -1.0769820     0.3750600     0.4036550
  C        0.0000030     1.4273620     0.0552210
  C       -0.0000090    -0.7130420     0.1804050
  C        2.3595160     0.3194210    -0.4060430
  C       -2.3595260     0.3194330    -0.4060330
  C        3.2195680    -0.8924030    -0.0547570
  C       -3.2594579    -0.8593324    -0.0423785
  H        1.3139090     0.4360540     1.4748590
  H       -1.3139070     0.4360710     1.4748610
  H        0.0000080     2.3782020     0.5982830
  H        0.0000040     1.6360460    -1.0223960
  H       -0.0000100    -1.0431540    -0.8674540
  H       -0.0000130    -1.5954000     0.8282360
  H        2.9313650     1.2434240    -0.2483150
  H        2.0993870     0.2926970    -1.4725700
  H       -2.0994060     0.2927390    -1.4725620
  H       -2.9313940     1.2434200    -0.2482770
  H        2.6724260    -1.8222580    -0.2378450
  H        4.1369510    -0.9193470    -0.6503860
  H        3.5046520    -0.8738050     1.0019030
  H       -3.5045960    -0.8738620     1.0019060
  H       -4.1369540    -0.9193510    -0.6503600
  H       -2.6724020    -1.8222580    -0.2379080
units angstrom
no_reorient  #important for SAPT in psi4, default
symmetry c1  #important for SAPT in psi4, default
}

set PROPERTIES_ORIGIN ["COM"]
properties('MP2/aug-cc-pvtz', properties = ['dipole'])
--------------------------------------------------------------------------

    Molecular point group: c1
  Charge       = 0
  Multiplicity = 1
  Basis Set: AUG-CC-PVTZ
    Blend: AUG-CC-PVTZ
  Basis Set: (AUG-CC-PVTZ AUX)
    Blend: AUG-CC-PVTZ-JKFIT

    Orbital Energies [Eh]
    ---------------------

    Doubly Occupied:

       1A    -11.218879     2A    -11.218371     3A    -11.213566
       4A    -11.213403     5A    -11.211371     6A    -11.211271
       7A    -11.209702     8A    -11.209152     9A     -1.140653
      10A     -1.045875    11A     -1.007631    12A     -0.899717
      13A     -0.891943    14A     -0.841259    15A     -0.769036
      16A     -0.743881    17A     -0.651855    18A     -0.616434
      19A     -0.612039    20A     -0.584327    21A     -0.575937
      22A     -0.539541    23A     -0.530699    24A     -0.527920
      25A     -0.507988    26A     -0.498343    27A     -0.479545
      28A     -0.465900    29A     -0.442641    30A     -0.439648
      31A     -0.420940    32A     -0.408081

  @DF-RHF Final Energy:  -312.34389969267482

   => Energetics <=

    Nuclear Repulsion Energy =            389.8883376639907397
    One-Electron Energy =               -1193.7693763880888582
    Two-Electron Energy =                 491.5371390314232372
    Total Energy =                       -312.3438996926748246
  Basis Set: (AUG-CC-PVTZ AUX)
    Blend: AUG-CC-PVTZ-RI
    Molecular point group: c1

    Geometry (in Angstrom), charge = 0, multiplicity = 1:

       Center              X                  Y                   Z               Mass
    ------------   -----------------  -----------------  -----------------  -----------------
         C            1.081248213262     0.354599204736     0.395886253080    12.000000000000
         C           -1.072710786738     0.354611204736     0.395887253080    12.000000000000
         C            0.004274213262     1.406913204736     0.047453253080    12.000000000000
         C            0.004262213262    -0.733490795264     0.172637253080    12.000000000000
         C            2.363787213262     0.298972204736    -0.413810746920    12.000000000000
         C           -2.355254786738     0.298984204736    -0.413800746920    12.000000000000
         C            3.223839213262    -0.912851795264    -0.062524746920    12.000000000000
         C           -3.255186686738    -0.879781195264    -0.050146246920    12.000000000000
         H            1.318180213262     0.415605204736     1.467091253080     1.007825032230
         H           -1.309635786738     0.415622204736     1.467093253080     1.007825032230
         H            0.004279213262     2.357753204736     0.590515253080     1.007825032230
         H            0.004275213262     1.615597204736    -1.030163746920     1.007825032230
         H            0.004261213262    -1.063602795264    -0.875221746920     1.007825032230
         H            0.004258213262    -1.615848795264     0.820468253080     1.007825032230
         H            2.935636213262     1.222975204736    -0.256082746920     1.007825032230
         H            2.103658213262     0.272248204736    -1.480337746920     1.007825032230
         H           -2.095134786738     0.272290204736    -1.480329746920     1.007825032230
         H           -2.927122786738     1.222971204736    -0.256044746920     1.007825032230
         H            2.676697213262    -1.842706795264    -0.245612746920     1.007825032230
         H            4.141222213262    -0.939795795264    -0.658153746920     1.007825032230
         H            3.508923213262    -0.894253795264     0.994135253080     1.007825032230
         H           -3.500324786738    -0.894310795264     0.994138253080     1.007825032230
         H           -4.132682786738    -0.939799795264    -0.658127746920     1.007825032230
         H           -2.668130786738    -1.842706795264    -0.245675746920     1.007825032230

  Basis Set: AUG-CC-PVTZ
    Blend: AUG-CC-PVTZ
  Basis Set: (AUG-CC-PVTZ AUX)
    Blend: AUG-CC-PVTZ-JKFIT
	 Reference Energy          =    -312.3438996926748246 [Eh]
	 Singles Energy            =      -0.0000000000000000 [Eh]
	 Same-Spin Energy          =      -0.3390944128386912 [Eh]
	 Opposite-Spin Energy      =      -1.2315990453603574 [Eh]
	 Correlation Energy        =      -1.5706934581990486 [Eh]
	 Total Energy              =    -313.9145931508738840 [Eh]

	 ================> DF-SCS-MP2 Energies <==================
	-----------------------------------------------------------
	 SCS Same-Spin Scale       =       0.3333333333333333 [-]
	 SCS Opposite-Spin Scale   =       1.2000000000000000 [-]
	 SCS Same-Spin Energy      =      -0.1130314709462304 [Eh]
	 SCS Opposite-Spin Energy  =      -1.4779188544324289 [Eh]
	 SCS Correlation Energy    =      -1.5909503253786592 [Eh]
	 SCS Total Energy          =    -313.9348500180535098 [Eh]
	-----------------------------------------------------------

  Dipole Moment: [D]
     X:    -0.0080      Y:     0.0897      Z:     0.0902     Total:     0.1275

*** Psi4 exiting successfully. Buy a developer a beer!
