                               Psi4 1.4a3.dev225

  ==> Input File <==

--------------------------------------------------------------------------
#psi4
#
memory 32 gb

molecule  {
0 1
  C        1.1687543     0.3768607     0.5333169
  C       -1.0769820     0.3750600     0.4036550
  C        0.0000030     1.4273620     0.0552210
  C       -0.0000090    -0.7130420     0.1804050
  C        2.3595160     0.3194210    -0.4060430
  C       -2.3595260     0.3194330    -0.4060330
  C        3.2195680    -0.8924030    -0.0547570
  C       -3.2195490    -0.8924170    -0.0547640
  H        1.3139090     0.4360540     1.4748590
  H       -1.3139070     0.4360710     1.4748610
  H        0.0000080     2.3782020     0.5982830
  H        0.0000040     1.6360460    -1.0223960
  H       -0.0000100    -1.0431540    -0.8674540
  H       -0.0000130    -1.5954000     0.8282360
  H        2.9313650     1.2434240    -0.2483150
  H        2.0993870     0.2926970    -1.4725700
  H       -2.0994060     0.2927390    -1.4725620
  H       -2.9313940     1.2434200    -0.2482770
  H        2.6724260    -1.8222580    -0.2378450
  H        4.1369510    -0.9193470    -0.6503860
  H        3.5046520    -0.8738050     1.0019030
  H       -3.5045960    -0.8738620     1.0019060
  H       -4.1369540    -0.9193510    -0.6503600
  H       -2.6724020    -1.8222580    -0.2379080
units angstrom
no_reorient  #important for SAPT in psi4, default
symmetry c1  #important for SAPT in psi4, default
}

set PROPERTIES_ORIGIN ["COM"]
properties('MP2/aug-cc-pvtz', properties = ['dipole'])
--------------------------------------------------------------------------

    Molecular point group: c1
  Charge       = 0
  Multiplicity = 1
  Basis Set: AUG-CC-PVTZ
    Blend: AUG-CC-PVTZ
  Basis Set: (AUG-CC-PVTZ AUX)
    Blend: AUG-CC-PVTZ-JKFIT

    Orbital Energies [Eh]
    ---------------------

    Doubly Occupied:

       1A    -11.217139     2A    -11.216026     3A    -11.215543
       4A    -11.215088     5A    -11.214450     6A    -11.213246
       7A    -11.208941     8A    -11.207377     9A     -1.124219
      10A     -1.047073    11A     -1.002986    12A     -0.901491
      13A     -0.882368    14A     -0.838494    15A     -0.787755
      16A     -0.750739    17A     -0.641308    18A     -0.618519
      19A     -0.608140    20A     -0.586337    21A     -0.570977
      22A     -0.548715    23A     -0.530077    24A     -0.520374
      25A     -0.510123    26A     -0.503168    27A     -0.485552
      28A     -0.479190    29A     -0.451131    30A     -0.433625
      31A     -0.398164    32A     -0.391982

  @DF-RHF Final Energy:  -312.31631632809359

   => Energetics <=

    Nuclear Repulsion Energy =            388.3837213054603694
    One-Electron Energy =               -1190.7594403933439935
    Two-Electron Energy =                 490.0594027597900890
    Total Energy =                       -312.3163163280935919
  Basis Set: (AUG-CC-PVTZ AUX)
    Blend: AUG-CC-PVTZ-RI
    Molecular point group: c1

    Geometry (in Angstrom), charge = 0, multiplicity = 1:

       Center              X                  Y                   Z               Mass
    ------------   -----------------  -----------------  -----------------  -----------------
         C            1.158932032112     0.359758724169     0.512997748102    12.000000000000
         C           -1.086804267888     0.357958024169     0.383335848102    12.000000000000
         C           -0.009819267888     1.410260024169     0.034901848102    12.000000000000
         C           -0.009831267888    -0.730143975831     0.160085848102    12.000000000000
         C            2.349693732112     0.302319024169    -0.426362151898    12.000000000000
         C           -2.369348267888     0.302331024169    -0.426352151898    12.000000000000
         C            3.209745732112    -0.909504975831    -0.075076151898    12.000000000000
         C           -3.229371267888    -0.909518975831    -0.075083151898    12.000000000000
         H            1.304086732112     0.418952024169     1.454539848102     1.007825032230
         H           -1.323729267888     0.418969024169     1.454541848102     1.007825032230
         H           -0.009814267888     2.361100024169     0.577963848102     1.007825032230
         H           -0.009818267888     1.618944024169    -1.042715151898     1.007825032230
         H           -0.009832267888    -1.060255975831    -0.887773151898     1.007825032230
         H           -0.009835267888    -1.612501975831     0.807916848102     1.007825032230
         H            2.921542732112     1.226322024169    -0.268634151898     1.007825032230
         H            2.089564732112     0.275595024169    -1.492889151898     1.007825032230
         H           -2.109228267888     0.275637024169    -1.492881151898     1.007825032230
         H           -2.941216267888     1.226318024169    -0.268596151898     1.007825032230
         H            2.662603732112    -1.839359975831    -0.258164151898     1.007825032230
         H            4.127128732112    -0.936448975831    -0.670705151898     1.007825032230
         H            3.494829732112    -0.890906975831     0.981583848102     1.007825032230
         H           -3.514418267888    -0.890963975831     0.981586848102     1.007825032230
         H           -4.146776267888    -0.936452975831    -0.670679151898     1.007825032230
         H           -2.682224267888    -1.839359975831    -0.258227151898     1.007825032230

  Basis Set: AUG-CC-PVTZ
    Blend: AUG-CC-PVTZ
  Basis Set: (AUG-CC-PVTZ AUX)
    Blend: AUG-CC-PVTZ-JKFIT
	 Reference Energy          =    -312.3163163280935919 [Eh]
	 Singles Energy            =      -0.0000000000000000 [Eh]
	 Same-Spin Energy          =      -0.3389199462035013 [Eh]
	 Opposite-Spin Energy      =      -1.2329977336794089 [Eh]
	 Correlation Energy        =      -1.5719176798829102 [Eh]
	 Total Energy              =    -313.8882340079765072 [Eh]

	 ================> DF-SCS-MP2 Energies <==================
	-----------------------------------------------------------
	 SCS Same-Spin Scale       =       0.3333333333333333 [-]
	 SCS Opposite-Spin Scale   =       1.2000000000000000 [-]
	 SCS Same-Spin Energy      =      -0.1129733154011671 [Eh]
	 SCS Opposite-Spin Energy  =      -1.4795972804152906 [Eh]
	 SCS Correlation Energy    =      -1.5925705958164578 [Eh]
	 SCS Total Energy          =    -313.9088869239100745 [Eh]
	-----------------------------------------------------------

  Dipole Moment: [D]
     X:     0.0285      Y:     0.0833      Z:     0.0938     Total:     0.1287

*** Psi4 exiting successfully. Buy a developer a beer!
