                               Psi4 1.4a3.dev225

  ==> Input File <==

--------------------------------------------------------------------------
#psi4
#
memory 32 gb

molecule  {
0 1
  C        1.0769770     0.3750480     0.4036540
  C       -1.0769820     0.3750600     0.4036550
  C        0.0000030     1.4273620     0.0552210
  C       -0.0000090    -0.7130420     0.1804050
  C        2.3595160     0.3194210    -0.4060430
  C       -2.3595260     0.3194330    -0.4060330
  C        3.2195680    -0.8924030    -0.0547570
  C       -3.2758715    -0.9717805    -0.0317595
  H        1.3139090     0.4360540     1.4748590
  H       -1.3139070     0.4360710     1.4748610
  H        0.0000080     2.3782020     0.5982830
  H        0.0000040     1.6360460    -1.0223960
  H       -0.0000100    -1.0431540    -0.8674540
  H       -0.0000130    -1.5954000     0.8282360
  H        2.9313650     1.2434240    -0.2483150
  H        2.0993870     0.2926970    -1.4725700
  H       -2.0994060     0.2927390    -1.4725620
  H       -2.9313940     1.2434200    -0.2482770
  H        2.6724260    -1.8222580    -0.2378450
  H        4.1369510    -0.9193470    -0.6503860
  H        3.5046520    -0.8738050     1.0019030
  H       -3.5045960    -0.8738620     1.0019060
  H       -4.1369540    -0.9193510    -0.6503600
  H       -2.6724020    -1.8222580    -0.2379080
units angstrom
no_reorient  #important for SAPT in psi4, default
symmetry c1  #important for SAPT in psi4, default
}

set PROPERTIES_ORIGIN ["COM"]
properties('MP2/aug-cc-pvtz', properties = ['dipole'])
--------------------------------------------------------------------------

    Molecular point group: c1
  Charge       = 0
  Multiplicity = 1
  Basis Set: AUG-CC-PVTZ
    Blend: AUG-CC-PVTZ
  Basis Set: (AUG-CC-PVTZ AUX)
    Blend: AUG-CC-PVTZ-JKFIT

    Orbital Energies [Eh]
    ---------------------

    Doubly Occupied:

       1A    -11.218364     2A    -11.218286     3A    -11.217103
       4A    -11.213322     5A    -11.211207     6A    -11.210934
       7A    -11.209140     8A    -11.205915     9A     -1.139638
      10A     -1.040231    11A     -0.999774    12A     -0.902324
      13A     -0.891882    14A     -0.844702    15A     -0.768134
      16A     -0.743216    17A     -0.651411    18A     -0.616015
      19A     -0.611795    20A     -0.586307    21A     -0.573532
      22A     -0.538783    23A     -0.530686    24A     -0.522542
      25A     -0.516097    26A     -0.500404    27A     -0.484282
      28A     -0.466071    29A     -0.442553    30A     -0.435425
      31A     -0.419420    32A     -0.404184

  @DF-RHF Final Energy:  -312.33940194880233

   => Energetics <=

    Nuclear Repulsion Energy =            388.7876102528154547
    One-Electron Energy =               -1191.5866715934771491
    Two-Electron Energy =                 490.4596593918593044
    Total Energy =                       -312.3394019488023332
  Basis Set: (AUG-CC-PVTZ AUX)
    Blend: AUG-CC-PVTZ-RI
    Molecular point group: c1

    Geometry (in Angstrom), charge = 0, multiplicity = 1:

       Center              X                  Y                   Z               Mass
    ------------   -----------------  -----------------  -----------------  -----------------
         C            1.083004849586     0.366633762479     0.394749773507    12.000000000000
         C           -1.070954150414     0.366645762479     0.394750773507    12.000000000000
         C            0.006030849586     1.418947762479     0.046316773507    12.000000000000
         C            0.006018849586    -0.721456237521     0.171500773507    12.000000000000
         C            2.365543849586     0.311006762479    -0.414947226493    12.000000000000
         C           -2.353498150414     0.311018762479    -0.414937226493    12.000000000000
         C            3.225595849586    -0.900817237521    -0.063661226493    12.000000000000
         C           -3.269843650414    -0.980194737521    -0.040663726493    12.000000000000
         H            1.319936849586     0.427639762479     1.465954773507     1.007825032230
         H           -1.307879150414     0.427656762479     1.465956773507     1.007825032230
         H            0.006035849586     2.369787762479     0.589378773507     1.007825032230
         H            0.006031849586     1.627631762479    -1.031300226493     1.007825032230
         H            0.006017849586    -1.051568237521    -0.876358226493     1.007825032230
         H            0.006014849586    -1.603814237521     0.819331773507     1.007825032230
         H            2.937392849586     1.235009762479    -0.257219226493     1.007825032230
         H            2.105414849586     0.284282762479    -1.481474226493     1.007825032230
         H           -2.093378150414     0.284324762479    -1.481466226493     1.007825032230
         H           -2.925366150414     1.235005762479    -0.257181226493     1.007825032230
         H            2.678453849586    -1.830672237521    -0.246749226493     1.007825032230
         H            4.142978849586    -0.927761237521    -0.659290226493     1.007825032230
         H            3.510679849586    -0.882219237521     0.992998773507     1.007825032230
         H           -3.498568150414    -0.882276237521     0.993001773507     1.007825032230
         H           -4.130926150414    -0.927765237521    -0.659264226493     1.007825032230
         H           -2.666374150414    -1.830672237521    -0.246812226493     1.007825032230

  Basis Set: AUG-CC-PVTZ
    Blend: AUG-CC-PVTZ
  Basis Set: (AUG-CC-PVTZ AUX)
    Blend: AUG-CC-PVTZ-JKFIT
	 Reference Energy          =    -312.3394019488023332 [Eh]
	 Singles Energy            =      -0.0000000000000000 [Eh]
	 Same-Spin Energy          =      -0.3388294181760840 [Eh]
	 Opposite-Spin Energy      =      -1.2317146030835033 [Eh]
	 Correlation Energy        =      -1.5705440212595874 [Eh]
	 Total Energy              =    -313.9099459700619263 [Eh]

	 ================> DF-SCS-MP2 Energies <==================
	-----------------------------------------------------------
	 SCS Same-Spin Scale       =       0.3333333333333333 [-]
	 SCS Opposite-Spin Scale   =       1.2000000000000000 [-]
	 SCS Same-Spin Energy      =      -0.1129431393920280 [Eh]
	 SCS Opposite-Spin Energy  =      -1.4780575237002040 [Eh]
	 SCS Correlation Energy    =      -1.5910006630922320 [Eh]
	 SCS Total Energy          =    -313.9304026118945785 [Eh]
	-----------------------------------------------------------

  Dipole Moment: [D]
     X:     0.0158      Y:     0.0901      Z:     0.0861     Total:     0.1256

*** Psi4 exiting successfully. Buy a developer a beer!
