                               Psi4 1.4a3.dev225

  ==> Input File <==

--------------------------------------------------------------------------
#psi4
#
memory 32 gb

molecule  {
0 1
  C        1.0769770     0.3750480     0.4036540
  C       -1.0769820     0.3750600     0.4036550
  C        0.0000030     1.4273620     0.0552210
  C       -0.0000090    -0.7130420     0.1804050
  C        2.3595160     0.3194210    -0.4060430
  C       -2.2750238     0.3230981    -0.3526856
  C        3.2195680    -0.8924030    -0.0547570
  C       -3.2195490    -0.8924170    -0.0547640
  H        1.3139090     0.4360540     1.4748590
  H       -1.3139070     0.4360710     1.4748610
  H        0.0000080     2.3782020     0.5982830
  H        0.0000040     1.6360460    -1.0223960
  H       -0.0000100    -1.0431540    -0.8674540
  H       -0.0000130    -1.5954000     0.8282360
  H        2.9313650     1.2434240    -0.2483150
  H        2.0993870     0.2926970    -1.4725700
  H       -2.0994060     0.2927390    -1.4725620
  H       -2.9313940     1.2434200    -0.2482770
  H        2.6724260    -1.8222580    -0.2378450
  H        4.1369510    -0.9193470    -0.6503860
  H        3.5046520    -0.8738050     1.0019030
  H       -3.5045960    -0.8738620     1.0019060
  H       -4.1369540    -0.9193510    -0.6503600
  H       -2.6724020    -1.8222580    -0.2379080
units angstrom
no_reorient  #important for SAPT in psi4, default
symmetry c1  #important for SAPT in psi4, default
}

set PROPERTIES_ORIGIN ["COM"]
properties('MP2/aug-cc-pvtz', properties = ['dipole'])
--------------------------------------------------------------------------

    Molecular point group: c1
  Charge       = 0
  Multiplicity = 1
  Basis Set: AUG-CC-PVTZ
    Blend: AUG-CC-PVTZ
  Basis Set: (AUG-CC-PVTZ AUX)
    Blend: AUG-CC-PVTZ-JKFIT

    Orbital Energies [Eh]
    ---------------------

    Doubly Occupied:

       1A    -11.218889     2A    -11.217482     3A    -11.214225
       4A    -11.213746     5A    -11.212194     6A    -11.211916
       7A    -11.211337     8A    -11.209482     9A     -1.146571
      10A     -1.050203    11A     -1.004206    12A     -0.905667
      13A     -0.893518    14A     -0.844497    15A     -0.764723
      16A     -0.745813    17A     -0.653505    18A     -0.619405
      19A     -0.615735    20A     -0.580212    21A     -0.573950
      22A     -0.539027    23A     -0.531714    24A     -0.529099
      25A     -0.509440    26A     -0.501943    27A     -0.481051
      28A     -0.462245    29A     -0.447522    30A     -0.434614
      31A     -0.417038    32A     -0.409033

  @DF-RHF Final Energy:  -312.33526674313492

   => Energetics <=

    Nuclear Repulsion Energy =            391.3959858731292343
    One-Electron Energy =               -1196.7225023569878886
    Two-Electron Energy =                 492.9912497407237311
    Total Energy =                       -312.3352667431349232
  Basis Set: (AUG-CC-PVTZ AUX)
    Blend: AUG-CC-PVTZ-RI
    Molecular point group: c1

    Geometry (in Angstrom), charge = 0, multiplicity = 1:

       Center              X                  Y                   Z               Mass
    ------------   -----------------  -----------------  -----------------  -----------------
         C            1.067933336739     0.357747774356     0.391502378646    12.000000000000
         C           -1.086025663261     0.357759774356     0.391503378646    12.000000000000
         C           -0.009040663261     1.410061774356     0.043069378646    12.000000000000
         C           -0.009052663261    -0.730342225644     0.168253378646    12.000000000000
         C            2.350472336739     0.302120774356    -0.418194621354    12.000000000000
         C           -2.284067463261     0.305797874356    -0.364837221354    12.000000000000
         C            3.210524336739    -0.909703225644    -0.066908621354    12.000000000000
         C           -3.228592663261    -0.909717225644    -0.066915621354    12.000000000000
         H            1.304865336739     0.418753774356     1.462707378646     1.007825032230
         H           -1.322950663261     0.418770774356     1.462709378646     1.007825032230
         H           -0.009035663261     2.360901774356     0.586131378646     1.007825032230
         H           -0.009039663261     1.618745774356    -1.034547621354     1.007825032230
         H           -0.009053663261    -1.060454225644    -0.879605621354     1.007825032230
         H           -0.009056663261    -1.612700225644     0.816084378646     1.007825032230
         H            2.922321336739     1.226123774356    -0.260466621354     1.007825032230
         H            2.090343336739     0.275396774356    -1.484721621354     1.007825032230
         H           -2.108449663261     0.275438774356    -1.484713621354     1.007825032230
         H           -2.940437663261     1.226119774356    -0.260428621354     1.007825032230
         H            2.663382336739    -1.839558225644    -0.249996621354     1.007825032230
         H            4.127907336739    -0.936647225644    -0.662537621354     1.007825032230
         H            3.495608336739    -0.891105225644     0.989751378646     1.007825032230
         H           -3.513639663261    -0.891162225644     0.989754378646     1.007825032230
         H           -4.145997663261    -0.936651225644    -0.662511621354     1.007825032230
         H           -2.681445663261    -1.839558225644    -0.250059621354     1.007825032230

  Basis Set: AUG-CC-PVTZ
    Blend: AUG-CC-PVTZ
  Basis Set: (AUG-CC-PVTZ AUX)
    Blend: AUG-CC-PVTZ-JKFIT
	 Reference Energy          =    -312.3352667431349232 [Eh]
	 Singles Energy            =      -0.0000000000000000 [Eh]
	 Same-Spin Energy          =      -0.3399572091970735 [Eh]
	 Opposite-Spin Energy      =      -1.2327415731783122 [Eh]
	 Correlation Energy        =      -1.5726987823753857 [Eh]
	 Total Energy              =    -313.9079655255102921 [Eh]

	 ================> DF-SCS-MP2 Energies <==================
	-----------------------------------------------------------
	 SCS Same-Spin Scale       =       0.3333333333333333 [-]
	 SCS Opposite-Spin Scale   =       1.2000000000000000 [-]
	 SCS Same-Spin Energy      =      -0.1133190697323578 [Eh]
	 SCS Opposite-Spin Energy  =      -1.4792898878139746 [Eh]
	 SCS Correlation Energy    =      -1.5926089575463325 [Eh]
	 SCS Total Energy          =    -313.9278757006812839 [Eh]
	-----------------------------------------------------------

  Dipole Moment: [D]
     X:     0.0400      Y:     0.0679      Z:     0.1005     Total:     0.1277

*** Psi4 exiting successfully. Buy a developer a beer!
