                               Psi4 1.4a3.dev225

  ==> Input File <==

--------------------------------------------------------------------------
#psi4
#
memory 32 gb

molecule  {
0 1
  C        1.0769770     0.3750480     0.4036540
  C       -1.0769820     0.3750600     0.4036550
  C        0.0000030     1.4273620     0.0552210
  C       -0.0000090    -0.7130420     0.1804050
  C        2.3595160     0.3194210    -0.4060430
  C       -2.3595260     0.3194330    -0.4060330
  C        3.2195680    -0.8924030    -0.0547570
  C       -3.2195490    -0.8924170    -0.0547640
  H        1.3139090     0.4360540     1.4748590
  H       -1.3139070     0.4360710     1.4748610
  H        0.0000080     2.3782020     0.5982830
  H        0.0000040     1.6360460    -1.0223960
  H       -0.0000100    -1.0431540    -0.8674540
  H       -0.0000130    -1.5954000     0.8282360
  H        2.9313650     1.2434240    -0.2483150
  H        2.0993870     0.2926970    -1.4725700
  H       -2.0994060     0.2927390    -1.4725620
  H       -2.9313940     1.2434200    -0.2482770
  H        2.6724260    -1.8222580    -0.2378450
  H        4.1369510    -0.9193470    -0.6503860
  H        3.5046520    -0.8738050     1.0019030
  H       -3.5045960    -0.8738620     1.0019060
  H       -4.1152791    -0.9880385    -0.6757439
  H       -2.6724020    -1.8222580    -0.2379080
units angstrom
no_reorient  #important for SAPT in psi4, default
symmetry c1  #important for SAPT in psi4, default
}

set PROPERTIES_ORIGIN ["COM"]
properties('MP2/aug-cc-pvtz', properties = ['dipole'])
--------------------------------------------------------------------------

    Molecular point group: c1
  Charge       = 0
  Multiplicity = 1
  Basis Set: AUG-CC-PVTZ
    Blend: AUG-CC-PVTZ
  Basis Set: (AUG-CC-PVTZ AUX)
    Blend: AUG-CC-PVTZ-JKFIT

    Orbital Energies [Eh]
    ---------------------

    Doubly Occupied:

       1A    -11.218689     2A    -11.218387     3A    -11.213845
       4A    -11.213419     5A    -11.211376     6A    -11.211185
       7A    -11.209187     8A    -11.209083     9A     -1.140719
      10A     -1.045904    11A     -1.007266    12A     -0.899374
      13A     -0.892038    14A     -0.841551    15A     -0.769353
      16A     -0.743822    17A     -0.651933    18A     -0.616869
      19A     -0.611525    20A     -0.585069    21A     -0.572960
      22A     -0.536708    23A     -0.530704    24A     -0.527015
      25A     -0.507054    26A     -0.502520    27A     -0.481886
      28A     -0.464578    29A     -0.442317    30A     -0.441462
      31A     -0.421775    32A     -0.407299

  @DF-RHF Final Energy:  -312.34617433152232

   => Energetics <=

    Nuclear Repulsion Energy =            390.0971280713321221
    One-Electron Energy =               -1194.1928603663038757
    Two-Electron Energy =                 491.7495579634494334
    Total Energy =                       -312.3461743315223202
  Basis Set: (AUG-CC-PVTZ AUX)
    Blend: AUG-CC-PVTZ-RI
    Molecular point group: c1

    Geometry (in Angstrom), charge = 0, multiplicity = 1:

       Center              X                  Y                   Z               Mass
    ------------   -----------------  -----------------  -----------------  -----------------
         C            1.076782211824     0.358757415199     0.397439949565    12.000000000000
         C           -1.077176788176     0.358769415199     0.397440949565    12.000000000000
         C           -0.000191788176     1.411071415199     0.049006949565    12.000000000000
         C           -0.000203788176    -0.729332584801     0.174190949565    12.000000000000
         C            2.359321211824     0.303130415199    -0.412257050435    12.000000000000
         C           -2.359720788176     0.303142415199    -0.412247050435    12.000000000000
         C            3.219373211824    -0.908693584801    -0.060971050435    12.000000000000
         C           -3.219743788176    -0.908707584801    -0.060978050435    12.000000000000
         H            1.313714211824     0.419763415199     1.468644949565     1.007825032230
         H           -1.314101788176     0.419780415199     1.468646949565     1.007825032230
         H           -0.000186788176     2.361911415199     0.592068949565     1.007825032230
         H           -0.000190788176     1.619755415199    -1.028610050435     1.007825032230
         H           -0.000204788176    -1.059444584801    -0.873668050435     1.007825032230
         H           -0.000207788176    -1.611690584801     0.822021949565     1.007825032230
         H            2.931170211824     1.227133415199    -0.254529050435     1.007825032230
         H            2.099192211824     0.276406415199    -1.478784050435     1.007825032230
         H           -2.099600788176     0.276448415199    -1.478776050435     1.007825032230
         H           -2.931588788176     1.227129415199    -0.254491050435     1.007825032230
         H            2.672231211824    -1.838548584801    -0.244059050435     1.007825032230
         H            4.136756211824    -0.935637584801    -0.656600050435     1.007825032230
         H            3.504457211824    -0.890095584801     0.995688949565     1.007825032230
         H           -3.504790788176    -0.890152584801     0.995691949565     1.007825032230
         H           -4.115473888176    -1.004329084801    -0.681957950435     1.007825032230
         H           -2.672596788176    -1.838548584801    -0.244122050435     1.007825032230

  Basis Set: AUG-CC-PVTZ
    Blend: AUG-CC-PVTZ
  Basis Set: (AUG-CC-PVTZ AUX)
    Blend: AUG-CC-PVTZ-JKFIT
	 Reference Energy          =    -312.3461743315223202 [Eh]
	 Singles Energy            =      -0.0000000000000000 [Eh]
	 Same-Spin Energy          =      -0.3391104412654954 [Eh]
	 Opposite-Spin Energy      =      -1.2315349742389459 [Eh]
	 Correlation Energy        =      -1.5706454155044414 [Eh]
	 Total Energy              =    -313.9168197470267501 [Eh]

	 ================> DF-SCS-MP2 Energies <==================
	-----------------------------------------------------------
	 SCS Same-Spin Scale       =       0.3333333333333333 [-]
	 SCS Opposite-Spin Scale   =       1.2000000000000000 [-]
	 SCS Same-Spin Energy      =      -0.1130368137551651 [Eh]
	 SCS Opposite-Spin Energy  =      -1.4778419690867350 [Eh]
	 SCS Correlation Energy    =      -1.5908787828419002 [Eh]
	 SCS Total Energy          =    -313.9370531143642324 [Eh]
	-----------------------------------------------------------

  Dipole Moment: [D]
     X:     0.0126      Y:     0.0555      Z:     0.0714     Total:     0.0913

*** Psi4 exiting successfully. Buy a developer a beer!
