                               Psi4 1.4a3.dev225

  ==> Input File <==

--------------------------------------------------------------------------
#psi4
#
memory 32 gb

molecule  {
0 1
  C        1.0769770     0.3750480     0.4036540
  C       -1.0769820     0.3750600     0.4036550
  C        0.0000030     1.4273620     0.0552210
  C       -0.0000090    -0.7130420     0.1804050
  C        2.3595160     0.3194210    -0.4060430
  C       -2.3595260     0.3194330    -0.4060330
  C        3.2195680    -0.8924030    -0.0547570
  C       -3.2195490    -0.8924170    -0.0547640
  H        1.3139090     0.4360540     1.4748590
  H       -1.3139070     0.4360710     1.4748610
  H        0.0000080     2.3782020     0.5982830
  H        0.0000040     1.6360460    -1.0223960
  H       -0.0000100    -1.0431540    -0.8674540
  H       -0.0000130    -1.5954000     0.8282360
  H        2.9313650     1.2434240    -0.2483150
  H        2.0993870     0.2926970    -1.4725700
  H       -2.0994060     0.2927390    -1.4725620
  H       -2.9313940     1.2434200    -0.2482770
  H        2.6974254    -1.7797721    -0.2294796
  H        4.1369510    -0.9193470    -0.6503860
  H        3.5046520    -0.8738050     1.0019030
  H       -3.5045960    -0.8738620     1.0019060
  H       -4.1369540    -0.9193510    -0.6503600
  H       -2.6724020    -1.8222580    -0.2379080
units angstrom
no_reorient  #important for SAPT in psi4, default
symmetry c1  #important for SAPT in psi4, default
}

set PROPERTIES_ORIGIN ["COM"]
properties('MP2/aug-cc-pvtz', properties = ['dipole'])
--------------------------------------------------------------------------

    Molecular point group: c1
  Charge       = 0
  Multiplicity = 1
  Basis Set: AUG-CC-PVTZ
    Blend: AUG-CC-PVTZ
  Basis Set: (AUG-CC-PVTZ AUX)
    Blend: AUG-CC-PVTZ-JKFIT

    Orbital Energies [Eh]
    ---------------------

    Doubly Occupied:

       1A    -11.218396     2A    -11.218245     3A    -11.213396
       4A    -11.212783     5A    -11.211461     6A    -11.210923
       7A    -11.209193     8A    -11.202836     9A     -1.140645
      10A     -1.046598    11A     -1.008536    12A     -0.900999
      13A     -0.892050    14A     -0.842793    15A     -0.769687
      16A     -0.743727    17A     -0.651872    18A     -0.618572
      19A     -0.613153    20A     -0.586053    21A     -0.571920
      22A     -0.537100    23A     -0.530745    24A     -0.524591
      25A     -0.512211    26A     -0.505753    27A     -0.483191
      28A     -0.464095    29A     -0.442073    30A     -0.441104
      31A     -0.421720    32A     -0.406741

  @DF-RHF Final Energy:  -312.34569380329469

   => Energetics <=

    Nuclear Repulsion Energy =            390.3063763922060048
    One-Electron Energy =               -1194.5978190107409773
    Two-Electron Energy =                 491.9457488152403357
    Total Energy =                       -312.3456938032946937
  Basis Set: (AUG-CC-PVTZ AUX)
    Blend: AUG-CC-PVTZ-RI
    Molecular point group: c1

    Geometry (in Angstrom), charge = 0, multiplicity = 1:

       Center              X                  Y                   Z               Mass
    ------------   -----------------  -----------------  -----------------  -----------------
         C            1.076752329921     0.357758145321     0.397136597694    12.000000000000
         C           -1.077206670079     0.357770145321     0.397137597694    12.000000000000
         C           -0.000221670079     1.410072145321     0.048703597694    12.000000000000
         C           -0.000233670079    -0.730331854679     0.173887597694    12.000000000000
         C            2.359291329921     0.302131145321    -0.412560402306    12.000000000000
         C           -2.359750670079     0.302143145321    -0.412550402306    12.000000000000
         C            3.219343329921    -0.909692854679    -0.061274402306    12.000000000000
         C           -3.219773670079    -0.909706854679    -0.061281402306    12.000000000000
         H            1.313684329921     0.418764145321     1.468341597694     1.007825032230
         H           -1.314131670079     0.418781145321     1.468343597694     1.007825032230
         H           -0.000216670079     2.360912145321     0.591765597694     1.007825032230
         H           -0.000220670079     1.618756145321    -1.028913402306     1.007825032230
         H           -0.000234670079    -1.060443854679    -0.873971402306     1.007825032230
         H           -0.000237670079    -1.612689854679     0.821718597694     1.007825032230
         H            2.931140329921     1.226134145321    -0.254832402306     1.007825032230
         H            2.099162329921     0.275407145321    -1.479087402306     1.007825032230
         H           -2.099630670079     0.275449145321    -1.479079402306     1.007825032230
         H           -2.931618670079     1.226130145321    -0.254794402306     1.007825032230
         H            2.697200729921    -1.797061954679    -0.235997002306     1.007825032230
         H            4.136726329921    -0.936636854679    -0.656903402306     1.007825032230
         H            3.504427329921    -0.891094854679     0.995385597694     1.007825032230
         H           -3.504820670079    -0.891151854679     0.995388597694     1.007825032230
         H           -4.137178670079    -0.936640854679    -0.656877402306     1.007825032230
         H           -2.672626670079    -1.839547854679    -0.244425402306     1.007825032230

  Basis Set: AUG-CC-PVTZ
    Blend: AUG-CC-PVTZ
  Basis Set: (AUG-CC-PVTZ AUX)
    Blend: AUG-CC-PVTZ-JKFIT
	 Reference Energy          =    -312.3456938032946937 [Eh]
	 Singles Energy            =      -0.0000000000000000 [Eh]
	 Same-Spin Energy          =      -0.3390924671723859 [Eh]
	 Opposite-Spin Energy      =      -1.2312554521398189 [Eh]
	 Correlation Energy        =      -1.5703479193122050 [Eh]
	 Total Energy              =    -313.9160417226069058 [Eh]

	 ================> DF-SCS-MP2 Energies <==================
	-----------------------------------------------------------
	 SCS Same-Spin Scale       =       0.3333333333333333 [-]
	 SCS Opposite-Spin Scale   =       1.2000000000000000 [-]
	 SCS Same-Spin Energy      =      -0.1130308223907953 [Eh]
	 SCS Opposite-Spin Energy  =      -1.4775065425677827 [Eh]
	 SCS Correlation Energy    =      -1.5905373649585779 [Eh]
	 SCS Total Energy          =    -313.9362311682532436 [Eh]
	-----------------------------------------------------------

  Dipole Moment: [D]
     X:    -0.0080      Y:     0.0458      Z:     0.0801     Total:     0.0926

*** Psi4 exiting successfully. Buy a developer a beer!
