                               Psi4 1.4a3.dev225

  ==> Input File <==

--------------------------------------------------------------------------
#psi4
#
memory 32 gb

molecule  {
0 1
  C        1.0769770     0.3750480     0.4036540
  C       -1.0769820     0.3750600     0.4036550
  C        0.0000030     1.4273620     0.0552210
  C       -0.0000090    -0.7130420     0.1804050
  C        2.3595160     0.3194210    -0.4060430
  C       -2.3595260     0.3194330    -0.4060330
  C        3.2195680    -0.8924030    -0.0547570
  C       -3.2308135    -0.9082897    -0.0501631
  H        1.3139090     0.4360540     1.4748590
  H       -1.3139070     0.4360710     1.4748610
  H        0.0000080     2.3782020     0.5982830
  H        0.0000040     1.6360460    -1.0223960
  H       -0.0000100    -1.0431540    -0.8674540
  H       -0.0000130    -1.5954000     0.8282360
  H        2.9313650     1.2434240    -0.2483150
  H        2.0993870     0.2926970    -1.4725700
  H       -2.0994060     0.2927390    -1.4725620
  H       -2.9313940     1.2434200    -0.2482770
  H        2.6724260    -1.8222580    -0.2378450
  H        4.1369510    -0.9193470    -0.6503860
  H        3.5046520    -0.8738050     1.0019030
  H       -3.5045960    -0.8738620     1.0019060
  H       -4.1369540    -0.9193510    -0.6503600
  H       -2.6724020    -1.8222580    -0.2379080
units angstrom
no_reorient  #important for SAPT in psi4, default
symmetry c1  #important for SAPT in psi4, default
}

set PROPERTIES_ORIGIN ["COM"]
properties('MP2/aug-cc-pvtz', properties = ['dipole'])
--------------------------------------------------------------------------

    Molecular point group: c1
  Charge       = 0
  Multiplicity = 1
  Basis Set: AUG-CC-PVTZ
    Blend: AUG-CC-PVTZ
  Basis Set: (AUG-CC-PVTZ AUX)
    Blend: AUG-CC-PVTZ-JKFIT

    Orbital Energies [Eh]
    ---------------------

    Doubly Occupied:

       1A    -11.218344     2A    -11.218297     3A    -11.214173
       4A    -11.213358     5A    -11.211341     6A    -11.210956
       7A    -11.209154     8A    -11.208268     9A     -1.140374
      10A     -1.044472    11A     -1.005858    12A     -0.899749
      13A     -0.891962    14A     -0.841868    15A     -0.768871
      16A     -0.743618    17A     -0.651658    18A     -0.616596
      19A     -0.612369    20A     -0.584854    21A     -0.572017
      22A     -0.536630    23A     -0.530668    24A     -0.523436
      25A     -0.509626    26A     -0.505329    27A     -0.483368
      28A     -0.464773    29A     -0.442234    30A     -0.440178
      31A     -0.421295    32A     -0.406639

  @DF-RHF Final Energy:  -312.34653839934191

   => Energetics <=

    Nuclear Repulsion Energy =            389.8448838671005205
    One-Electron Energy =               -1193.6981794443563558
    Two-Electron Energy =                 491.5067571779139257
    Total Energy =                       -312.3465383993419096
  Basis Set: (AUG-CC-PVTZ AUX)
    Blend: AUG-CC-PVTZ-RI
    Molecular point group: c1

    Geometry (in Angstrom), charge = 0, multiplicity = 1:

       Center              X                  Y                   Z               Mass
    ------------   -----------------  -----------------  -----------------  -----------------
         C            1.078182597340     0.359838772624     0.396719386039    12.000000000000
         C           -1.075776402660     0.359850772624     0.396720386039    12.000000000000
         C            0.001208597340     1.412152772624     0.048286386039    12.000000000000
         C            0.001196597340    -0.728251227376     0.173470386039    12.000000000000
         C            2.360721597340     0.304211772624    -0.412977613961    12.000000000000
         C           -2.358320402660     0.304223772624    -0.412967613961    12.000000000000
         C            3.220773597340    -0.907612227376    -0.061691613961    12.000000000000
         C           -3.229607902660    -0.923498927376    -0.057097713961    12.000000000000
         H            1.315114597340     0.420844772624     1.467924386039     1.007825032230
         H           -1.312701402660     0.420861772624     1.467926386039     1.007825032230
         H            0.001213597340     2.362992772624     0.591348386039     1.007825032230
         H            0.001209597340     1.620836772624    -1.029330613961     1.007825032230
         H            0.001195597340    -1.058363227376    -0.874388613961     1.007825032230
         H            0.001192597340    -1.610609227376     0.821301386039     1.007825032230
         H            2.932570597340     1.228214772624    -0.255249613961     1.007825032230
         H            2.100592597340     0.277487772624    -1.479504613961     1.007825032230
         H           -2.098200402660     0.277529772624    -1.479496613961     1.007825032230
         H           -2.930188402660     1.228210772624    -0.255211613961     1.007825032230
         H            2.673631597340    -1.837467227376    -0.244779613961     1.007825032230
         H            4.138156597340    -0.934556227376    -0.657320613961     1.007825032230
         H            3.505857597340    -0.889014227376     0.994968386039     1.007825032230
         H           -3.503390402660    -0.889071227376     0.994971386039     1.007825032230
         H           -4.135748402660    -0.934560227376    -0.657294613961     1.007825032230
         H           -2.671196402660    -1.837467227376    -0.244842613961     1.007825032230

  Basis Set: AUG-CC-PVTZ
    Blend: AUG-CC-PVTZ
  Basis Set: (AUG-CC-PVTZ AUX)
    Blend: AUG-CC-PVTZ-JKFIT
	 Reference Energy          =    -312.3465383993419096 [Eh]
	 Singles Energy            =      -0.0000000000000000 [Eh]
	 Same-Spin Energy          =      -0.3389769907570744 [Eh]
	 Opposite-Spin Energy      =      -1.2314655546250619 [Eh]
	 Correlation Energy        =      -1.5704425453821362 [Eh]
	 Total Energy              =    -313.9169809447240596 [Eh]

	 ================> DF-SCS-MP2 Energies <==================
	-----------------------------------------------------------
	 SCS Same-Spin Scale       =       0.3333333333333333 [-]
	 SCS Opposite-Spin Scale   =       1.2000000000000000 [-]
	 SCS Same-Spin Energy      =      -0.1129923302523581 [Eh]
	 SCS Opposite-Spin Energy  =      -1.4777586655500743 [Eh]
	 SCS Correlation Energy    =      -1.5907509958024324 [Eh]
	 SCS Total Energy          =    -313.9372893951443189 [Eh]
	-----------------------------------------------------------

  Dipole Moment: [D]
     X:     0.0007      Y:     0.0752      Z:     0.0843     Total:     0.1129

*** Psi4 exiting successfully. Buy a developer a beer!
