                               Psi4 1.4a3.dev225

  ==> Input File <==

--------------------------------------------------------------------------
#psi4
#
memory 32 gb

molecule  {
0 1
  C        1.0769770     0.3750480     0.4036540
  C       -1.0769820     0.3750600     0.4036550
  C        0.0000030     1.4273620     0.0552210
  C       -0.0696191    -0.6427126     0.1948347
  C        2.3595160     0.3194210    -0.4060430
  C       -2.3595260     0.3194330    -0.4060330
  C        3.2195680    -0.8924030    -0.0547570
  C       -3.2195490    -0.8924170    -0.0547640
  H        1.3139090     0.4360540     1.4748590
  H       -1.3139070     0.4360710     1.4748610
  H        0.0000080     2.3782020     0.5982830
  H        0.0000040     1.6360460    -1.0223960
  H       -0.0000100    -1.0431540    -0.8674540
  H       -0.0000130    -1.5954000     0.8282360
  H        2.9313650     1.2434240    -0.2483150
  H        2.0993870     0.2926970    -1.4725700
  H       -2.0994060     0.2927390    -1.4725620
  H       -2.9313940     1.2434200    -0.2482770
  H        2.6724260    -1.8222580    -0.2378450
  H        4.1369510    -0.9193470    -0.6503860
  H        3.5046520    -0.8738050     1.0019030
  H       -3.5045960    -0.8738620     1.0019060
  H       -4.1369540    -0.9193510    -0.6503600
  H       -2.6724020    -1.8222580    -0.2379080
units angstrom
no_reorient  #important for SAPT in psi4, default
symmetry c1  #important for SAPT in psi4, default
}

set PROPERTIES_ORIGIN ["COM"]
properties('MP2/aug-cc-pvtz', properties = ['dipole'])
--------------------------------------------------------------------------

    Molecular point group: c1
  Charge       = 0
  Multiplicity = 1
  Basis Set: AUG-CC-PVTZ
    Blend: AUG-CC-PVTZ
  Basis Set: (AUG-CC-PVTZ AUX)
    Blend: AUG-CC-PVTZ-JKFIT

    Orbital Energies [Eh]
    ---------------------

    Doubly Occupied:

       1A    -11.216905     2A    -11.216249     3A    -11.214944
       4A    -11.213990     5A    -11.213067     6A    -11.212093
       7A    -11.209707     8A    -11.209524     9A     -1.154762
      10A     -1.047670    11A     -1.010307    12A     -0.903827
      13A     -0.887072    14A     -0.842123    15A     -0.773587
      16A     -0.741237    17A     -0.651234    18A     -0.619523
      19A     -0.615089    20A     -0.585327    21A     -0.572922
      22A     -0.539252    23A     -0.527161    24A     -0.519100
      25A     -0.514131    26A     -0.504650    27A     -0.482738
      28A     -0.465046    29A     -0.454083    30A     -0.432987
      31A     -0.420088    32A     -0.405437

  @DF-RHF Final Energy:  -312.33577239553102

   => Energetics <=

    Nuclear Repulsion Energy =            391.2703282223747010
    One-Electron Energy =               -1196.4605411007064504
    Two-Electron Energy =                 492.8544404828007259
    Total Energy =                       -312.3357723955310234
  Basis Set: (AUG-CC-PVTZ AUX)
    Blend: AUG-CC-PVTZ-RI
    Molecular point group: c1

    Geometry (in Angstrom), charge = 0, multiplicity = 1:

       Center              X                  Y                   Z               Mass
    ------------   -----------------  -----------------  -----------------  -----------------
         C            1.084426931324     0.350613146313     0.395667476214    12.000000000000
         C           -1.069532068676     0.350625146313     0.395668476214    12.000000000000
         C            0.007452931324     1.402927146313     0.047234476214    12.000000000000
         C           -0.062169168676    -0.667147453687     0.186848176214    12.000000000000
         C            2.366965931324     0.294986146313    -0.414029523786    12.000000000000
         C           -2.352076068676     0.294998146313    -0.414019523786    12.000000000000
         C            3.227017931324    -0.916837853687    -0.062743523786    12.000000000000
         C           -3.212099068676    -0.916851853687    -0.062750523786    12.000000000000
         H            1.321358931324     0.411619146313     1.466872476214     1.007825032230
         H           -1.306457068676     0.411636146313     1.466874476214     1.007825032230
         H            0.007457931324     2.353767146313     0.590296476214     1.007825032230
         H            0.007453931324     1.611611146313    -1.030382523786     1.007825032230
         H            0.007439931324    -1.067588853687    -0.875440523786     1.007825032230
         H            0.007436931324    -1.619834853687     0.820249476214     1.007825032230
         H            2.938814931324     1.218989146313    -0.256301523786     1.007825032230
         H            2.106836931324     0.268262146313    -1.480556523786     1.007825032230
         H           -2.091956068676     0.268304146313    -1.480548523786     1.007825032230
         H           -2.923944068676     1.218985146313    -0.256263523786     1.007825032230
         H            2.679875931324    -1.846692853687    -0.245831523786     1.007825032230
         H            4.144400931324    -0.943781853687    -0.658372523786     1.007825032230
         H            3.512101931324    -0.898239853687     0.993916476214     1.007825032230
         H           -3.497146068676    -0.898296853687     0.993919476214     1.007825032230
         H           -4.129504068676    -0.943785853687    -0.658346523786     1.007825032230
         H           -2.664952068676    -1.846692853687    -0.245894523786     1.007825032230

  Basis Set: AUG-CC-PVTZ
    Blend: AUG-CC-PVTZ
  Basis Set: (AUG-CC-PVTZ AUX)
    Blend: AUG-CC-PVTZ-JKFIT
	 Reference Energy          =    -312.3357723955310234 [Eh]
	 Singles Energy            =      -0.0000000000000000 [Eh]
	 Same-Spin Energy          =      -0.3398962098646763 [Eh]
	 Opposite-Spin Energy      =      -1.2321901647080367 [Eh]
	 Correlation Energy        =      -1.5720863745727129 [Eh]
	 Total Energy              =    -313.9078587701037577 [Eh]

	 ================> DF-SCS-MP2 Energies <==================
	-----------------------------------------------------------
	 SCS Same-Spin Scale       =       0.3333333333333333 [-]
	 SCS Opposite-Spin Scale   =       1.2000000000000000 [-]
	 SCS Same-Spin Energy      =      -0.1132987366215588 [Eh]
	 SCS Opposite-Spin Energy  =      -1.4786281976496440 [Eh]
	 SCS Correlation Energy    =      -1.5919269342712028 [Eh]
	 SCS Total Energy          =    -313.9276993298022376 [Eh]
	-----------------------------------------------------------

  Dipole Moment: [D]
     X:     0.0303      Y:     0.1096      Z:     0.0620     Total:     0.1295

*** Psi4 exiting successfully. Buy a developer a beer!
