                               Psi4 1.4a3.dev225

  ==> Input File <==

--------------------------------------------------------------------------
#psi4
#
memory 32 gb

molecule  {
0 1
  C        1.0769770     0.3750480     0.4036540
  C       -1.0769820     0.3750600     0.4036550
  C        0.0000030     1.4273620     0.0552210
  C       -0.0000090    -0.7130420     0.1804050
  C        2.3595160     0.3194210    -0.4060430
  C       -2.3595260     0.3194330    -0.4060330
  C        3.2195680    -0.8924030    -0.0547570
  C       -3.2195490    -0.8924170    -0.0547640
  H        1.3139090     0.4360540     1.4748590
  H       -1.3139070     0.4360710     1.4748610
  H        0.0000080     2.3782020     0.5982830
  H        0.0000040     1.6360460    -1.0223960
  H       -0.0000100    -1.0431540    -0.8674540
  H       -0.0000130    -1.5954000     0.8282360
  H        2.9313650     1.2434240    -0.2483150
  H        2.0993870     0.2926970    -1.4725700
  H       -2.0994060     0.2927390    -1.4725620
  H       -2.9313940     1.2434200    -0.2482770
  H        2.6724260    -1.8222580    -0.2378450
  H        4.1369510    -0.9193470    -0.6503860
  H        3.5046520    -0.8738050     1.0019030
  H       -3.5212867    -0.8399846     0.9961179
  H       -4.1369540    -0.9193510    -0.6503600
  H       -2.6724020    -1.8222580    -0.2379080
units angstrom
no_reorient  #important for SAPT in psi4, default
symmetry c1  #important for SAPT in psi4, default
}

set PROPERTIES_ORIGIN ["COM"]
properties('MP2/aug-cc-pvtz', properties = ['dipole'])
--------------------------------------------------------------------------

    Molecular point group: c1
  Charge       = 0
  Multiplicity = 1
  Basis Set: AUG-CC-PVTZ
    Blend: AUG-CC-PVTZ
  Basis Set: (AUG-CC-PVTZ AUX)
    Blend: AUG-CC-PVTZ-JKFIT

    Orbital Energies [Eh]
    ---------------------

    Doubly Occupied:

       1A    -11.218354     2A    -11.218301     3A    -11.213367
       4A    -11.213131     5A    -11.211382     6A    -11.210962
       7A    -11.209223     8A    -11.209157     9A     -1.140609
      10A     -1.046024    11A     -1.007507    12A     -0.899123
      13A     -0.891972    14A     -0.840787    15A     -0.768787
      16A     -0.743712    17A     -0.651764    18A     -0.617614
      19A     -0.612336    20A     -0.585654    21A     -0.572064
      22A     -0.536006    23A     -0.530661    24A     -0.524867
      25A     -0.508857    26A     -0.504321    27A     -0.482757
      28A     -0.463781    29A     -0.442022    30A     -0.441172
      31A     -0.421616    32A     -0.406842

  @DF-RHF Final Energy:  -312.34655981176616

   => Energetics <=

    Nuclear Repulsion Energy =            390.1206102614451083
    One-Electron Energy =               -1194.2448815616298816
    Two-Electron Energy =                 491.7777114884186176
    Total Energy =                       -312.3465598117661557
  Basis Set: (AUG-CC-PVTZ AUX)
    Blend: AUG-CC-PVTZ-RI
    Molecular point group: c1

    Geometry (in Angstrom), charge = 0, multiplicity = 1:

       Center              X                  Y                   Z               Mass
    ------------   -----------------  -----------------  -----------------  -----------------
         C            1.077127056800     0.357835521876     0.397263814872    12.000000000000
         C           -1.076831943200     0.357847521876     0.397264814872    12.000000000000
         C            0.000153056800     1.410149521876     0.048830814872    12.000000000000
         C            0.000141056800    -0.730254478124     0.174014814872    12.000000000000
         C            2.359666056800     0.302208521876    -0.412433185128    12.000000000000
         C           -2.359375943200     0.302220521876    -0.412423185128    12.000000000000
         C            3.219718056800    -0.909615478124    -0.061147185128    12.000000000000
         C           -3.219398943200    -0.909629478124    -0.061154185128    12.000000000000
         H            1.314059056800     0.418841521876     1.468468814872     1.007825032230
         H           -1.313756943200     0.418858521876     1.468470814872     1.007825032230
         H            0.000158056800     2.360989521876     0.591892814872     1.007825032230
         H            0.000154056800     1.618833521876    -1.028786185128     1.007825032230
         H            0.000140056800    -1.060366478124    -0.873844185128     1.007825032230
         H            0.000137056800    -1.612612478124     0.821845814872     1.007825032230
         H            2.931515056800     1.226211521876    -0.254705185128     1.007825032230
         H            2.099537056800     0.275484521876    -1.478960185128     1.007825032230
         H           -2.099255943200     0.275526521876    -1.478952185128     1.007825032230
         H           -2.931243943200     1.226207521876    -0.254667185128     1.007825032230
         H            2.672576056800    -1.839470478124    -0.244235185128     1.007825032230
         H            4.137101056800    -0.936559478124    -0.656776185128     1.007825032230
         H            3.504802056800    -0.891017478124     0.995512814872     1.007825032230
         H           -3.521136643200    -0.857197078124     0.989727714872     1.007825032230
         H           -4.136803943200    -0.936563478124    -0.656750185128     1.007825032230
         H           -2.672251943200    -1.839470478124    -0.244298185128     1.007825032230

  Basis Set: AUG-CC-PVTZ
    Blend: AUG-CC-PVTZ
  Basis Set: (AUG-CC-PVTZ AUX)
    Blend: AUG-CC-PVTZ-JKFIT
	 Reference Energy          =    -312.3465598117661557 [Eh]
	 Singles Energy            =      -0.0000000000000000 [Eh]
	 Same-Spin Energy          =      -0.3390909767888767 [Eh]
	 Opposite-Spin Energy      =      -1.2315497244980280 [Eh]
	 Correlation Energy        =      -1.5706407012869046 [Eh]
	 Total Energy              =    -313.9172005130530465 [Eh]

	 ================> DF-SCS-MP2 Energies <==================
	-----------------------------------------------------------
	 SCS Same-Spin Scale       =       0.3333333333333333 [-]
	 SCS Opposite-Spin Scale   =       1.2000000000000000 [-]
	 SCS Same-Spin Energy      =      -0.1130303255962922 [Eh]
	 SCS Opposite-Spin Energy  =      -1.4778596693976336 [Eh]
	 SCS Correlation Energy    =      -1.5908899949939257 [Eh]
	 SCS Total Energy          =    -313.9374498067600712 [Eh]
	-----------------------------------------------------------

  Dipole Moment: [D]
     X:    -0.0066      Y:     0.0803      Z:     0.0804     Total:     0.1138

*** Psi4 exiting successfully. Buy a developer a beer!
