                               Psi4 1.4a3.dev225

  ==> Input File <==

--------------------------------------------------------------------------
#psi4
#
memory 32 gb

molecule  {
0 1
  C        1.0769770     0.3750480     0.4036540
  C       -1.0769820     0.3750600     0.4036550
  C        0.0000030     1.4273620     0.0552210
  C       -0.0000090    -0.7130420     0.1804050
  C        2.3595160     0.3194210    -0.4060430
  C       -2.3595260     0.3194330    -0.4060330
  C        3.2195680    -0.8924030    -0.0547570
  C       -3.2195490    -0.8924170    -0.0547640
  H        1.3139090     0.4360540     1.4748590
  H       -1.3139070     0.4360710     1.4748610
  H        0.0000080     2.3782020     0.5982830
  H        0.0000040     1.6360460    -1.0223960
  H       -0.0000100    -1.0491635    -0.8865298
  H       -0.0000130    -1.5954000     0.8282360
  H        2.9313650     1.2434240    -0.2483150
  H        2.0993870     0.2926970    -1.4725700
  H       -2.0994060     0.2927390    -1.4725620
  H       -2.9313940     1.2434200    -0.2482770
  H        2.6724260    -1.8222580    -0.2378450
  H        4.1369510    -0.9193470    -0.6503860
  H        3.5046520    -0.8738050     1.0019030
  H       -3.5045960    -0.8738620     1.0019060
  H       -4.1369540    -0.9193510    -0.6503600
  H       -2.6724020    -1.8222580    -0.2379080
units angstrom
no_reorient  #important for SAPT in psi4, default
symmetry c1  #important for SAPT in psi4, default
}

set PROPERTIES_ORIGIN ["COM"]
properties('MP2/aug-cc-pvtz', properties = ['dipole'])
--------------------------------------------------------------------------

    Molecular point group: c1
  Charge       = 0
  Multiplicity = 1
  Basis Set: AUG-CC-PVTZ
    Blend: AUG-CC-PVTZ
  Basis Set: (AUG-CC-PVTZ AUX)
    Blend: AUG-CC-PVTZ-JKFIT

    Orbital Energies [Eh]
    ---------------------

    Doubly Occupied:

       1A    -11.218628     2A    -11.218575     3A    -11.213873
       4A    -11.213398     5A    -11.213395     6A    -11.211072
       7A    -11.209148     8A    -11.209148     9A     -1.140500
      10A     -1.045996    11A     -1.007387    12A     -0.899233
      13A     -0.890741    14A     -0.841039    15A     -0.769175
      16A     -0.742390    17A     -0.651917    18A     -0.616881
      19A     -0.612566    20A     -0.584463    21A     -0.572235
      22A     -0.537059    23A     -0.528539    24A     -0.524566
      25A     -0.507769    26A     -0.505378    27A     -0.482212
      28A     -0.464315    29A     -0.441628    30A     -0.441313
      31A     -0.421768    32A     -0.407023

  @DF-RHF Final Energy:  -312.34618112497225

   => Energetics <=

    Nuclear Repulsion Energy =            390.0248955039501197
    One-Electron Energy =               -1194.0554924814146034
    Two-Electron Energy =                 491.6844158524922364
    Total Energy =                       -312.3461811249722473
  Basis Set: (AUG-CC-PVTZ AUX)
    Blend: AUG-CC-PVTZ-RI
    Molecular point group: c1

    Geometry (in Angstrom), charge = 0, multiplicity = 1:

       Center              X                  Y                   Z               Mass
    ------------   -----------------  -----------------  -----------------  -----------------
         C            1.076977034279     0.358194040890     0.397383249902    12.000000000000
         C           -1.076981965721     0.358206040890     0.397384249902    12.000000000000
         C            0.000003034279     1.410508040890     0.048950249902    12.000000000000
         C           -0.000008965721    -0.729895959110     0.174134249902    12.000000000000
         C            2.359516034279     0.302567040890    -0.412313750098    12.000000000000
         C           -2.359525965721     0.302579040890    -0.412303750098    12.000000000000
         C            3.219568034279    -0.909256959110    -0.061027750098    12.000000000000
         C           -3.219548965721    -0.909270959110    -0.061034750098    12.000000000000
         H            1.313909034279     0.419200040890     1.468588249902     1.007825032230
         H           -1.313906965721     0.419217040890     1.468590249902     1.007825032230
         H            0.000008034279     2.361348040890     0.592012249902     1.007825032230
         H            0.000004034279     1.619192040890    -1.028666750098     1.007825032230
         H           -0.000009965721    -1.066017459110    -0.892800550098     1.007825032230
         H           -0.000012965721    -1.612253959110     0.821965249902     1.007825032230
         H            2.931365034279     1.226570040890    -0.254585750098     1.007825032230
         H            2.099387034279     0.275843040890    -1.478840750098     1.007825032230
         H           -2.099405965721     0.275885040890    -1.478832750098     1.007825032230
         H           -2.931393965721     1.226566040890    -0.254547750098     1.007825032230
         H            2.672426034279    -1.839111959110    -0.244115750098     1.007825032230
         H            4.136951034279    -0.936200959110    -0.656656750098     1.007825032230
         H            3.504652034279    -0.890658959110     0.995632249902     1.007825032230
         H           -3.504595965721    -0.890715959110     0.995635249902     1.007825032230
         H           -4.136953965721    -0.936204959110    -0.656630750098     1.007825032230
         H           -2.672401965721    -1.839111959110    -0.244178750098     1.007825032230

  Basis Set: AUG-CC-PVTZ
    Blend: AUG-CC-PVTZ
  Basis Set: (AUG-CC-PVTZ AUX)
    Blend: AUG-CC-PVTZ-JKFIT
	 Reference Energy          =    -312.3461811249722473 [Eh]
	 Singles Energy            =      -0.0000000000000000 [Eh]
	 Same-Spin Energy          =      -0.3391026078709027 [Eh]
	 Opposite-Spin Energy      =      -1.2316681664126767 [Eh]
	 Correlation Energy        =      -1.5707707742835795 [Eh]
	 Total Energy              =    -313.9169518992558210 [Eh]

	 ================> DF-SCS-MP2 Energies <==================
	-----------------------------------------------------------
	 SCS Same-Spin Scale       =       0.3333333333333333 [-]
	 SCS Opposite-Spin Scale   =       1.2000000000000000 [-]
	 SCS Same-Spin Energy      =      -0.1130342026236342 [Eh]
	 SCS Opposite-Spin Energy  =      -1.4780017996952119 [Eh]
	 SCS Correlation Energy    =      -1.5910360023188461 [Eh]
	 SCS Total Energy          =    -313.9372171272910919 [Eh]
	-----------------------------------------------------------

  Dipole Moment: [D]
     X:    -0.0000      Y:     0.0810      Z:     0.0949     Total:     0.1247

*** Psi4 exiting successfully. Buy a developer a beer!
