                               Psi4 1.4a3.dev225

  ==> Input File <==

--------------------------------------------------------------------------
#psi4
#
memory 32 gb

molecule  {
0 1
  C        1.0769770     0.3750480     0.4036540
  C       -1.0769820     0.3750600     0.4036550
  C        0.0000030     1.4273620     0.0552210
  C       -0.0000090    -0.7130420     0.1804050
  C        2.3595160     0.3194210    -0.4060430
  C       -2.3595260     0.3194330    -0.4060330
  C        3.2195680    -0.8924030    -0.0547570
  C       -3.2195490    -0.8924170    -0.0547640
  H        1.3139090     0.4360540     1.4748590
  H       -1.3139070     0.4360710     1.4748610
  H        0.0000080     2.3782020     0.5982830
  H        0.0000040     1.6360460    -1.0223960
  H       -0.0000100    -1.0431540    -0.8674540
  H       -0.0000130    -1.5954000     0.8282360
  H        2.9313650     1.2434240    -0.2483150
  H        2.0993870     0.2926970    -1.4725700
  H       -2.0994060     0.2927390    -1.4725620
  H       -2.9313940     1.2434200    -0.2482770
  H        2.6724260    -1.8222580    -0.2378450
  H        4.1369510    -0.9193470    -0.6503860
  H        3.5046520    -0.8738050     1.0019030
  H       -3.4875581    -0.9077620     1.0064067
  H       -4.1369540    -0.9193510    -0.6503600
  H       -2.6724020    -1.8222580    -0.2379080
units angstrom
no_reorient  #important for SAPT in psi4, default
symmetry c1  #important for SAPT in psi4, default
}

set PROPERTIES_ORIGIN ["COM"]
properties('MP2/aug-cc-pvtz', properties = ['dipole'])
--------------------------------------------------------------------------

    Molecular point group: c1
  Charge       = 0
  Multiplicity = 1
  Basis Set: AUG-CC-PVTZ
    Blend: AUG-CC-PVTZ
  Basis Set: (AUG-CC-PVTZ AUX)
    Blend: AUG-CC-PVTZ-JKFIT

    Orbital Energies [Eh]
    ---------------------

    Doubly Occupied:

       1A    -11.218412     2A    -11.218359     3A    -11.213635
       4A    -11.213391     5A    -11.211410     6A    -11.211004
       7A    -11.209176     8A    -11.209113     9A     -1.140648
      10A     -1.045920    11A     -1.007335    12A     -0.899234
      13A     -0.892024    14A     -0.841275    15A     -0.769367
      16A     -0.743785    17A     -0.651747    18A     -0.616230
      19A     -0.612992    20A     -0.583766    21A     -0.572371
      22A     -0.538033    23A     -0.530719    24A     -0.524711
      25A     -0.506655    26A     -0.506456    27A     -0.481677
      28A     -0.464664    29A     -0.442204    30A     -0.441141
      31A     -0.421608    32A     -0.406894

  @DF-RHF Final Energy:  -312.34659698177848

   => Energetics <=

    Nuclear Repulsion Energy =            390.1141081131197552
    One-Electron Energy =               -1194.2294954399671951
    Two-Electron Energy =                 491.7687903450689646
    Total Energy =                       -312.3465969817784753
  Basis Set: (AUG-CC-PVTZ AUX)
    Blend: AUG-CC-PVTZ-RI
    Molecular point group: c1

    Geometry (in Angstrom), charge = 0, multiplicity = 1:

       Center              X                  Y                   Z               Mass
    ------------   -----------------  -----------------  -----------------  -----------------
         C            1.076823890988     0.358444731581     0.397171335125    12.000000000000
         C           -1.077135109012     0.358456731581     0.397172335125    12.000000000000
         C           -0.000150109012     1.410758731581     0.048738335125    12.000000000000
         C           -0.000162109012    -0.729645268419     0.173922335125    12.000000000000
         C            2.359362890988     0.302817731581    -0.412525664875    12.000000000000
         C           -2.359679109012     0.302829731581    -0.412515664875    12.000000000000
         C            3.219414890988    -0.909006268419    -0.061239664875    12.000000000000
         C           -3.219702109012    -0.909020268419    -0.061246664875    12.000000000000
         H            1.313755890988     0.419450731581     1.468376335125     1.007825032230
         H           -1.314060109012     0.419467731581     1.468378335125     1.007825032230
         H           -0.000145109012     2.361598731581     0.591800335125     1.007825032230
         H           -0.000149109012     1.619442731581    -1.028878664875     1.007825032230
         H           -0.000163109012    -1.059757268419    -0.873936664875     1.007825032230
         H           -0.000166109012    -1.612003268419     0.821753335125     1.007825032230
         H            2.931211890988     1.226820731581    -0.254797664875     1.007825032230
         H            2.099233890988     0.276093731581    -1.479052664875     1.007825032230
         H           -2.099559109012     0.276135731581    -1.479044664875     1.007825032230
         H           -2.931547109012     1.226816731581    -0.254759664875     1.007825032230
         H            2.672272890988    -1.838861268419    -0.244327664875     1.007825032230
         H            4.136797890988    -0.935950268419    -0.656868664875     1.007825032230
         H            3.504498890988    -0.890408268419     0.995420335125     1.007825032230
         H           -3.487711209012    -0.924365268419     0.999924035125     1.007825032230
         H           -4.137107109012    -0.935954268419    -0.656842664875     1.007825032230
         H           -2.672555109012    -1.838861268419    -0.244390664875     1.007825032230

  Basis Set: AUG-CC-PVTZ
    Blend: AUG-CC-PVTZ
  Basis Set: (AUG-CC-PVTZ AUX)
    Blend: AUG-CC-PVTZ-JKFIT
	 Reference Energy          =    -312.3465969817784753 [Eh]
	 Singles Energy            =      -0.0000000000000000 [Eh]
	 Same-Spin Energy          =      -0.3390814644031492 [Eh]
	 Opposite-Spin Energy      =      -1.2315117037755579 [Eh]
	 Correlation Energy        =      -1.5705931681787071 [Eh]
	 Total Energy              =    -313.9171901499572073 [Eh]

	 ================> DF-SCS-MP2 Energies <==================
	-----------------------------------------------------------
	 SCS Same-Spin Scale       =       0.3333333333333333 [-]
	 SCS Opposite-Spin Scale   =       1.2000000000000000 [-]
	 SCS Same-Spin Energy      =      -0.1130271548010497 [Eh]
	 SCS Opposite-Spin Energy  =      -1.4778140445306693 [Eh]
	 SCS Correlation Energy    =      -1.5908411993317191 [Eh]
	 SCS Total Energy          =    -313.9374381811101671 [Eh]
	-----------------------------------------------------------

  Dipole Moment: [D]
     X:     0.0071      Y:     0.0677      Z:     0.0853     Total:     0.1092

*** Psi4 exiting successfully. Buy a developer a beer!
