                               Psi4 1.4a3.dev225

  ==> Input File <==

--------------------------------------------------------------------------
#psi4
#
memory 32 gb

molecule  {
0 1
  C        1.0769770     0.3750480     0.4036540
  C       -1.0769820     0.3750600     0.4036550
  C        0.0000030     1.4273620     0.0552210
  C       -0.0000090    -0.7130420     0.1804050
  C        2.3595160     0.3194210    -0.4060430
  C       -2.3595260     0.3194330    -0.4060330
  C        3.2195680    -0.8924030    -0.0547570
  C       -3.2195490    -0.8924170    -0.0547640
  H        1.3139090     0.4360540     1.4748590
  H       -1.3139070     0.4360710     1.4748610
  H        0.0000080     2.3782020     0.5982830
  H        0.0000040     1.6360460    -1.0223960
  H       -0.0000100    -1.0431540    -0.8674540
  H       -0.0000130    -1.5954000     0.8282360
  H        2.9313650     1.2434240    -0.2483150
  H        2.0993870     0.2926970    -1.4725700
  H       -2.0994060     0.2927390    -1.4725620
  H       -2.9313940     1.2434200    -0.2482770
  H        2.6724260    -1.8222580    -0.2378450
  H        4.1369510    -0.9193470    -0.6503860
  H        3.5046520    -0.8738050     1.0019030
  H       -3.5098042    -0.8735230     1.0212130
  H       -4.1369540    -0.9193510    -0.6503600
  H       -2.6724020    -1.8222580    -0.2379080
units angstrom
no_reorient  #important for SAPT in psi4, default
symmetry c1  #important for SAPT in psi4, default
}

set PROPERTIES_ORIGIN ["COM"]
properties('MP2/aug-cc-pvtz', properties = ['dipole'])
--------------------------------------------------------------------------

    Molecular point group: c1
  Charge       = 0
  Multiplicity = 1
  Basis Set: AUG-CC-PVTZ
    Blend: AUG-CC-PVTZ
  Basis Set: (AUG-CC-PVTZ AUX)
    Blend: AUG-CC-PVTZ-JKFIT

    Orbital Energies [Eh]
    ---------------------

    Doubly Occupied:

       1A    -11.218413     2A    -11.218371     3A    -11.213661
       4A    -11.213407     5A    -11.211662     6A    -11.211434
       7A    -11.211020     8A    -11.209188     9A     -1.140659
      10A     -1.045793    11A     -1.007052    12A     -0.898572
      13A     -0.892030    14A     -0.840408    15A     -0.768849
      16A     -0.743743    17A     -0.651782    18A     -0.616624
      19A     -0.612673    20A     -0.583903    21A     -0.572186
      22A     -0.536207    23A     -0.530731    24A     -0.524849
      25A     -0.507571    26A     -0.505128    27A     -0.481641
      28A     -0.463919    29A     -0.442150    30A     -0.441250
      31A     -0.421666    32A     -0.406943

  @DF-RHF Final Energy:  -312.34623726570368

   => Energetics <=

    Nuclear Repulsion Energy =            390.0360643152585567
    One-Electron Energy =               -1194.0776347240678206
    Two-Electron Energy =                 491.6953331431056426
    Total Energy =                       -312.3462372657036781
  Basis Set: (AUG-CC-PVTZ AUX)
    Blend: AUG-CC-PVTZ-RI
    Molecular point group: c1

    Geometry (in Angstrom), charge = 0, multiplicity = 1:

       Center              X                  Y                   Z               Mass
    ------------   -----------------  -----------------  -----------------  -----------------
         C            1.077023847611     0.358136978096     0.397038250326    12.000000000000
         C           -1.076935152389     0.358148978096     0.397039250326    12.000000000000
         C            0.000049847611     1.410450978096     0.048605250326    12.000000000000
         C            0.000037847611    -0.729953021904     0.173789250326    12.000000000000
         C            2.359562847611     0.302509978096    -0.412658749674    12.000000000000
         C           -2.359479152389     0.302521978096    -0.412648749674    12.000000000000
         C            3.219614847611    -0.909314021904    -0.061372749674    12.000000000000
         C           -3.219502152389    -0.909328021904    -0.061379749674    12.000000000000
         H            1.313955847611     0.419142978096     1.468243250326     1.007825032230
         H           -1.313860152389     0.419159978096     1.468245250326     1.007825032230
         H            0.000054847611     2.361290978096     0.591667250326     1.007825032230
         H            0.000050847611     1.619134978096    -1.029011749674     1.007825032230
         H            0.000036847611    -1.060065021904    -0.874069749674     1.007825032230
         H            0.000033847611    -1.612311021904     0.821620250326     1.007825032230
         H            2.931411847611     1.226512978096    -0.254930749674     1.007825032230
         H            2.099433847611     0.275785978096    -1.479185749674     1.007825032230
         H           -2.099359152389     0.275827978096    -1.479177749674     1.007825032230
         H           -2.931347152389     1.226508978096    -0.254892749674     1.007825032230
         H            2.672472847611    -1.839169021904    -0.244460749674     1.007825032230
         H            4.136997847611    -0.936258021904    -0.657001749674     1.007825032230
         H            3.504698847611    -0.890716021904     0.995287250326     1.007825032230
         H           -3.509757352389    -0.890434021904     1.014597250326     1.007825032230
         H           -4.136907152389    -0.936262021904    -0.656975749674     1.007825032230
         H           -2.672355152389    -1.839169021904    -0.244523749674     1.007825032230

  Basis Set: AUG-CC-PVTZ
    Blend: AUG-CC-PVTZ
  Basis Set: (AUG-CC-PVTZ AUX)
    Blend: AUG-CC-PVTZ-JKFIT
	 Reference Energy          =    -312.3462372657036781 [Eh]
	 Singles Energy            =      -0.0000000000000000 [Eh]
	 Same-Spin Energy          =      -0.3390687865782097 [Eh]
	 Opposite-Spin Energy      =      -1.2316344404870199 [Eh]
	 Correlation Energy        =      -1.5707032270652297 [Eh]
	 Total Energy              =    -313.9169404927689015 [Eh]

	 ================> DF-SCS-MP2 Energies <==================
	-----------------------------------------------------------
	 SCS Same-Spin Scale       =       0.3333333333333333 [-]
	 SCS Opposite-Spin Scale   =       1.2000000000000000 [-]
	 SCS Same-Spin Energy      =      -0.1130229288594032 [Eh]
	 SCS Opposite-Spin Energy  =      -1.4779613285844238 [Eh]
	 SCS Correlation Energy    =      -1.5909842574438269 [Eh]
	 SCS Total Energy          =    -313.9372215231475138 [Eh]
	-----------------------------------------------------------

  Dipole Moment: [D]
     X:     0.0063      Y:     0.0768      Z:     0.0705     Total:     0.1045

*** Psi4 exiting successfully. Buy a developer a beer!
