                               Psi4 1.4a3.dev225

  ==> Input File <==

--------------------------------------------------------------------------
#psi4
#
memory 32 gb

molecule  {
0 1
  C        1.0769770     0.3750480     0.4036540
  C       -1.0769820     0.3750600     0.4036550
  C        0.0000030     1.4273620     0.0552210
  C       -0.0000090    -0.7130420     0.1804050
  C        2.3595160     0.3194210    -0.4060430
  C       -2.3595260     0.3194330    -0.4060330
  C        3.1069191    -0.7336793    -0.1007681
  C       -3.2195490    -0.8924170    -0.0547640
  H        1.3139090     0.4360540     1.4748590
  H       -1.3139070     0.4360710     1.4748610
  H        0.0000080     2.3782020     0.5982830
  H        0.0000040     1.6360460    -1.0223960
  H       -0.0000100    -1.0431540    -0.8674540
  H       -0.0000130    -1.5954000     0.8282360
  H        2.9313650     1.2434240    -0.2483150
  H        2.0993870     0.2926970    -1.4725700
  H       -2.0994060     0.2927390    -1.4725620
  H       -2.9313940     1.2434200    -0.2482770
  H        2.6724260    -1.8222580    -0.2378450
  H        4.1369510    -0.9193470    -0.6503860
  H        3.5046520    -0.8738050     1.0019030
  H       -3.5045960    -0.8738620     1.0019060
  H       -4.1369540    -0.9193510    -0.6503600
  H       -2.6724020    -1.8222580    -0.2379080
units angstrom
no_reorient  #important for SAPT in psi4, default
symmetry c1  #important for SAPT in psi4, default
}

set PROPERTIES_ORIGIN ["COM"]
properties('MP2/aug-cc-pvtz', properties = ['dipole'])
--------------------------------------------------------------------------

    Molecular point group: c1
  Charge       = 0
  Multiplicity = 1
  Basis Set: AUG-CC-PVTZ
    Blend: AUG-CC-PVTZ
  Basis Set: (AUG-CC-PVTZ AUX)
    Blend: AUG-CC-PVTZ-JKFIT

    Orbital Energies [Eh]
    ---------------------

    Doubly Occupied:

       1A    -11.223879     2A    -11.220208     3A    -11.219052
       4A    -11.213926     5A    -11.212477     6A    -11.211816
       7A    -11.209523     8A    -11.203980     9A     -1.146298
      10A     -1.076194    11A     -1.019808    12A     -0.896118
      13A     -0.892506    14A     -0.829383    15A     -0.770352
      16A     -0.745863    17A     -0.653893    18A     -0.624534
      19A     -0.618117    20A     -0.598108    21A     -0.586485
      22A     -0.555414    23A     -0.531634    24A     -0.528260
      25A     -0.502835    26A     -0.490602    27A     -0.461396
      28A     -0.455995    29A     -0.441428    30A     -0.434400
      31A     -0.422167    32A     -0.402869

  @DF-RHF Final Energy:  -312.29725796681709

   => Energetics <=

    Nuclear Repulsion Energy =            393.0913986558909983
    One-Electron Energy =               -1199.9782732598037001
    Two-Electron Energy =                 494.5896166370956166
    Total Energy =                       -312.2972579668170852
  Basis Set: (AUG-CC-PVTZ AUX)
    Blend: AUG-CC-PVTZ-RI
    Molecular point group: c1

    Geometry (in Angstrom), charge = 0, multiplicity = 1:

       Center              X                  Y                   Z               Mass
    ------------   -----------------  -----------------  -----------------  -----------------
         C            1.089033082284     0.341152903699     0.402136045248    12.000000000000
         C           -1.064925917716     0.341164903699     0.402137045248    12.000000000000
         C            0.012059082284     1.393466903699     0.053703045248    12.000000000000
         C            0.012047082284    -0.746937096301     0.178887045248    12.000000000000
         C            2.371572082284     0.285525903699    -0.407560954752    12.000000000000
         C           -2.347469917716     0.285537903699    -0.407550954752    12.000000000000
         C            3.118975182284    -0.767574396301    -0.102286054752    12.000000000000
         C           -3.207492917716    -0.926312096301    -0.056281954752    12.000000000000
         H            1.325965082284     0.402158903699     1.473341045248     1.007825032230
         H           -1.301850917716     0.402175903699     1.473343045248     1.007825032230
         H            0.012064082284     2.344306903699     0.596765045248     1.007825032230
         H            0.012060082284     1.602150903699    -1.023913954752     1.007825032230
         H            0.012046082284    -1.077049096301    -0.868971954752     1.007825032230
         H            0.012043082284    -1.629295096301     0.826718045248     1.007825032230
         H            2.943421082284     1.209528903699    -0.249832954752     1.007825032230
         H            2.111443082284     0.258801903699    -1.474087954752     1.007825032230
         H           -2.087349917716     0.258843903699    -1.474079954752     1.007825032230
         H           -2.919337917716     1.209524903699    -0.249794954752     1.007825032230
         H            2.684482082284    -1.856153096301    -0.239362954752     1.007825032230
         H            4.149007082284    -0.953242096301    -0.651903954752     1.007825032230
         H            3.516708082284    -0.907700096301     1.000385045248     1.007825032230
         H           -3.492539917716    -0.907757096301     1.000388045248     1.007825032230
         H           -4.124897917716    -0.953246096301    -0.651877954752     1.007825032230
         H           -2.660345917716    -1.856153096301    -0.239425954752     1.007825032230

  Basis Set: AUG-CC-PVTZ
    Blend: AUG-CC-PVTZ
  Basis Set: (AUG-CC-PVTZ AUX)
    Blend: AUG-CC-PVTZ-JKFIT
	 Reference Energy          =    -312.2972579668170852 [Eh]
	 Singles Energy            =      -0.0000000000000000 [Eh]
	 Same-Spin Energy          =      -0.3418422036327112 [Eh]
	 Opposite-Spin Energy      =      -1.2351183682269644 [Eh]
	 Correlation Energy        =      -1.5769605718596755 [Eh]
	 Total Energy              =    -313.8742185386767574 [Eh]

	 ================> DF-SCS-MP2 Energies <==================
	-----------------------------------------------------------
	 SCS Same-Spin Scale       =       0.3333333333333333 [-]
	 SCS Opposite-Spin Scale   =       1.2000000000000000 [-]
	 SCS Same-Spin Energy      =      -0.1139474012109037 [Eh]
	 SCS Opposite-Spin Energy  =      -1.4821420418723572 [Eh]
	 SCS Correlation Energy    =      -1.5960894430832608 [Eh]
	 SCS Total Energy          =    -313.8933474099003433 [Eh]
	-----------------------------------------------------------

  Dipole Moment: [D]
     X:    -0.0721      Y:     0.1359      Z:     0.0524     Total:     0.1625

*** Psi4 exiting successfully. Buy a developer a beer!
