                               Psi4 1.4a3.dev225

  ==> Input File <==

--------------------------------------------------------------------------
#psi4
#
memory 32 gb

molecule  {
0 1
  C        1.0769770     0.3750480     0.4036540
  C       -1.0769820     0.3750600     0.4036550
  C        0.0000030     1.4273620     0.0552210
  C       -0.0000090    -0.7130420     0.1804050
  C        2.3595160     0.3194210    -0.4060430
  C       -2.3426256     0.3201660    -0.3953635
  C        3.2195680    -0.8924030    -0.0547570
  C       -3.2195490    -0.8924170    -0.0547640
  H        1.3139090     0.4360540     1.4748590
  H       -1.3139070     0.4360710     1.4748610
  H        0.0000080     2.3782020     0.5982830
  H        0.0000040     1.6360460    -1.0223960
  H       -0.0000100    -1.0431540    -0.8674540
  H       -0.0000130    -1.5954000     0.8282360
  H        2.9313650     1.2434240    -0.2483150
  H        2.0993870     0.2926970    -1.4725700
  H       -2.0994060     0.2927390    -1.4725620
  H       -2.9313940     1.2434200    -0.2482770
  H        2.6724260    -1.8222580    -0.2378450
  H        4.1369510    -0.9193470    -0.6503860
  H        3.5046520    -0.8738050     1.0019030
  H       -3.5045960    -0.8738620     1.0019060
  H       -4.1369540    -0.9193510    -0.6503600
  H       -2.6724020    -1.8222580    -0.2379080
units angstrom
no_reorient  #important for SAPT in psi4, default
symmetry c1  #important for SAPT in psi4, default
}

set PROPERTIES_ORIGIN ["COM"]
properties('MP2/aug-cc-pvtz', properties = ['dipole'])
--------------------------------------------------------------------------

    Molecular point group: c1
  Charge       = 0
  Multiplicity = 1
  Basis Set: AUG-CC-PVTZ
    Blend: AUG-CC-PVTZ
  Basis Set: (AUG-CC-PVTZ AUX)
    Blend: AUG-CC-PVTZ-JKFIT

    Orbital Energies [Eh]
    ---------------------

    Doubly Occupied:

       1A    -11.218442     2A    -11.217654     3A    -11.213998
       4A    -11.213441     5A    -11.211519     6A    -11.211142
       7A    -11.209534     8A    -11.209220     9A     -1.141613
      10A     -1.046607    11A     -1.006711    12A     -0.900331
      13A     -0.892283    14A     -0.841649    15A     -0.768307
      16A     -0.744149    17A     -0.652047    18A     -0.616496
      19A     -0.613850    20A     -0.583801    21A     -0.572607
      22A     -0.537013    23A     -0.530858    24A     -0.525450
      25A     -0.508019    26A     -0.504627    27A     -0.481561
      28A     -0.464288    29A     -0.443333    30A     -0.439821
      31A     -0.421159    32A     -0.408100

  @DF-RHF Final Energy:  -312.34620549590636

   => Energetics <=

    Nuclear Repulsion Energy =            390.3643175958677602
    One-Electron Energy =               -1194.7217838760664108
    Two-Electron Energy =                 492.0112607842922898
    Total Energy =                       -312.3462054959063607
  Basis Set: (AUG-CC-PVTZ AUX)
    Blend: AUG-CC-PVTZ-RI
    Molecular point group: c1

    Geometry (in Angstrom), charge = 0, multiplicity = 1:

       Center              X                  Y                   Z               Mass
    ------------   -----------------  -----------------  -----------------  -----------------
         C            1.075168299052     0.358061577140     0.396069904926    12.000000000000
         C           -1.078790700948     0.358073577140     0.396070904926    12.000000000000
         C           -0.001805700948     1.410375577140     0.047636904926    12.000000000000
         C           -0.001817700948    -0.730028422860     0.172820904926    12.000000000000
         C            2.357707299052     0.302434577140    -0.413627095074    12.000000000000
         C           -2.344434300948     0.303179577140    -0.402947595074    12.000000000000
         C            3.217759299052    -0.909389422860    -0.062341095074    12.000000000000
         C           -3.221357700948    -0.909403422860    -0.062348095074    12.000000000000
         H            1.312100299052     0.419067577140     1.467274904926     1.007825032230
         H           -1.315715700948     0.419084577140     1.467276904926     1.007825032230
         H           -0.001800700948     2.361215577140     0.590698904926     1.007825032230
         H           -0.001804700948     1.619059577140    -1.029980095074     1.007825032230
         H           -0.001818700948    -1.060140422860    -0.875038095074     1.007825032230
         H           -0.001821700948    -1.612386422860     0.820651904926     1.007825032230
         H            2.929556299052     1.226437577140    -0.255899095074     1.007825032230
         H            2.097578299052     0.275710577140    -1.480154095074     1.007825032230
         H           -2.101214700948     0.275752577140    -1.480146095074     1.007825032230
         H           -2.933202700948     1.226433577140    -0.255861095074     1.007825032230
         H            2.670617299052    -1.839244422860    -0.245429095074     1.007825032230
         H            4.135142299052    -0.936333422860    -0.657970095074     1.007825032230
         H            3.502843299052    -0.890791422860     0.994318904926     1.007825032230
         H           -3.506404700948    -0.890848422860     0.994321904926     1.007825032230
         H           -4.138762700948    -0.936337422860    -0.657944095074     1.007825032230
         H           -2.674210700948    -1.839244422860    -0.245492095074     1.007825032230

  Basis Set: AUG-CC-PVTZ
    Blend: AUG-CC-PVTZ
  Basis Set: (AUG-CC-PVTZ AUX)
    Blend: AUG-CC-PVTZ-JKFIT
	 Reference Energy          =    -312.3462054959063607 [Eh]
	 Singles Energy            =      -0.0000000000000000 [Eh]
	 Same-Spin Energy          =      -0.3391793352662558 [Eh]
	 Opposite-Spin Energy      =      -1.2316357347922957 [Eh]
	 Correlation Energy        =      -1.5708150700585515 [Eh]
	 Total Energy              =    -313.9170205659648900 [Eh]

	 ================> DF-SCS-MP2 Energies <==================
	-----------------------------------------------------------
	 SCS Same-Spin Scale       =       0.3333333333333333 [-]
	 SCS Opposite-Spin Scale   =       1.2000000000000000 [-]
	 SCS Same-Spin Energy      =      -0.1130597784220853 [Eh]
	 SCS Opposite-Spin Energy  =      -1.4779628817507549 [Eh]
	 SCS Correlation Energy    =      -1.5910226601728401 [Eh]
	 SCS Total Energy          =    -313.9372281560791862 [Eh]
	-----------------------------------------------------------

  Dipole Moment: [D]
     X:     0.0054      Y:     0.0736      Z:     0.0851     Total:     0.1127

*** Psi4 exiting successfully. Buy a developer a beer!
