                               Psi4 1.4a3.dev225

  ==> Input File <==

--------------------------------------------------------------------------
#psi4
#
memory 32 gb

molecule  {
0 1
  C        1.0769770     0.3750480     0.4036540
  C       -1.0769820     0.3750600     0.4036550
  C        0.0000030     1.4273620     0.0552210
  C       -0.0000090    -0.7130420     0.1804050
  C        2.3595160     0.3194210    -0.4060430
  C       -2.3595260     0.3194330    -0.4060330
  C        3.2195680    -0.8924030    -0.0547570
  C       -3.2195490    -0.8924170    -0.0547640
  H        1.3139090     0.4360540     1.4748590
  H       -1.3139070     0.4360710     1.4748610
  H        0.0000080     2.3782020     0.5982830
  H        0.0000040     1.6360460    -1.0223960
  H       -0.0000100    -1.0431540    -0.8674540
  H       -0.0000130    -1.5954000     0.8282360
  H        2.9313650     1.2434240    -0.2483150
  H        2.0993870     0.2926970    -1.4725700
  H       -2.0994060     0.2927390    -1.4725620
  H       -2.9313940     1.2434200    -0.2482770
  H        2.6724260    -1.8222580    -0.2378450
  H        4.1369510    -0.9193470    -0.6503860
  H        3.5046520    -0.8738050     1.0019030
  H       -3.5306372    -0.8721669     1.0984409
  H       -4.1369540    -0.9193510    -0.6503600
  H       -2.6724020    -1.8222580    -0.2379080
units angstrom
no_reorient  #important for SAPT in psi4, default
symmetry c1  #important for SAPT in psi4, default
}

set PROPERTIES_ORIGIN ["COM"]
properties('MP2/aug-cc-pvtz', properties = ['dipole'])
--------------------------------------------------------------------------

    Molecular point group: c1
  Charge       = 0
  Multiplicity = 1
  Basis Set: AUG-CC-PVTZ
    Blend: AUG-CC-PVTZ
  Basis Set: (AUG-CC-PVTZ AUX)
    Blend: AUG-CC-PVTZ-JKFIT

    Orbital Energies [Eh]
    ---------------------

    Doubly Occupied:

       1A    -11.221553     2A    -11.218600     3A    -11.218544
       4A    -11.214750     5A    -11.213542     6A    -11.211622
       7A    -11.211202     8A    -11.209290     9A     -1.140836
      10A     -1.045383    11A     -1.006005    12A     -0.896744
      13A     -0.892192    14A     -0.838345    15A     -0.768123
      16A     -0.743755    17A     -0.651933    18A     -0.616194
      19A     -0.612704    20A     -0.581443    21A     -0.572005
      22A     -0.533694    23A     -0.530923    24A     -0.525105
      25A     -0.507957    26A     -0.503136    27A     -0.478500
      28A     -0.461621    29A     -0.442299    30A     -0.441633
      31A     -0.421909    32A     -0.407296

  @DF-RHF Final Energy:  -312.34042221262342

   => Energetics <=

    Nuclear Repulsion Energy =            389.7314291134367750
    One-Electron Energy =               -1193.4660225746804372
    Two-Electron Energy =                 491.3941712486202391
    Total Energy =                       -312.3404222126234231
  Basis Set: (AUG-CC-PVTZ AUX)
    Blend: AUG-CC-PVTZ-RI
    Molecular point group: c1

    Geometry (in Angstrom), charge = 0, multiplicity = 1:

       Center              X                  Y                   Z               Mass
    ------------   -----------------  -----------------  -----------------  -----------------
         C            1.077211102741     0.358124788940     0.396344095841    12.000000000000
         C           -1.076747897259     0.358136788940     0.396345095841    12.000000000000
         C            0.000237102741     1.410438788940     0.047911095841    12.000000000000
         C            0.000225102741    -0.729965211060     0.173095095841    12.000000000000
         C            2.359750102741     0.302497788940    -0.413352904159    12.000000000000
         C           -2.359291897259     0.302509788940    -0.413342904159    12.000000000000
         C            3.219802102741    -0.909326211060    -0.062066904159    12.000000000000
         C           -3.219314897259    -0.909340211060    -0.062073904159    12.000000000000
         H            1.314143102741     0.419130788940     1.467549095841     1.007825032230
         H           -1.313672897259     0.419147788940     1.467551095841     1.007825032230
         H            0.000242102741     2.361278788940     0.590973095841     1.007825032230
         H            0.000238102741     1.619122788940    -1.029705904159     1.007825032230
         H            0.000224102741    -1.060077211060    -0.874763904159     1.007825032230
         H            0.000221102741    -1.612323211060     0.820926095841     1.007825032230
         H            2.931599102741     1.226500788940    -0.255624904159     1.007825032230
         H            2.099621102741     0.275773788940    -1.479879904159     1.007825032230
         H           -2.099171897259     0.275815788940    -1.479871904159     1.007825032230
         H           -2.931159897259     1.226496788940    -0.255586904159     1.007825032230
         H            2.672660102741    -1.839181211060    -0.245154904159     1.007825032230
         H            4.137185102741    -0.936270211060    -0.657695904159     1.007825032230
         H            3.504886102741    -0.890728211060     0.994593095841     1.007825032230
         H           -3.530403097259    -0.889090111060     1.091130995841     1.007825032230
         H           -4.136719897259    -0.936274211060    -0.657669904159     1.007825032230
         H           -2.672167897259    -1.839181211060    -0.245217904159     1.007825032230

  Basis Set: AUG-CC-PVTZ
    Blend: AUG-CC-PVTZ
  Basis Set: (AUG-CC-PVTZ AUX)
    Blend: AUG-CC-PVTZ-JKFIT
	 Reference Energy          =    -312.3404222126234231 [Eh]
	 Singles Energy            =      -0.0000000000000000 [Eh]
	 Same-Spin Energy          =      -0.3390252594768540 [Eh]
	 Opposite-Spin Energy      =      -1.2321583261329370 [Eh]
	 Correlation Energy        =      -1.5711835856097909 [Eh]
	 Total Energy              =    -313.9116057982332109 [Eh]

	 ================> DF-SCS-MP2 Energies <==================
	-----------------------------------------------------------
	 SCS Same-Spin Scale       =       0.3333333333333333 [-]
	 SCS Opposite-Spin Scale   =       1.2000000000000000 [-]
	 SCS Same-Spin Energy      =      -0.1130084198256180 [Eh]
	 SCS Opposite-Spin Energy  =      -1.4785899913595244 [Eh]
	 SCS Correlation Energy    =      -1.5915984111851424 [Eh]
	 SCS Total Energy          =    -313.9320206238085689 [Eh]
	-----------------------------------------------------------

  Dipole Moment: [D]
     X:     0.0346      Y:     0.0884      Z:     0.0142     Total:     0.0960

*** Psi4 exiting successfully. Buy a developer a beer!
