                               Psi4 1.4a3.dev225

  ==> Input File <==

--------------------------------------------------------------------------
#psi4
#
memory 32 gb

molecule  {
0 1
  C        1.0769770     0.3750480     0.4036540
  C       -1.0769820     0.3750600     0.4036550
  C        0.0000030     1.4273620     0.0552210
  C       -0.0000090    -0.7130420     0.1804050
  C        2.4440178     0.3157559    -0.4593910
  C       -2.3595260     0.3194330    -0.4060330
  C        3.2195680    -0.8924030    -0.0547570
  C       -3.2195490    -0.8924170    -0.0547640
  H        1.3139090     0.4360540     1.4748590
  H       -1.3139070     0.4360710     1.4748610
  H        0.0000080     2.3782020     0.5982830
  H        0.0000040     1.6360460    -1.0223960
  H       -0.0000100    -1.0431540    -0.8674540
  H       -0.0000130    -1.5954000     0.8282360
  H        2.9313650     1.2434240    -0.2483150
  H        2.0993870     0.2926970    -1.4725700
  H       -2.0994060     0.2927390    -1.4725620
  H       -2.9313940     1.2434200    -0.2482770
  H        2.6724260    -1.8222580    -0.2378450
  H        4.1369510    -0.9193470    -0.6503860
  H        3.5046520    -0.8738050     1.0019030
  H       -3.5045960    -0.8738620     1.0019060
  H       -4.1369540    -0.9193510    -0.6503600
  H       -2.6724020    -1.8222580    -0.2379080
units angstrom
no_reorient  #important for SAPT in psi4, default
symmetry c1  #important for SAPT in psi4, default
}

set PROPERTIES_ORIGIN ["COM"]
properties('MP2/aug-cc-pvtz', properties = ['dipole'])
--------------------------------------------------------------------------

    Molecular point group: c1
  Charge       = 0
  Multiplicity = 1
  Basis Set: AUG-CC-PVTZ
    Blend: AUG-CC-PVTZ
  Basis Set: (AUG-CC-PVTZ AUX)
    Blend: AUG-CC-PVTZ-JKFIT

    Orbital Energies [Eh]
    ---------------------

    Doubly Occupied:

       1A    -11.221155     2A    -11.218032     3A    -11.213118
       4A    -11.211773     5A    -11.210979     6A    -11.210330
       7A    -11.208942     8A    -11.207925     9A     -1.136759
      10A     -1.044115    11A     -1.011027    12A     -0.894593
      13A     -0.890493    14A     -0.838522    15A     -0.772147
      16A     -0.741902    17A     -0.650602    18A     -0.620029
      19A     -0.607795    20A     -0.588666    21A     -0.570042
      22A     -0.539843    23A     -0.530052    24A     -0.524809
      25A     -0.507724    26A     -0.506453    27A     -0.487757
      28A     -0.462762    29A     -0.446416    30A     -0.436428
      31A     -0.422548    32A     -0.394162

  @DF-RHF Final Energy:  -312.33860864996564

   => Energetics <=

    Nuclear Repulsion Energy =            388.9243795786973692
    One-Electron Energy =               -1191.8701756070188367
    Two-Electron Energy =                 490.6071873783557749
    Total Energy =                       -312.3386086499656358
  Basis Set: (AUG-CC-PVTZ AUX)
    Blend: AUG-CC-PVTZ-RI
    Molecular point group: c1

    Geometry (in Angstrom), charge = 0, multiplicity = 1:

       Center              X                  Y                   Z               Mass
    ------------   -----------------  -----------------  -----------------  -----------------
         C            1.067933379549     0.358532275963     0.402921263911    12.000000000000
         C           -1.086025620451     0.358544275963     0.402922263911    12.000000000000
         C           -0.009040620451     1.410846275963     0.054488263911    12.000000000000
         C           -0.009052620451    -0.729557724037     0.179672263911    12.000000000000
         C            2.434974179549     0.299240175963    -0.460123736089    12.000000000000
         C           -2.368569620451     0.302917275963    -0.406765736089    12.000000000000
         C            3.210524379549    -0.908918724037    -0.055489736089    12.000000000000
         C           -3.228592620451    -0.908932724037    -0.055496736089    12.000000000000
         H            1.304865379549     0.419538275963     1.474126263911     1.007825032230
         H           -1.322950620451     0.419555275963     1.474128263911     1.007825032230
         H           -0.009035620451     2.361686275963     0.597550263911     1.007825032230
         H           -0.009039620451     1.619530275963    -1.023128736089     1.007825032230
         H           -0.009053620451    -1.059669724037    -0.868186736089     1.007825032230
         H           -0.009056620451    -1.611915724037     0.827503263911     1.007825032230
         H            2.922321379549     1.226908275963    -0.249047736089     1.007825032230
         H            2.090343379549     0.276181275963    -1.473302736089     1.007825032230
         H           -2.108449620451     0.276223275963    -1.473294736089     1.007825032230
         H           -2.940437620451     1.226904275963    -0.249009736089     1.007825032230
         H            2.663382379549    -1.838773724037    -0.238577736089     1.007825032230
         H            4.127907379549    -0.935862724037    -0.651118736089     1.007825032230
         H            3.495608379549    -0.890320724037     1.001170263911     1.007825032230
         H           -3.513639620451    -0.890377724037     1.001173263911     1.007825032230
         H           -4.145997620451    -0.935866724037    -0.651092736089     1.007825032230
         H           -2.681445620451    -1.838773724037    -0.238640736089     1.007825032230

  Basis Set: AUG-CC-PVTZ
    Blend: AUG-CC-PVTZ
  Basis Set: (AUG-CC-PVTZ AUX)
    Blend: AUG-CC-PVTZ-JKFIT
	 Reference Energy          =    -312.3386086499656358 [Eh]
	 Singles Energy            =      -0.0000000000000000 [Eh]
	 Same-Spin Energy          =      -0.3390946249307304 [Eh]
	 Opposite-Spin Energy      =      -1.2318484506382061 [Eh]
	 Correlation Energy        =      -1.5709430755689366 [Eh]
	 Total Energy              =    -313.9095517255345840 [Eh]

	 ================> DF-SCS-MP2 Energies <==================
	-----------------------------------------------------------
	 SCS Same-Spin Scale       =       0.3333333333333333 [-]
	 SCS Opposite-Spin Scale   =       1.2000000000000000 [-]
	 SCS Same-Spin Energy      =      -0.1130315416435768 [Eh]
	 SCS Opposite-Spin Energy  =      -1.4782181407658472 [Eh]
	 SCS Correlation Energy    =      -1.5912496824094240 [Eh]
	 SCS Total Energy          =    -313.9298583323750336 [Eh]
	-----------------------------------------------------------

  Dipole Moment: [D]
     X:     0.0110      Y:     0.0721      Z:     0.0824     Total:     0.1100

*** Psi4 exiting successfully. Buy a developer a beer!
