                               Psi4 1.4a3.dev225

  ==> Input File <==

--------------------------------------------------------------------------
#psi4
#
memory 32 gb

molecule  {
0 1
  C        1.0769770     0.3750480     0.4036540
  C       -1.0769820     0.3750600     0.4036550
  C       -0.0086190     1.3733414    -0.0970219
  C       -0.0000090    -0.7130420     0.1804050
  C        2.3595160     0.3194210    -0.4060430
  C       -2.3595260     0.3194330    -0.4060330
  C        3.2195680    -0.8924030    -0.0547570
  C       -3.2195490    -0.8924170    -0.0547640
  H        1.3139090     0.4360540     1.4748590
  H       -1.3139070     0.4360710     1.4748610
  H        0.0000080     2.3782020     0.5982830
  H        0.0000040     1.6360460    -1.0223960
  H       -0.0000100    -1.0431540    -0.8674540
  H       -0.0000130    -1.5954000     0.8282360
  H        2.9313650     1.2434240    -0.2483150
  H        2.0993870     0.2926970    -1.4725700
  H       -2.0994060     0.2927390    -1.4725620
  H       -2.9313940     1.2434200    -0.2482770
  H        2.6724260    -1.8222580    -0.2378450
  H        4.1369510    -0.9193470    -0.6503860
  H        3.5046520    -0.8738050     1.0019030
  H       -3.5045960    -0.8738620     1.0019060
  H       -4.1369540    -0.9193510    -0.6503600
  H       -2.6724020    -1.8222580    -0.2379080
units angstrom
no_reorient  #important for SAPT in psi4, default
symmetry c1  #important for SAPT in psi4, default
}

set PROPERTIES_ORIGIN ["COM"]
properties('MP2/aug-cc-pvtz', properties = ['dipole'])
--------------------------------------------------------------------------

    Molecular point group: c1
  Charge       = 0
  Multiplicity = 1
  Basis Set: AUG-CC-PVTZ
    Blend: AUG-CC-PVTZ
  Basis Set: (AUG-CC-PVTZ AUX)
    Blend: AUG-CC-PVTZ-JKFIT

    Orbital Energies [Eh]
    ---------------------

    Doubly Occupied:

       1A    -11.219999     2A    -11.219714     3A    -11.212960
       4A    -11.212838     5A    -11.212552     6A    -11.212441
       7A    -11.208856     8A    -11.208753     9A     -1.143880
      10A     -1.046531    11A     -1.007379    12A     -0.899797
      13A     -0.895334    14A     -0.841038    15A     -0.768290
      16A     -0.759258    17A     -0.646144    18A     -0.617639
      19A     -0.615476    20A     -0.581931    21A     -0.571578
      22A     -0.542320    23A     -0.541519    24A     -0.524224
      25A     -0.508310    26A     -0.507837    27A     -0.480367
      28A     -0.466736    29A     -0.456022    30A     -0.436560
      31A     -0.407048    32A     -0.397287

  @DF-RHF Final Energy:  -312.31550320372833

   => Energetics <=

    Nuclear Repulsion Energy =            390.6907217890662309
    One-Electron Energy =               -1195.2712171930941167
    Two-Electron Energy =                 492.2649922002996163
    Total Energy =                       -312.3155032037283263
  Basis Set: (AUG-CC-PVTZ AUX)
    Blend: AUG-CC-PVTZ-RI
    Molecular point group: c1

    Geometry (in Angstrom), charge = 0, multiplicity = 1:

       Center              X                  Y                   Z               Mass
    ------------   -----------------  -----------------  -----------------  -----------------
         C            1.077899788481     0.363921483717     0.413505314548    12.000000000000
         C           -1.076059211519     0.363933483717     0.413506314548    12.000000000000
         C           -0.007696211519     1.362214883717    -0.087170585452    12.000000000000
         C            0.000913788481    -0.724168516283     0.190256314548    12.000000000000
         C            2.360438788481     0.308294483717    -0.396191685452    12.000000000000
         C           -2.358603211519     0.308306483717    -0.396181685452    12.000000000000
         C            3.220490788481    -0.903529516283    -0.044905685452    12.000000000000
         C           -3.218626211519    -0.903543516283    -0.044912685452    12.000000000000
         H            1.314831788481     0.424927483717     1.484710314548     1.007825032230
         H           -1.312984211519     0.424944483717     1.484712314548     1.007825032230
         H            0.000930788481     2.367075483717     0.608134314548     1.007825032230
         H            0.000926788481     1.624919483717    -1.012544685452     1.007825032230
         H            0.000912788481    -1.054280516283    -0.857602685452     1.007825032230
         H            0.000909788481    -1.606526516283     0.838087314548     1.007825032230
         H            2.932287788481     1.232297483717    -0.238463685452     1.007825032230
         H            2.100309788481     0.281570483717    -1.462718685452     1.007825032230
         H           -2.098483211519     0.281612483717    -1.462710685452     1.007825032230
         H           -2.930471211519     1.232293483717    -0.238425685452     1.007825032230
         H            2.673348788481    -1.833384516283    -0.227993685452     1.007825032230
         H            4.137873788481    -0.930473516283    -0.640534685452     1.007825032230
         H            3.505574788481    -0.884931516283     1.011754314548     1.007825032230
         H           -3.503673211519    -0.884988516283     1.011757314548     1.007825032230
         H           -4.136031211519    -0.930477516283    -0.640508685452     1.007825032230
         H           -2.671479211519    -1.833384516283    -0.228056685452     1.007825032230

  Basis Set: AUG-CC-PVTZ
    Blend: AUG-CC-PVTZ
  Basis Set: (AUG-CC-PVTZ AUX)
    Blend: AUG-CC-PVTZ-JKFIT
	 Reference Energy          =    -312.3155032037283263 [Eh]
	 Singles Energy            =      -0.0000000000000000 [Eh]
	 Same-Spin Energy          =      -0.3393973678144964 [Eh]
	 Opposite-Spin Energy      =      -1.2327792887576776 [Eh]
	 Correlation Energy        =      -1.5721766565721740 [Eh]
	 Total Energy              =    -313.8876798603005227 [Eh]

	 ================> DF-SCS-MP2 Energies <==================
	-----------------------------------------------------------
	 SCS Same-Spin Scale       =       0.3333333333333333 [-]
	 SCS Opposite-Spin Scale   =       1.2000000000000000 [-]
	 SCS Same-Spin Energy      =      -0.1131324559381655 [Eh]
	 SCS Opposite-Spin Energy  =      -1.4793351465092131 [Eh]
	 SCS Correlation Energy    =      -1.5924676024473785 [Eh]
	 SCS Total Energy          =    -313.9079708061756833 [Eh]
	-----------------------------------------------------------

  Dipole Moment: [D]
     X:     0.0054      Y:    -0.0309      Z:    -0.0039     Total:     0.0316

*** Psi4 exiting successfully. Buy a developer a beer!
