                               Psi4 1.4a3.dev225

  ==> Input File <==

--------------------------------------------------------------------------
#psi4
#
memory 32 gb

molecule  {
0 1
  C        1.0769770     0.3750480     0.4036540
  C       -1.0769820     0.3750600     0.4036550
  C        0.0000030     1.4273620     0.0552210
  C       -0.0000090    -0.7130420     0.1804050
  C        2.3595160     0.3194210    -0.4060430
  C       -2.3595260     0.3194330    -0.4060330
  C        3.2195680    -0.8924030    -0.0547570
  C       -3.2195490    -0.8924170    -0.0547640
  H        1.3139090     0.4360540     1.4748590
  H       -1.3139070     0.4360710     1.4748610
  H        0.0000080     2.3782020     0.5982830
  H        0.0000040     1.6360460    -1.0223960
  H       -0.0000100    -1.0431540    -0.8674540
  H       -0.0000130    -1.5954000     0.8282360
  H        2.9053252     1.2013485    -0.2554973
  H        2.0993870     0.2926970    -1.4725700
  H       -2.0994060     0.2927390    -1.4725620
  H       -2.9313940     1.2434200    -0.2482770
  H        2.6724260    -1.8222580    -0.2378450
  H        4.1369510    -0.9193470    -0.6503860
  H        3.5046520    -0.8738050     1.0019030
  H       -3.5045960    -0.8738620     1.0019060
  H       -4.1369540    -0.9193510    -0.6503600
  H       -2.6724020    -1.8222580    -0.2379080
units angstrom
no_reorient  #important for SAPT in psi4, default
symmetry c1  #important for SAPT in psi4, default
}

set PROPERTIES_ORIGIN ["COM"]
properties('MP2/aug-cc-pvtz', properties = ['dipole'])
--------------------------------------------------------------------------

    Molecular point group: c1
  Charge       = 0
  Multiplicity = 1
  Basis Set: AUG-CC-PVTZ
    Blend: AUG-CC-PVTZ
  Basis Set: (AUG-CC-PVTZ AUX)
    Blend: AUG-CC-PVTZ-JKFIT

    Orbital Energies [Eh]
    ---------------------

    Doubly Occupied:

       1A    -11.218149     2A    -11.217861     3A    -11.213218
       4A    -11.210966     5A    -11.210844     6A    -11.209034
       7A    -11.208706     8A    -11.206886     9A     -1.140520
      10A     -1.046985    11A     -1.008197    12A     -0.899045
      13A     -0.891937    14A     -0.842548    15A     -0.771375
      16A     -0.743579    17A     -0.651841    18A     -0.619778
      19A     -0.613294    20A     -0.585514    21A     -0.571950
      22A     -0.536776    23A     -0.530448    24A     -0.524506
      25A     -0.508674    26A     -0.505864    27A     -0.483291
      28A     -0.463939    29A     -0.442245    30A     -0.441792
      31A     -0.421721    32A     -0.406820

  @DF-RHF Final Energy:  -312.34579335388992

   => Energetics <=

    Nuclear Repulsion Energy =            390.3617188049842071
    One-Electron Energy =               -1194.7184133432053841
    Two-Electron Energy =                 492.0109011843312601
    Total Energy =                       -312.3457933538899169
  Basis Set: (AUG-CC-PVTZ AUX)
    Blend: AUG-CC-PVTZ-RI
    Molecular point group: c1

    Geometry (in Angstrom), charge = 0, multiplicity = 1:

       Center              X                  Y                   Z               Mass
    ------------   -----------------  -----------------  -----------------  -----------------
         C            1.077211090157     0.358518216164     0.397276346485    12.000000000000
         C           -1.076747909843     0.358530216164     0.397277346485    12.000000000000
         C            0.000237090157     1.410832216164     0.048843346485    12.000000000000
         C            0.000225090157    -0.729571783836     0.174027346485    12.000000000000
         C            2.359750090157     0.302891216164    -0.412420653515    12.000000000000
         C           -2.359291909843     0.302903216164    -0.412410653515    12.000000000000
         C            3.219802090157    -0.908932783836    -0.061134653515    12.000000000000
         C           -3.219314909843    -0.908946783836    -0.061141653515    12.000000000000
         H            1.314143090157     0.419524216164     1.468481346485     1.007825032230
         H           -1.313672909843     0.419541216164     1.468483346485     1.007825032230
         H            0.000242090157     2.361672216164     0.591905346485     1.007825032230
         H            0.000238090157     1.619516216164    -1.028773653515     1.007825032230
         H            0.000224090157    -1.059683783836    -0.873831653515     1.007825032230
         H            0.000221090157    -1.611929783836     0.821858346485     1.007825032230
         H            2.905559290157     1.184818716164    -0.261874953515     1.007825032230
         H            2.099621090157     0.276167216164    -1.478947653515     1.007825032230
         H           -2.099171909843     0.276209216164    -1.478939653515     1.007825032230
         H           -2.931159909843     1.226890216164    -0.254654653515     1.007825032230
         H            2.672660090157    -1.838787783836    -0.244222653515     1.007825032230
         H            4.137185090157    -0.935876783836    -0.656763653515     1.007825032230
         H            3.504886090157    -0.890334783836     0.995525346485     1.007825032230
         H           -3.504361909843    -0.890391783836     0.995528346485     1.007825032230
         H           -4.136719909843    -0.935880783836    -0.656737653515     1.007825032230
         H           -2.672167909843    -1.838787783836    -0.244285653515     1.007825032230

  Basis Set: AUG-CC-PVTZ
    Blend: AUG-CC-PVTZ
  Basis Set: (AUG-CC-PVTZ AUX)
    Blend: AUG-CC-PVTZ-JKFIT
	 Reference Energy          =    -312.3457933538899169 [Eh]
	 Singles Energy            =      -0.0000000000000000 [Eh]
	 Same-Spin Energy          =      -0.3390840948753817 [Eh]
	 Opposite-Spin Energy      =      -1.2312261660676087 [Eh]
	 Correlation Energy        =      -1.5703102609429904 [Eh]
	 Total Energy              =    -313.9161036148329345 [Eh]

	 ================> DF-SCS-MP2 Energies <==================
	-----------------------------------------------------------
	 SCS Same-Spin Scale       =       0.3333333333333333 [-]
	 SCS Opposite-Spin Scale   =       1.2000000000000000 [-]
	 SCS Same-Spin Energy      =      -0.1130280316251272 [Eh]
	 SCS Opposite-Spin Energy  =      -1.4774713992811304 [Eh]
	 SCS Correlation Energy    =      -1.5904994309062577 [Eh]
	 SCS Total Energy          =    -313.9362927847961942 [Eh]
	-----------------------------------------------------------

  Dipole Moment: [D]
     X:     0.0240      Y:     0.1064      Z:     0.0812     Total:     0.1360

*** Psi4 exiting successfully. Buy a developer a beer!
