                               Psi4 1.4a3.dev225

  ==> Input File <==

--------------------------------------------------------------------------
#psi4
#
memory 32 gb

molecule  {
0 1
  C        1.0769770     0.3750480     0.4036540
  C       -1.0769820     0.3750600     0.4036550
  C        0.0000030     1.4273620     0.0552210
  C       -0.0000090    -0.7130420     0.1804050
  C        2.3595160     0.3194210    -0.4060430
  C       -2.3595260     0.3194330    -0.4060330
  C        3.2195680    -0.8924030    -0.0547570
  C       -3.2195490    -0.8924170    -0.0547640
  H        1.3139090     0.4360540     1.4748590
  H       -1.3139070     0.4360710     1.4748610
  H        0.0000080     2.3782020     0.5982830
  H        0.0000040     1.6360460    -1.0223960
  H       -0.0000100    -1.0371445    -0.8483782
  H       -0.0000130    -1.5954000     0.8282360
  H        2.9313650     1.2434240    -0.2483150
  H        2.0993870     0.2926970    -1.4725700
  H       -2.0994060     0.2927390    -1.4725620
  H       -2.9313940     1.2434200    -0.2482770
  H        2.6724260    -1.8222580    -0.2378450
  H        4.1369510    -0.9193470    -0.6503860
  H        3.5046520    -0.8738050     1.0019030
  H       -3.5045960    -0.8738620     1.0019060
  H       -4.1369540    -0.9193510    -0.6503600
  H       -2.6724020    -1.8222580    -0.2379080
units angstrom
no_reorient  #important for SAPT in psi4, default
symmetry c1  #important for SAPT in psi4, default
}

set PROPERTIES_ORIGIN ["COM"]
properties('MP2/aug-cc-pvtz', properties = ['dipole'])
--------------------------------------------------------------------------

    Molecular point group: c1
  Charge       = 0
  Multiplicity = 1
  Basis Set: AUG-CC-PVTZ
    Blend: AUG-CC-PVTZ
  Basis Set: (AUG-CC-PVTZ AUX)
    Blend: AUG-CC-PVTZ-JKFIT

    Orbital Energies [Eh]
    ---------------------

    Doubly Occupied:

       1A    -11.218141     2A    -11.218104     3A    -11.213361
       4A    -11.213361     5A    -11.210901     6A    -11.209184
       7A    -11.209184     8A    -11.208884     9A     -1.140785
      10A     -1.045938    11A     -1.007444    12A     -0.899108
      13A     -0.893368    14A     -0.841007    15A     -0.768978
      16A     -0.745167    17A     -0.651604    18A     -0.616870
      19A     -0.612739    20A     -0.585014    21A     -0.572193
      22A     -0.536917    23A     -0.532982    24A     -0.524852
      25A     -0.507719    26A     -0.505405    27A     -0.482426
      28A     -0.464222    29A     -0.442563    30A     -0.441025
      31A     -0.421459    32A     -0.406717

  @DF-RHF Final Energy:  -312.34678446636082

   => Energetics <=

    Nuclear Repulsion Energy =            390.2107045497698437
    One-Electron Energy =               -1194.4197318072422149
    Two-Electron Energy =                 491.8622427911115551
    Total Energy =                       -312.3467844663608162
  Basis Set: (AUG-CC-PVTZ AUX)
    Blend: AUG-CC-PVTZ-RI
    Molecular point group: c1

    Geometry (in Angstrom), charge = 0, multiplicity = 1:

       Center              X                  Y                   Z               Mass
    ------------   -----------------  -----------------  -----------------  -----------------
         C            1.076977034279     0.358086009430     0.397040328441    12.000000000000
         C           -1.076981965721     0.358098009430     0.397041328441    12.000000000000
         C            0.000003034279     1.410400009430     0.048607328441    12.000000000000
         C           -0.000008965721    -0.730003990570     0.173791328441    12.000000000000
         C            2.359516034279     0.302459009430    -0.412656671559    12.000000000000
         C           -2.359525965721     0.302471009430    -0.412646671559    12.000000000000
         C            3.219568034279    -0.909364990570    -0.061370671559    12.000000000000
         C           -3.219548965721    -0.909378990570    -0.061377671559    12.000000000000
         H            1.313909034279     0.419092009430     1.468245328441     1.007825032230
         H           -1.313906965721     0.419109009430     1.468247328441     1.007825032230
         H            0.000008034279     2.361240009430     0.591669328441     1.007825032230
         H            0.000004034279     1.619084009430    -1.029009671559     1.007825032230
         H           -0.000009965721    -1.054106490570    -0.854991871559     1.007825032230
         H           -0.000012965721    -1.612361990570     0.821622328441     1.007825032230
         H            2.931365034279     1.226462009430    -0.254928671559     1.007825032230
         H            2.099387034279     0.275735009430    -1.479183671559     1.007825032230
         H           -2.099405965721     0.275777009430    -1.479175671559     1.007825032230
         H           -2.931393965721     1.226458009430    -0.254890671559     1.007825032230
         H            2.672426034279    -1.839219990570    -0.244458671559     1.007825032230
         H            4.136951034279    -0.936308990570    -0.656999671559     1.007825032230
         H            3.504652034279    -0.890766990570     0.995289328441     1.007825032230
         H           -3.504595965721    -0.890823990570     0.995292328441     1.007825032230
         H           -4.136953965721    -0.936312990570    -0.656973671559     1.007825032230
         H           -2.672401965721    -1.839219990570    -0.244521671559     1.007825032230

  Basis Set: AUG-CC-PVTZ
    Blend: AUG-CC-PVTZ
  Basis Set: (AUG-CC-PVTZ AUX)
    Blend: AUG-CC-PVTZ-JKFIT
	 Reference Energy          =    -312.3467844663608162 [Eh]
	 Singles Energy            =      -0.0000000000000000 [Eh]
	 Same-Spin Energy          =      -0.3390577682904407 [Eh]
	 Opposite-Spin Energy      =      -1.2313829226740576 [Eh]
	 Correlation Energy        =      -1.5704406909644983 [Eh]
	 Total Energy              =    -313.9172251573253334 [Eh]

	 ================> DF-SCS-MP2 Energies <==================
	-----------------------------------------------------------
	 SCS Same-Spin Scale       =       0.3333333333333333 [-]
	 SCS Opposite-Spin Scale   =       1.2000000000000000 [-]
	 SCS Same-Spin Energy      =      -0.1130192560968136 [Eh]
	 SCS Opposite-Spin Energy  =      -1.4776595072088690 [Eh]
	 SCS Correlation Energy    =      -1.5906787633056825 [Eh]
	 SCS Total Energy          =    -313.9374632296664913 [Eh]
	-----------------------------------------------------------

  Dipole Moment: [D]
     X:    -0.0000      Y:     0.0678      Z:     0.0719     Total:     0.0988

*** Psi4 exiting successfully. Buy a developer a beer!
