                               Psi4 1.4a3.dev225

  ==> Input File <==

--------------------------------------------------------------------------
#psi4
#
memory 32 gb

molecule  {
0 1
  C        1.0769770     0.3750480     0.4036540
  C       -1.0769820     0.3750600     0.4036550
  C        0.0000030     1.4273620     0.0552210
  C       -0.0000090    -0.7130420     0.1804050
  C        2.3595160     0.3194210    -0.4060430
  C       -2.3595260     0.3194330    -0.4060330
  C        3.2195680    -0.8924030    -0.0547570
  C       -3.2195490    -0.8924170    -0.0547640
  H        1.3139090     0.4360540     1.4748590
  H       -1.3139070     0.4360710     1.4748610
  H        0.0000080     2.3782020     0.5982830
  H        0.0000040     1.6360460    -1.0223960
  H       -0.0000100    -1.0431540    -0.8674540
  H       -0.0000130    -1.5954000     0.8282360
  H        2.9313650     1.2434240    -0.2483150
  H        2.0993870     0.2926970    -1.4725700
  H       -2.0994060     0.2927390    -1.4725620
  H       -2.9313940     1.2434200    -0.2482770
  H        2.6724260    -1.8222580    -0.2378450
  H        4.1369510    -0.9193470    -0.6503860
  H        3.5046520    -0.8738050     1.0019030
  H       -3.4701936    -0.9416433     1.0096145
  H       -4.1369540    -0.9193510    -0.6503600
  H       -2.6724020    -1.8222580    -0.2379080
units angstrom
no_reorient  #important for SAPT in psi4, default
symmetry c1  #important for SAPT in psi4, default
}

set PROPERTIES_ORIGIN ["COM"]
properties('MP2/aug-cc-pvtz', properties = ['dipole'])
--------------------------------------------------------------------------

    Molecular point group: c1
  Charge       = 0
  Multiplicity = 1
  Basis Set: AUG-CC-PVTZ
    Blend: AUG-CC-PVTZ
  Basis Set: (AUG-CC-PVTZ AUX)
    Blend: AUG-CC-PVTZ-JKFIT

    Orbital Energies [Eh]
    ---------------------

    Doubly Occupied:

       1A    -11.218458     2A    -11.218380     3A    -11.213900
       4A    -11.213406     5A    -11.211431     6A    -11.211028
       7A    -11.209188     8A    -11.209065     9A     -1.140672
      10A     -1.045888    11A     -1.007275    12A     -0.899321
      13A     -0.892054    14A     -0.841547    15A     -0.769666
      16A     -0.743822    17A     -0.651747    18A     -0.615675
      19A     -0.613368    20A     -0.582788    21A     -0.572537
      22A     -0.539142    23A     -0.530749    24A     -0.524655
      25A     -0.507508    26A     -0.505600    27A     -0.480818
      28A     -0.464973    29A     -0.442293    30A     -0.441103
      31A     -0.421600    32A     -0.406925

  @DF-RHF Final Energy:  -312.34619353474682

   => Energetics <=

    Nuclear Repulsion Energy =            390.1124434549190596
    One-Electron Energy =               -1194.2241143255841962
    Two-Electron Energy =                 491.7654773359183764
    Total Energy =                       -312.3461935347468170
  Basis Set: (AUG-CC-PVTZ AUX)
    Blend: AUG-CC-PVTZ-RI
    Molecular point group: c1

    Geometry (in Angstrom), charge = 0, multiplicity = 1:

       Center              X                  Y                   Z               Mass
    ------------   -----------------  -----------------  -----------------  -----------------
         C            1.076667812090     0.358749269920     0.397142502167    12.000000000000
         C           -1.077291187910     0.358761269920     0.397143502167    12.000000000000
         C           -0.000306187910     1.411063269920     0.048709502167    12.000000000000
         C           -0.000318187910    -0.729340730080     0.173893502167    12.000000000000
         C            2.359206812090     0.303122269920    -0.412554497833    12.000000000000
         C           -2.359835187910     0.303134269920    -0.412544497833    12.000000000000
         C            3.219258812090    -0.908701730080    -0.061268497833    12.000000000000
         C           -3.219858187910    -0.908715730080    -0.061275497833    12.000000000000
         H            1.313599812090     0.419755269920     1.468347502167     1.007825032230
         H           -1.314216187910     0.419772269920     1.468349502167     1.007825032230
         H           -0.000301187910     2.361903269920     0.591771502167     1.007825032230
         H           -0.000305187910     1.619747269920    -1.028907497833     1.007825032230
         H           -0.000319187910    -1.059452730080    -0.873965497833     1.007825032230
         H           -0.000322187910    -1.611698730080     0.821724502167     1.007825032230
         H            2.931055812090     1.227125269920    -0.254826497833     1.007825032230
         H            2.099077812090     0.276398269920    -1.479081497833     1.007825032230
         H           -2.099715187910     0.276440269920    -1.479073497833     1.007825032230
         H           -2.931703187910     1.227121269920    -0.254788497833     1.007825032230
         H            2.672116812090    -1.838556730080    -0.244356497833     1.007825032230
         H            4.136641812090    -0.935645730080    -0.656897497833     1.007825032230
         H            3.504342812090    -0.890103730080     0.995391502167     1.007825032230
         H           -3.470502787910    -0.957942030080     1.003103002167     1.007825032230
         H           -4.137263187910    -0.935649730080    -0.656871497833     1.007825032230
         H           -2.672711187910    -1.838556730080    -0.244419497833     1.007825032230

  Basis Set: AUG-CC-PVTZ
    Blend: AUG-CC-PVTZ
  Basis Set: (AUG-CC-PVTZ AUX)
    Blend: AUG-CC-PVTZ-JKFIT
	 Reference Energy          =    -312.3461935347468170 [Eh]
	 Singles Energy            =      -0.0000000000000000 [Eh]
	 Same-Spin Energy          =      -0.3390959189690990 [Eh]
	 Opposite-Spin Energy      =      -1.2315213182993920 [Eh]
	 Correlation Energy        =      -1.5706172372684910 [Eh]
	 Total Energy              =    -313.9168107720153102 [Eh]

	 ================> DF-SCS-MP2 Energies <==================
	-----------------------------------------------------------
	 SCS Same-Spin Scale       =       0.3333333333333333 [-]
	 SCS Opposite-Spin Scale   =       1.2000000000000000 [-]
	 SCS Same-Spin Energy      =      -0.1130319729896997 [Eh]
	 SCS Opposite-Spin Energy  =      -1.4778255819592705 [Eh]
	 SCS Correlation Energy    =      -1.5908575549489701 [Eh]
	 SCS Total Energy          =    -313.9370510896957853 [Eh]
	-----------------------------------------------------------

  Dipole Moment: [D]
     X:     0.0148      Y:     0.0609      Z:     0.0871     Total:     0.1073

*** Psi4 exiting successfully. Buy a developer a beer!
