                               Psi4 1.4a3.dev225

  ==> Input File <==

--------------------------------------------------------------------------
#psi4
#
memory 32 gb

molecule  {
0 1
  C        1.0769770     0.3750480     0.4036540
  C       -1.0769820     0.3750600     0.4036550
  C        0.0139397     1.4137444     0.0597299
  C       -0.0000090    -0.7130420     0.1804050
  C        2.3595160     0.3194210    -0.4060430
  C       -2.3595260     0.3194330    -0.4060330
  C        3.2195680    -0.8924030    -0.0547570
  C       -3.2195490    -0.8924170    -0.0547640
  H        1.3139090     0.4360540     1.4748590
  H       -1.3139070     0.4360710     1.4748610
  H        0.0000080     2.3782020     0.5982830
  H        0.0000040     1.6360460    -1.0223960
  H       -0.0000100    -1.0431540    -0.8674540
  H       -0.0000130    -1.5954000     0.8282360
  H        2.9313650     1.2434240    -0.2483150
  H        2.0993870     0.2926970    -1.4725700
  H       -2.0994060     0.2927390    -1.4725620
  H       -2.9313940     1.2434200    -0.2482770
  H        2.6724260    -1.8222580    -0.2378450
  H        4.1369510    -0.9193470    -0.6503860
  H        3.5046520    -0.8738050     1.0019030
  H       -3.5045960    -0.8738620     1.0019060
  H       -4.1369540    -0.9193510    -0.6503600
  H       -2.6724020    -1.8222580    -0.2379080
units angstrom
no_reorient  #important for SAPT in psi4, default
symmetry c1  #important for SAPT in psi4, default
}

set PROPERTIES_ORIGIN ["COM"]
properties('MP2/aug-cc-pvtz', properties = ['dipole'])
--------------------------------------------------------------------------

    Molecular point group: c1
  Charge       = 0
  Multiplicity = 1
  Basis Set: AUG-CC-PVTZ
    Blend: AUG-CC-PVTZ
  Basis Set: (AUG-CC-PVTZ AUX)
    Blend: AUG-CC-PVTZ-JKFIT

    Orbital Energies [Eh]
    ---------------------

    Doubly Occupied:

       1A    -11.217964     2A    -11.217391     3A    -11.213672
       4A    -11.213461     5A    -11.211762     6A    -11.211538
       7A    -11.209372     8A    -11.209201     9A     -1.143130
      10A     -1.046246    11A     -1.008015    12A     -0.899930
      13A     -0.891147    14A     -0.841098    15A     -0.769727
      16A     -0.743316    17A     -0.651685    18A     -0.617027
      19A     -0.613189    20A     -0.584623    21A     -0.573295
      22A     -0.537489    23A     -0.528601    24A     -0.524824
      25A     -0.507879    26A     -0.505422    27A     -0.482200
      28A     -0.464444    29A     -0.442952    30A     -0.440584
      31A     -0.420998    32A     -0.408597

  @DF-RHF Final Energy:  -312.34620396849908

   => Energetics <=

    Nuclear Repulsion Energy =            390.3740557684857322
    One-Electron Energy =               -1194.7389660633075437
    Two-Electron Energy =                 492.0187063263227287
    Total Energy =                       -312.3462039684990827
  Basis Set: (AUG-CC-PVTZ AUX)
    Blend: AUG-CC-PVTZ-RI
    Molecular point group: c1

    Geometry (in Angstrom), charge = 0, multiplicity = 1:

       Center              X                  Y                   Z               Mass
    ------------   -----------------  -----------------  -----------------  -----------------
         C            1.075485483769     0.359597424560     0.396729232175    12.000000000000
         C           -1.078473516231     0.359609424560     0.396730232175    12.000000000000
         C            0.012448183769     1.398293824560     0.052805132175    12.000000000000
         C           -0.001500516231    -0.728492575440     0.173480232175    12.000000000000
         C            2.358024483769     0.303970424560    -0.412967767825    12.000000000000
         C           -2.361017516231     0.303982424560    -0.412957767825    12.000000000000
         C            3.218076483769    -0.907853575440    -0.061681767825    12.000000000000
         C           -3.221040516231    -0.907867575440    -0.061688767825    12.000000000000
         H            1.312417483769     0.420603424560     1.467934232175     1.007825032230
         H           -1.315398516231     0.420620424560     1.467936232175     1.007825032230
         H           -0.001483516231     2.362751424560     0.591358232175     1.007825032230
         H           -0.001487516231     1.620595424560    -1.029320767825     1.007825032230
         H           -0.001501516231    -1.058604575440    -0.874378767825     1.007825032230
         H           -0.001504516231    -1.610850575440     0.821311232175     1.007825032230
         H            2.929873483769     1.227973424560    -0.255239767825     1.007825032230
         H            2.097895483769     0.277246424560    -1.479494767825     1.007825032230
         H           -2.100897516231     0.277288424560    -1.479486767825     1.007825032230
         H           -2.932885516231     1.227969424560    -0.255201767825     1.007825032230
         H            2.670934483769    -1.837708575440    -0.244769767825     1.007825032230
         H            4.135459483769    -0.934797575440    -0.657310767825     1.007825032230
         H            3.503160483769    -0.889255575440     0.994978232175     1.007825032230
         H           -3.506087516231    -0.889312575440     0.994981232175     1.007825032230
         H           -4.138445516231    -0.934801575440    -0.657284767825     1.007825032230
         H           -2.673893516231    -1.837708575440    -0.244832767825     1.007825032230

  Basis Set: AUG-CC-PVTZ
    Blend: AUG-CC-PVTZ
  Basis Set: (AUG-CC-PVTZ AUX)
    Blend: AUG-CC-PVTZ-JKFIT
	 Reference Energy          =    -312.3462039684990827 [Eh]
	 Singles Energy            =      -0.0000000000000000 [Eh]
	 Same-Spin Energy          =      -0.3391832846534787 [Eh]
	 Opposite-Spin Energy      =      -1.2315395779407636 [Eh]
	 Correlation Energy        =      -1.5707228625942422 [Eh]
	 Total Energy              =    -313.9169268310933489 [Eh]

	 ================> DF-SCS-MP2 Energies <==================
	-----------------------------------------------------------
	 SCS Same-Spin Scale       =       0.3333333333333333 [-]
	 SCS Opposite-Spin Scale   =       1.2000000000000000 [-]
	 SCS Same-Spin Energy      =      -0.1130610948844929 [Eh]
	 SCS Opposite-Spin Energy  =      -1.4778474935289163 [Eh]
	 SCS Correlation Energy    =      -1.5909085884134091 [Eh]
	 SCS Total Energy          =    -313.9371125569124956 [Eh]
	-----------------------------------------------------------

  Dipole Moment: [D]
     X:    -0.0093      Y:     0.0666      Z:     0.0797     Total:     0.1043

*** Psi4 exiting successfully. Buy a developer a beer!
