                               Psi4 1.4a3.dev225

  ==> Input File <==

--------------------------------------------------------------------------
#psi4
#
memory 32 gb

molecule  {
0 1
  C        1.0769770     0.3750480     0.4036540
  C       -1.0769820     0.3750600     0.4036550
  C        0.0000030     1.4273620     0.0552210
  C       -0.0000090    -0.7130420     0.1804050
  C        2.3595160     0.3194210    -0.4060430
  C       -2.3595260     0.3194330    -0.4060330
  C        3.2195680    -0.8924030    -0.0547570
  C       -3.2195490    -0.8924170    -0.0547640
  H        1.3139090     0.4360540     1.4748590
  H       -1.3139070     0.4360710     1.4748610
  H        0.0000080     2.3782020     0.5982830
  H        0.0000040     1.6360460    -1.0223960
  H       -0.0000100    -1.0431540    -0.8674540
  H       -0.0000130    -1.5954000     0.8282360
  H        2.9313650     1.2434240    -0.2483150
  H        2.0993870     0.2926970    -1.4725700
  H       -2.0994060     0.2927390    -1.4725620
  H       -2.9313940     1.2434200    -0.2482770
  H        2.5724284    -1.9922015    -0.2713068
  H        4.1369510    -0.9193470    -0.6503860
  H        3.5046520    -0.8738050     1.0019030
  H       -3.5045960    -0.8738620     1.0019060
  H       -4.1369540    -0.9193510    -0.6503600
  H       -2.6724020    -1.8222580    -0.2379080
units angstrom
no_reorient  #important for SAPT in psi4, default
symmetry c1  #important for SAPT in psi4, default
}

set PROPERTIES_ORIGIN ["COM"]
properties('MP2/aug-cc-pvtz', properties = ['dipole'])
--------------------------------------------------------------------------

    Molecular point group: c1
  Charge       = 0
  Multiplicity = 1
  Basis Set: AUG-CC-PVTZ
    Blend: AUG-CC-PVTZ
  Basis Set: (AUG-CC-PVTZ AUX)
    Blend: AUG-CC-PVTZ-JKFIT

    Orbital Energies [Eh]
    ---------------------

    Doubly Occupied:

       1A    -11.232946     2A    -11.219041     3A    -11.218195
       4A    -11.216403     5A    -11.213311     6A    -11.211370
       7A    -11.211069     8A    -11.209035     9A     -1.140733
      10A     -1.045091    11A     -1.005252    12A     -0.895229
      13A     -0.891710    14A     -0.836292    15A     -0.767576
      16A     -0.743940    17A     -0.651569    18A     -0.615576
      19A     -0.609431    20A     -0.580767    21A     -0.573859
      22A     -0.537603    23A     -0.530530    24A     -0.526358
      25A     -0.506920    26A     -0.492995    27A     -0.468903
      28A     -0.465070    29A     -0.442412    30A     -0.440994
      31A     -0.420766    32A     -0.407510

  @DF-RHF Final Energy:  -312.32698414979745

   => Energetics <=

    Nuclear Repulsion Energy =            389.4680893551675922
    One-Electron Energy =               -1192.9332354855546328
    Two-Electron Energy =                 491.1381619805895298
    Total Energy =                       -312.3269841497974539
  Basis Set: (AUG-CC-PVTZ AUX)
    Blend: AUG-CC-PVTZ-RI
    Molecular point group: c1

    Geometry (in Angstrom), charge = 0, multiplicity = 1:

       Center              X                  Y                   Z               Mass
    ------------   -----------------  -----------------  -----------------  -----------------
         C            1.077875851708     0.359667543618     0.397512556880    12.000000000000
         C           -1.076083148292     0.359679543618     0.397513556880    12.000000000000
         C            0.000901851708     1.411981543618     0.049079556880    12.000000000000
         C            0.000889851708    -0.728422456382     0.174263556880    12.000000000000
         C            2.360414851708     0.304040543618    -0.412184443120    12.000000000000
         C           -2.358627148292     0.304052543618    -0.412174443120    12.000000000000
         C            3.220466851708    -0.907783456382    -0.060898443120    12.000000000000
         C           -3.218650148292    -0.907797456382    -0.060905443120    12.000000000000
         H            1.314807851708     0.420673543618     1.468717556880     1.007825032230
         H           -1.313008148292     0.420690543618     1.468719556880     1.007825032230
         H            0.000906851708     2.362821543618     0.592141556880     1.007825032230
         H            0.000902851708     1.620665543618    -1.028537443120     1.007825032230
         H            0.000888851708    -1.058534456382    -0.873595443120     1.007825032230
         H            0.000885851708    -1.610780456382     0.822094556880     1.007825032230
         H            2.932263851708     1.228043543618    -0.254456443120     1.007825032230
         H            2.100285851708     0.277316543618    -1.478711443120     1.007825032230
         H           -2.098507148292     0.277358543618    -1.478703443120     1.007825032230
         H           -2.930495148292     1.228039543618    -0.254418443120     1.007825032230
         H            2.573327251708    -2.007581956382    -0.277448243120     1.007825032230
         H            4.137849851708    -0.934727456382    -0.656527443120     1.007825032230
         H            3.505550851708    -0.889185456382     0.995761556880     1.007825032230
         H           -3.503697148292    -0.889242456382     0.995764556880     1.007825032230
         H           -4.136055148292    -0.934731456382    -0.656501443120     1.007825032230
         H           -2.671503148292    -1.837638456382    -0.244049443120     1.007825032230

  Basis Set: AUG-CC-PVTZ
    Blend: AUG-CC-PVTZ
  Basis Set: (AUG-CC-PVTZ AUX)
    Blend: AUG-CC-PVTZ-JKFIT
	 Reference Energy          =    -312.3269841497974539 [Eh]
	 Singles Energy            =      -0.0000000000000000 [Eh]
	 Same-Spin Energy          =      -0.3390454530274642 [Eh]
	 Opposite-Spin Energy      =      -1.2330537960234935 [Eh]
	 Correlation Energy        =      -1.5720992490509578 [Eh]
	 Total Energy              =    -313.8990833988484042 [Eh]

	 ================> DF-SCS-MP2 Energies <==================
	-----------------------------------------------------------
	 SCS Same-Spin Scale       =       0.3333333333333333 [-]
	 SCS Opposite-Spin Scale   =       1.2000000000000000 [-]
	 SCS Same-Spin Energy      =      -0.1130151510091547 [Eh]
	 SCS Opposite-Spin Energy  =      -1.4796645552281922 [Eh]
	 SCS Correlation Energy    =      -1.5926797062373470 [Eh]
	 SCS Total Energy          =    -313.9196638560347878 [Eh]
	-----------------------------------------------------------

  Dipole Moment: [D]
     X:     0.0426      Y:     0.2227      Z:     0.1002     Total:     0.2479

*** Psi4 exiting successfully. Buy a developer a beer!
