                               Psi4 1.4a3.dev225

  ==> Input File <==

--------------------------------------------------------------------------
#psi4
#
memory 32 gb

molecule  {
0 1
  C        1.0769770     0.3750480     0.4036540
  C       -1.0769820     0.3750600     0.4036550
  C        0.0000030     1.4273620     0.0552210
  C       -0.0000090    -0.7130420     0.1804050
  C        2.3595160     0.3194210    -0.4060430
  C       -2.3595260     0.3194330    -0.4060330
  C        3.2195680    -0.8924030    -0.0547570
  C       -3.2396375    -0.8760568    -0.0485168
  H        1.3139090     0.4360540     1.4748590
  H       -1.3139070     0.4360710     1.4748610
  H        0.0000080     2.3782020     0.5982830
  H        0.0000040     1.6360460    -1.0223960
  H       -0.0000100    -1.0431540    -0.8674540
  H       -0.0000130    -1.5954000     0.8282360
  H        2.9313650     1.2434240    -0.2483150
  H        2.0993870     0.2926970    -1.4725700
  H       -2.0994060     0.2927390    -1.4725620
  H       -2.9313940     1.2434200    -0.2482770
  H        2.6724260    -1.8222580    -0.2378450
  H        4.1369510    -0.9193470    -0.6503860
  H        3.5046520    -0.8738050     1.0019030
  H       -3.5045960    -0.8738620     1.0019060
  H       -4.1369540    -0.9193510    -0.6503600
  H       -2.6724020    -1.8222580    -0.2379080
units angstrom
no_reorient  #important for SAPT in psi4, default
symmetry c1  #important for SAPT in psi4, default
}

set PROPERTIES_ORIGIN ["COM"]
properties('MP2/aug-cc-pvtz', properties = ['dipole'])
--------------------------------------------------------------------------

    Molecular point group: c1
  Charge       = 0
  Multiplicity = 1
  Basis Set: AUG-CC-PVTZ
    Blend: AUG-CC-PVTZ
  Basis Set: (AUG-CC-PVTZ AUX)
    Blend: AUG-CC-PVTZ-JKFIT

    Orbital Energies [Eh]
    ---------------------

    Doubly Occupied:

       1A    -11.218604     2A    -11.218356     3A    -11.213413
       4A    -11.213386     5A    -11.211331     6A    -11.211164
       7A    -11.209307     8A    -11.209156     9A     -1.140628
      10A     -1.045891    11A     -1.007489    12A     -0.899400
      13A     -0.891961    14A     -0.841080    15A     -0.769007
      16A     -0.743805    17A     -0.651784    18A     -0.616316
      19A     -0.612481    20A     -0.584361    21A     -0.574149
      22A     -0.538148    23A     -0.530685    24A     -0.526346
      25A     -0.507259    26A     -0.502022    27A     -0.481620
      28A     -0.465155    29A     -0.442370    30A     -0.440495
      31A     -0.421312    32A     -0.407497

  @DF-RHF Final Energy:  -312.34601191949230

   => Energetics <=

    Nuclear Repulsion Energy =            390.0011467158213350
    One-Electron Energy =               -1194.0023631294448023
    Two-Electron Energy =                 491.6552044941312261
    Total Energy =                       -312.3460119194922981
  Basis Set: (AUG-CC-PVTZ AUX)
    Blend: AUG-CC-PVTZ-RI
    Molecular point group: c1

    Geometry (in Angstrom), charge = 0, multiplicity = 1:

       Center              X                  Y                   Z               Mass
    ------------   -----------------  -----------------  -----------------  -----------------
         C            1.079126970233     0.356389103876     0.396543193712    12.000000000000
         C           -1.074832029767     0.356401103876     0.396544193712    12.000000000000
         C            0.002152970233     1.408703103876     0.048110193712    12.000000000000
         C            0.002140970233    -0.731700896124     0.173294193712    12.000000000000
         C            2.361665970233     0.300762103876    -0.413153806288    12.000000000000
         C           -2.357376029767     0.300774103876    -0.413143806288    12.000000000000
         C            3.221717970233    -0.911061896124    -0.061867806288    12.000000000000
         C           -3.237487529767    -0.894715696124    -0.055627606288    12.000000000000
         H            1.316058970233     0.417395103876     1.467748193712     1.007825032230
         H           -1.311757029767     0.417412103876     1.467750193712     1.007825032230
         H            0.002157970233     2.359543103876     0.591172193712     1.007825032230
         H            0.002153970233     1.617387103876    -1.029506806288     1.007825032230
         H            0.002139970233    -1.061812896124    -0.874564806288     1.007825032230
         H            0.002136970233    -1.614058896124     0.821125193712     1.007825032230
         H            2.933514970233     1.224765103876    -0.255425806288     1.007825032230
         H            2.101536970233     0.274038103876    -1.479680806288     1.007825032230
         H           -2.097256029767     0.274080103876    -1.479672806288     1.007825032230
         H           -2.929244029767     1.224761103876    -0.255387806288     1.007825032230
         H            2.674575970233    -1.840916896124    -0.244955806288     1.007825032230
         H            4.139100970233    -0.938005896124    -0.657496806288     1.007825032230
         H            3.506801970233    -0.892463896124     0.994792193712     1.007825032230
         H           -3.502446029767    -0.892520896124     0.994795193712     1.007825032230
         H           -4.134804029767    -0.938009896124    -0.657470806288     1.007825032230
         H           -2.670252029767    -1.840916896124    -0.245018806288     1.007825032230

  Basis Set: AUG-CC-PVTZ
    Blend: AUG-CC-PVTZ
  Basis Set: (AUG-CC-PVTZ AUX)
    Blend: AUG-CC-PVTZ-JKFIT
	 Reference Energy          =    -312.3460119194922981 [Eh]
	 Singles Energy            =      -0.0000000000000000 [Eh]
	 Same-Spin Energy          =      -0.3390764031661217 [Eh]
	 Opposite-Spin Energy      =      -1.2315270017604227 [Eh]
	 Correlation Energy        =      -1.5706034049265445 [Eh]
	 Total Energy              =    -313.9166153244188422 [Eh]

	 ================> DF-SCS-MP2 Energies <==================
	-----------------------------------------------------------
	 SCS Same-Spin Scale       =       0.3333333333333333 [-]
	 SCS Opposite-Spin Scale   =       1.2000000000000000 [-]
	 SCS Same-Spin Energy      =      -0.1130254677220406 [Eh]
	 SCS Opposite-Spin Energy  =      -1.4778324021125073 [Eh]
	 SCS Correlation Energy    =      -1.5908578698345479 [Eh]
	 SCS Total Energy          =    -313.9368697893268632 [Eh]
	-----------------------------------------------------------

  Dipole Moment: [D]
     X:    -0.0044      Y:     0.0806      Z:     0.0867     Total:     0.1185

*** Psi4 exiting successfully. Buy a developer a beer!
