                               Psi4 1.4a3.dev225

  ==> Input File <==

--------------------------------------------------------------------------
#psi4
#
memory 32 gb

molecule  {
0 1
  C        1.0769770     0.3750480     0.4036540
  C       -1.0769820     0.3750600     0.4036550
  C        0.0000030     1.4273620     0.0552210
  C       -0.0000090    -0.7130420     0.1804050
  C        2.3595160     0.3194210    -0.4060430
  C       -2.3595260     0.3194330    -0.4060330
  C        3.2195680    -0.8924030    -0.0547570
  C       -3.2195490    -0.8924170    -0.0547640
  H        1.3139090     0.4360540     1.4748590
  H       -1.3139070     0.4360710     1.4748610
  H        0.0000080     2.3782020     0.5982830
  H        0.0000040     1.6360460    -1.0223960
  H       -0.0000100    -1.0431540    -0.8674540
  H       -0.0000130    -1.5954000     0.8282360
  H        2.9313650     1.2434240    -0.2483150
  H        2.0993870     0.2926970    -1.4725700
  H       -2.0994060     0.2927390    -1.4725620
  H       -2.9313940     1.2434200    -0.2482770
  H        2.6724260    -1.8222580    -0.2378450
  H        4.1369510    -0.9193470    -0.6503860
  H        3.4916297    -0.8746545     0.9536361
  H       -3.5045960    -0.8738620     1.0019060
  H       -4.1369540    -0.9193510    -0.6503600
  H       -2.6724020    -1.8222580    -0.2379080
units angstrom
no_reorient  #important for SAPT in psi4, default
symmetry c1  #important for SAPT in psi4, default
}

set PROPERTIES_ORIGIN ["COM"]
properties('MP2/aug-cc-pvtz', properties = ['dipole'])
--------------------------------------------------------------------------

    Molecular point group: c1
  Charge       = 0
  Multiplicity = 1
  Basis Set: AUG-CC-PVTZ
    Blend: AUG-CC-PVTZ
  Basis Set: (AUG-CC-PVTZ AUX)
    Blend: AUG-CC-PVTZ-JKFIT

    Orbital Energies [Eh]
    ---------------------

    Doubly Occupied:

       1A    -11.218297     2A    -11.218254     3A    -11.213314
       4A    -11.212773     5A    -11.211307     6A    -11.210901
       7A    -11.209117     8A    -11.202785     9A     -1.140565
      10A     -1.046551    11A     -1.008503    12A     -0.900940
      13A     -0.891921    14A     -0.842720    15A     -0.769706
      16A     -0.743776    17A     -0.651694    18A     -0.617803
      19A     -0.612563    20A     -0.587103    21A     -0.572256
      22A     -0.539094    23A     -0.530600    24A     -0.524616
      25A     -0.508681    26A     -0.505504    27A     -0.483782
      28A     -0.464904    29A     -0.442028    30A     -0.440968
      31A     -0.421496    32A     -0.406693

  @DF-RHF Final Energy:  -312.34566763723092

   => Energetics <=

    Nuclear Repulsion Energy =            390.3278785625888077
    One-Electron Energy =               -1194.6446619446664954
    Two-Electron Energy =                 491.9711157448467702
    Total Energy =                       -312.3456676372309175
  Basis Set: (AUG-CC-PVTZ AUX)
    Blend: AUG-CC-PVTZ-RI
    Molecular point group: c1

    Geometry (in Angstrom), charge = 0, multiplicity = 1:

       Center              X                  Y                   Z               Mass
    ------------   -----------------  -----------------  -----------------  -----------------
         C            1.077094083790     0.358147660797     0.397645630893    12.000000000000
         C           -1.076864916210     0.358159660797     0.397646630893    12.000000000000
         C            0.000120083790     1.410461660797     0.049212630893    12.000000000000
         C            0.000108083790    -0.729942339203     0.174396630893    12.000000000000
         C            2.359633083790     0.302520660797    -0.412051369107    12.000000000000
         C           -2.359408916210     0.302532660797    -0.412041369107    12.000000000000
         C            3.219685083790    -0.909303339203    -0.060765369107    12.000000000000
         C           -3.219431916210    -0.909317339203    -0.060772369107    12.000000000000
         H            1.314026083790     0.419153660797     1.468850630893     1.007825032230
         H           -1.313789916210     0.419170660797     1.468852630893     1.007825032230
         H            0.000125083790     2.361301660797     0.592274630893     1.007825032230
         H            0.000121083790     1.619145660797    -1.028404369107     1.007825032230
         H            0.000107083790    -1.060054339203    -0.873462369107     1.007825032230
         H            0.000104083790    -1.612300339203     0.822227630893     1.007825032230
         H            2.931482083790     1.226523660797    -0.254323369107     1.007825032230
         H            2.099504083790     0.275796660797    -1.478578369107     1.007825032230
         H           -2.099288916210     0.275838660797    -1.478570369107     1.007825032230
         H           -2.931276916210     1.226519660797    -0.254285369107     1.007825032230
         H            2.672543083790    -1.839158339203    -0.243853369107     1.007825032230
         H            4.137068083790    -0.936247339203    -0.656394369107     1.007825032230
         H            3.491746783790    -0.891554839203     0.947627730893     1.007825032230
         H           -3.504478916210    -0.890762339203     0.995897630893     1.007825032230
         H           -4.136836916210    -0.936251339203    -0.656368369107     1.007825032230
         H           -2.672284916210    -1.839158339203    -0.243916369107     1.007825032230

  Basis Set: AUG-CC-PVTZ
    Blend: AUG-CC-PVTZ
  Basis Set: (AUG-CC-PVTZ AUX)
    Blend: AUG-CC-PVTZ-JKFIT
	 Reference Energy          =    -312.3456676372309175 [Eh]
	 Singles Energy            =      -0.0000000000000000 [Eh]
	 Same-Spin Energy          =      -0.3391109507603149 [Eh]
	 Opposite-Spin Energy      =      -1.2312799845641251 [Eh]
	 Correlation Energy        =      -1.5703909353244401 [Eh]
	 Total Energy              =    -313.9160585725553574 [Eh]

	 ================> DF-SCS-MP2 Energies <==================
	-----------------------------------------------------------
	 SCS Same-Spin Scale       =       0.3333333333333333 [-]
	 SCS Opposite-Spin Scale   =       1.2000000000000000 [-]
	 SCS Same-Spin Energy      =      -0.1130369835867716 [Eh]
	 SCS Opposite-Spin Energy  =      -1.4775359814769502 [Eh]
	 SCS Correlation Energy    =      -1.5905729650637219 [Eh]
	 SCS Total Energy          =    -313.9362406022946175 [Eh]
	-----------------------------------------------------------

  Dipole Moment: [D]
     X:     0.0144      Y:     0.0680      Z:     0.1119     Total:     0.1317

*** Psi4 exiting successfully. Buy a developer a beer!
