                               Psi4 1.4a3.dev225

  ==> Input File <==

--------------------------------------------------------------------------
#psi4
#
memory 32 gb

molecule  {
0 1
  C        1.0494619     0.3743071     0.3583885
  C       -1.0769820     0.3750600     0.4036550
  C        0.0000030     1.4273620     0.0552210
  C       -0.0000090    -0.7130420     0.1804050
  C        2.3595160     0.3194210    -0.4060430
  C       -2.3595260     0.3194330    -0.4060330
  C        3.2195680    -0.8924030    -0.0547570
  C       -3.2195490    -0.8924170    -0.0547640
  H        1.3139090     0.4360540     1.4748590
  H       -1.3139070     0.4360710     1.4748610
  H        0.0000080     2.3782020     0.5982830
  H        0.0000040     1.6360460    -1.0223960
  H       -0.0000100    -1.0431540    -0.8674540
  H       -0.0000130    -1.5954000     0.8282360
  H        2.9313650     1.2434240    -0.2483150
  H        2.0993870     0.2926970    -1.4725700
  H       -2.0994060     0.2927390    -1.4725620
  H       -2.9313940     1.2434200    -0.2482770
  H        2.6724260    -1.8222580    -0.2378450
  H        4.1369510    -0.9193470    -0.6503860
  H        3.5046520    -0.8738050     1.0019030
  H       -3.5045960    -0.8738620     1.0019060
  H       -4.1369540    -0.9193510    -0.6503600
  H       -2.6724020    -1.8222580    -0.2379080
units angstrom
no_reorient  #important for SAPT in psi4, default
symmetry c1  #important for SAPT in psi4, default
}

set PROPERTIES_ORIGIN ["COM"]
properties('MP2/aug-cc-pvtz', properties = ['dipole'])
--------------------------------------------------------------------------

    Molecular point group: c1
  Charge       = 0
  Multiplicity = 1
  Basis Set: AUG-CC-PVTZ
    Blend: AUG-CC-PVTZ
  Basis Set: (AUG-CC-PVTZ AUX)
    Blend: AUG-CC-PVTZ-JKFIT

    Orbital Energies [Eh]
    ---------------------

    Doubly Occupied:

       1A    -11.220572     2A    -11.219127     3A    -11.213710
       4A    -11.213610     5A    -11.210490     6A    -11.210044
       7A    -11.209845     8A    -11.209355     9A     -1.146944
      10A     -1.045985    11A     -1.008926    12A     -0.899297
      13A     -0.895854    14A     -0.842168    15A     -0.767701
      16A     -0.738739    17A     -0.655265    18A     -0.617427
      19A     -0.613594    20A     -0.585040    21A     -0.573030
      22A     -0.536269    23A     -0.531162    24A     -0.525336
      25A     -0.508493    26A     -0.504894    27A     -0.483193
      28A     -0.460691    29A     -0.446853    30A     -0.432399
      31A     -0.427140    32A     -0.408502

  @DF-RHF Final Energy:  -312.34318888798799

   => Energetics <=

    Nuclear Repulsion Energy =            390.6673549276924859
    One-Electron Energy =               -1195.2977777182641148
    Two-Electron Energy =                 492.2872339025836368
    Total Energy =                       -312.3431888879879921
  Basis Set: (AUG-CC-PVTZ AUX)
    Blend: AUG-CC-PVTZ-RI
    Molecular point group: c1

    Geometry (in Angstrom), charge = 0, multiplicity = 1:

       Center              X                  Y                   Z               Mass
    ------------   -----------------  -----------------  -----------------  -----------------
         C            1.052406688879     0.357478418664     0.356790748735    12.000000000000
         C           -1.074037211121     0.358231318664     0.402057248735    12.000000000000
         C            0.002947788879     1.410533318664     0.053623248735    12.000000000000
         C            0.002935788879    -0.729870681336     0.178807248735    12.000000000000
         C            2.362460788879     0.302592318664    -0.407640751265    12.000000000000
         C           -2.356581211121     0.302604318664    -0.407630751265    12.000000000000
         C            3.222512788879    -0.909231681336    -0.056354751265    12.000000000000
         C           -3.216604211121    -0.909245681336    -0.056361751265    12.000000000000
         H            1.316853788879     0.419225318664     1.473261248735     1.007825032230
         H           -1.310962211121     0.419242318664     1.473263248735     1.007825032230
         H            0.002952788879     2.361373318664     0.596685248735     1.007825032230
         H            0.002948788879     1.619217318664    -1.023993751265     1.007825032230
         H            0.002934788879    -1.059982681336    -0.869051751265     1.007825032230
         H            0.002931788879    -1.612228681336     0.826638248735     1.007825032230
         H            2.934309788879     1.226595318664    -0.249912751265     1.007825032230
         H            2.102331788879     0.275868318664    -1.474167751265     1.007825032230
         H           -2.096461211121     0.275910318664    -1.474159751265     1.007825032230
         H           -2.928449211121     1.226591318664    -0.249874751265     1.007825032230
         H            2.675370788879    -1.839086681336    -0.239442751265     1.007825032230
         H            4.139895788879    -0.936175681336    -0.651983751265     1.007825032230
         H            3.507596788879    -0.890633681336     1.000305248735     1.007825032230
         H           -3.501651211121    -0.890690681336     1.000308248735     1.007825032230
         H           -4.134009211121    -0.936179681336    -0.651957751265     1.007825032230
         H           -2.669457211121    -1.839086681336    -0.239505751265     1.007825032230

  Basis Set: AUG-CC-PVTZ
    Blend: AUG-CC-PVTZ
  Basis Set: (AUG-CC-PVTZ AUX)
    Blend: AUG-CC-PVTZ-JKFIT
	 Reference Energy          =    -312.3431888879879921 [Eh]
	 Singles Energy            =      -0.0000000000000000 [Eh]
	 Same-Spin Energy          =      -0.3394401591941827 [Eh]
	 Opposite-Spin Energy      =      -1.2318211032508899 [Eh]
	 Correlation Energy        =      -1.5712612624450726 [Eh]
	 Total Energy              =    -313.9144501504330833 [Eh]

	 ================> DF-SCS-MP2 Energies <==================
	-----------------------------------------------------------
	 SCS Same-Spin Scale       =       0.3333333333333333 [-]
	 SCS Opposite-Spin Scale   =       1.2000000000000000 [-]
	 SCS Same-Spin Energy      =      -0.1131467197313942 [Eh]
	 SCS Opposite-Spin Energy  =      -1.4781853239010678 [Eh]
	 SCS Correlation Energy    =      -1.5913320436324621 [Eh]
	 SCS Total Energy          =    -313.9345209316204546 [Eh]
	-----------------------------------------------------------

  Dipole Moment: [D]
     X:    -0.0223      Y:     0.0691      Z:     0.0615     Total:     0.0951

*** Psi4 exiting successfully. Buy a developer a beer!
