                               Psi4 1.4a3.dev225

  ==> Input File <==

--------------------------------------------------------------------------
#psi4
#
memory 32 gb

molecule  {
0 1
  C        1.0769770     0.3750480     0.4036540
  C       -1.0769820     0.3750600     0.4036550
  C        0.0031815     1.4698536     0.2112814
  C       -0.0000090    -0.7130420     0.1804050
  C        2.3595160     0.3194210    -0.4060430
  C       -2.3595260     0.3194330    -0.4060330
  C        3.2195680    -0.8924030    -0.0547570
  C       -3.2195490    -0.8924170    -0.0547640
  H        1.3139090     0.4360540     1.4748590
  H       -1.3139070     0.4360710     1.4748610
  H        0.0000080     2.3782020     0.5982830
  H        0.0000040     1.6360460    -1.0223960
  H       -0.0000100    -1.0431540    -0.8674540
  H       -0.0000130    -1.5954000     0.8282360
  H        2.9313650     1.2434240    -0.2483150
  H        2.0993870     0.2926970    -1.4725700
  H       -2.0994060     0.2927390    -1.4725620
  H       -2.9313940     1.2434200    -0.2482770
  H        2.6724260    -1.8222580    -0.2378450
  H        4.1369510    -0.9193470    -0.6503860
  H        3.5046520    -0.8738050     1.0019030
  H       -3.5045960    -0.8738620     1.0019060
  H       -4.1369540    -0.9193510    -0.6503600
  H       -2.6724020    -1.8222580    -0.2379080
units angstrom
no_reorient  #important for SAPT in psi4, default
symmetry c1  #important for SAPT in psi4, default
}

set PROPERTIES_ORIGIN ["COM"]
properties('MP2/aug-cc-pvtz', properties = ['dipole'])
--------------------------------------------------------------------------

    Molecular point group: c1
  Charge       = 0
  Multiplicity = 1
  Basis Set: AUG-CC-PVTZ
    Blend: AUG-CC-PVTZ
  Basis Set: (AUG-CC-PVTZ AUX)
    Blend: AUG-CC-PVTZ-JKFIT

    Orbital Energies [Eh]
    ---------------------

    Doubly Occupied:

       1A    -11.221680     2A    -11.221557     3A    -11.216426
       4A    -11.214855     5A    -11.214808     6A    -11.212408
       7A    -11.210168     8A    -11.210129     9A     -1.139093
      10A     -1.046523    11A     -1.008478    12A     -0.899801
      13A     -0.897504    14A     -0.843599    15A     -0.771344
      16A     -0.739873    17A     -0.668349    18A     -0.617802
      19A     -0.612285    20A     -0.585332    21A     -0.573517
      22A     -0.533620    23A     -0.526243    24A     -0.522944
      25A     -0.509207    26A     -0.495859    27A     -0.484265
      28A     -0.464102    29A     -0.447655    30A     -0.444759
      31A     -0.409165    32A     -0.405667

  @DF-RHF Final Energy:  -312.31901205226956

   => Energetics <=

    Nuclear Repulsion Energy =            389.4969646663334402
    One-Electron Energy =               -1192.8939201508869701
    Two-Electron Energy =                 491.0779434322839165
    Total Energy =                       -312.3190120522695565
  Basis Set: (AUG-CC-PVTZ AUX)
    Blend: AUG-CC-PVTZ-RI
    Molecular point group: c1

    Geometry (in Angstrom), charge = 0, multiplicity = 1:

       Center              X                  Y                   Z               Mass
    ------------   -----------------  -----------------  -----------------  -----------------
         C            1.076636860974     0.353592437306     0.380509702652    12.000000000000
         C           -1.077322139026     0.353604437306     0.380510702652    12.000000000000
         C            0.002841360974     1.448398037306     0.188137102652    12.000000000000
         C           -0.000349139026    -0.734497562694     0.157260702652    12.000000000000
         C            2.359175860974     0.297965437306    -0.429187297348    12.000000000000
         C           -2.359866139026     0.297977437306    -0.429177297348    12.000000000000
         C            3.219227860974    -0.913858562694    -0.077901297348    12.000000000000
         C           -3.219889139026    -0.913872562694    -0.077908297348    12.000000000000
         H            1.313568860974     0.414598437306     1.451714702652     1.007825032230
         H           -1.314247139026     0.414615437306     1.451716702652     1.007825032230
         H           -0.000332139026     2.356746437306     0.575138702652     1.007825032230
         H           -0.000336139026     1.614590437306    -1.045540297348     1.007825032230
         H           -0.000350139026    -1.064609562694    -0.890598297348     1.007825032230
         H           -0.000353139026    -1.616855562694     0.805091702652     1.007825032230
         H            2.931024860974     1.221968437306    -0.271459297348     1.007825032230
         H            2.099046860974     0.271241437306    -1.495714297348     1.007825032230
         H           -2.099746139026     0.271283437306    -1.495706297348     1.007825032230
         H           -2.931734139026     1.221964437306    -0.271421297348     1.007825032230
         H            2.672085860974    -1.843713562694    -0.260989297348     1.007825032230
         H            4.136610860974    -0.940802562694    -0.673530297348     1.007825032230
         H            3.504311860974    -0.895260562694     0.978758702652     1.007825032230
         H           -3.504936139026    -0.895317562694     0.978761702652     1.007825032230
         H           -4.137294139026    -0.940806562694    -0.673504297348     1.007825032230
         H           -2.672742139026    -1.843713562694    -0.261052297348     1.007825032230

  Basis Set: AUG-CC-PVTZ
    Blend: AUG-CC-PVTZ
  Basis Set: (AUG-CC-PVTZ AUX)
    Blend: AUG-CC-PVTZ-JKFIT
	 Reference Energy          =    -312.3190120522695565 [Eh]
	 Singles Energy            =      -0.0000000000000000 [Eh]
	 Same-Spin Energy          =      -0.3396587553235920 [Eh]
	 Opposite-Spin Energy      =      -1.2330465061453590 [Eh]
	 Correlation Energy        =      -1.5727052614689510 [Eh]
	 Total Energy              =    -313.8917173137385248 [Eh]

	 ================> DF-SCS-MP2 Energies <==================
	-----------------------------------------------------------
	 SCS Same-Spin Scale       =       0.3333333333333333 [-]
	 SCS Opposite-Spin Scale   =       1.2000000000000000 [-]
	 SCS Same-Spin Energy      =      -0.1132195851078640 [Eh]
	 SCS Opposite-Spin Energy  =      -1.4796558073744308 [Eh]
	 SCS Correlation Energy    =      -1.5928753924822947 [Eh]
	 SCS Total Energy          =    -313.9118874447518692 [Eh]
	-----------------------------------------------------------

  Dipole Moment: [D]
     X:    -0.0019      Y:     0.0517      Z:     0.2294     Total:     0.2351

*** Psi4 exiting successfully. Buy a developer a beer!
