                               Psi4 1.4a3.dev225

  ==> Input File <==

--------------------------------------------------------------------------
#psi4
#
memory 32 gb

molecule  {
0 1
  C        1.0769770     0.3750480     0.4036540
  C       -1.0769820     0.3750600     0.4036550
  C        0.0000030     1.4273620     0.0552210
  C       -0.0000090    -0.7130420     0.1804050
  C        2.3595160     0.3194210    -0.4060430
  C       -2.3595260     0.3194330    -0.4060330
  C        3.2195680    -0.8924030    -0.0547570
  C       -3.1785923    -0.9240251    -0.0675774
  H        1.3139090     0.4360540     1.4748590
  H       -1.3139070     0.4360710     1.4748610
  H        0.0000080     2.3782020     0.5982830
  H        0.0000040     1.6360460    -1.0223960
  H       -0.0000100    -1.0431540    -0.8674540
  H       -0.0000130    -1.5954000     0.8282360
  H        2.9313650     1.2434240    -0.2483150
  H        2.0993870     0.2926970    -1.4725700
  H       -2.0994060     0.2927390    -1.4725620
  H       -2.9313940     1.2434200    -0.2482770
  H        2.6724260    -1.8222580    -0.2378450
  H        4.1369510    -0.9193470    -0.6503860
  H        3.5046520    -0.8738050     1.0019030
  H       -3.5045960    -0.8738620     1.0019060
  H       -4.1369540    -0.9193510    -0.6503600
  H       -2.6724020    -1.8222580    -0.2379080
units angstrom
no_reorient  #important for SAPT in psi4, default
symmetry c1  #important for SAPT in psi4, default
}

set PROPERTIES_ORIGIN ["COM"]
properties('MP2/aug-cc-pvtz', properties = ['dipole'])
--------------------------------------------------------------------------

    Molecular point group: c1
  Charge       = 0
  Multiplicity = 1
  Basis Set: AUG-CC-PVTZ
    Blend: AUG-CC-PVTZ
  Basis Set: (AUG-CC-PVTZ AUX)
    Blend: AUG-CC-PVTZ-JKFIT

    Orbital Energies [Eh]
    ---------------------

    Doubly Occupied:

       1A    -11.218389     2A    -11.217952     3A    -11.213678
       4A    -11.213389     5A    -11.211566     6A    -11.210664
       7A    -11.209628     8A    -11.209203     9A     -1.140699
      10A     -1.046290    11A     -1.007459    12A     -0.899027
      13A     -0.892113    14A     -0.841357    15A     -0.769533
      16A     -0.743699    17A     -0.651816    18A     -0.619522
      19A     -0.612459    20A     -0.585716    21A     -0.568852
      22A     -0.536331    23A     -0.530783    24A     -0.523945
      25A     -0.514231    26A     -0.504024    27A     -0.481526
      28A     -0.461885    29A     -0.442502    30A     -0.441196
      31A     -0.422089    32A     -0.405488

  @DF-RHF Final Energy:  -312.34342967286130

   => Energetics <=

    Nuclear Repulsion Energy =            390.3584696737244712
    One-Electron Energy =               -1194.7097764272764380
    Two-Electron Energy =                 492.0078770806906618
    Total Energy =                       -312.3434296728613049
  Basis Set: (AUG-CC-PVTZ AUX)
    Blend: AUG-CC-PVTZ-RI
    Molecular point group: c1

    Geometry (in Angstrom), charge = 0, multiplicity = 1:

       Center              X                  Y                   Z               Mass
    ------------   -----------------  -----------------  -----------------  -----------------
         C            1.072593716365     0.361522825799     0.398583120498    12.000000000000
         C           -1.081365283635     0.361534825799     0.398584120498    12.000000000000
         C           -0.004380283635     1.413836825799     0.050150120498    12.000000000000
         C           -0.004392283635    -0.726567174201     0.175334120498    12.000000000000
         C            2.355132716365     0.305895825799    -0.411113879502    12.000000000000
         C           -2.363909283635     0.305907825799    -0.411103879502    12.000000000000
         C            3.215184716365    -0.905928174201    -0.059827879502    12.000000000000
         C           -3.182975583635    -0.937550274201    -0.072648279502    12.000000000000
         H            1.309525716365     0.422528825799     1.469788120498     1.007825032230
         H           -1.318290283635     0.422545825799     1.469790120498     1.007825032230
         H           -0.004375283635     2.364676825799     0.593212120498     1.007825032230
         H           -0.004379283635     1.622520825799    -1.027466879502     1.007825032230
         H           -0.004393283635    -1.056679174201    -0.872524879502     1.007825032230
         H           -0.004396283635    -1.608925174201     0.823165120498     1.007825032230
         H            2.926981716365     1.229898825799    -0.253385879502     1.007825032230
         H            2.095003716365     0.279171825799    -1.477640879502     1.007825032230
         H           -2.103789283635     0.279213825799    -1.477632879502     1.007825032230
         H           -2.935777283635     1.229894825799    -0.253347879502     1.007825032230
         H            2.668042716365    -1.835783174201    -0.242915879502     1.007825032230
         H            4.132567716365    -0.932872174201    -0.655456879502     1.007825032230
         H            3.500268716365    -0.887330174201     0.996832120498     1.007825032230
         H           -3.508979283635    -0.887387174201     0.996835120498     1.007825032230
         H           -4.141337283635    -0.932876174201    -0.655430879502     1.007825032230
         H           -2.676785283635    -1.835783174201    -0.242978879502     1.007825032230

  Basis Set: AUG-CC-PVTZ
    Blend: AUG-CC-PVTZ
  Basis Set: (AUG-CC-PVTZ AUX)
    Blend: AUG-CC-PVTZ-JKFIT
	 Reference Energy          =    -312.3434296728613049 [Eh]
	 Singles Energy            =      -0.0000000000000000 [Eh]
	 Same-Spin Energy          =      -0.3391539763167313 [Eh]
	 Opposite-Spin Energy      =      -1.2317203492544080 [Eh]
	 Correlation Energy        =      -1.5708743255711393 [Eh]
	 Total Energy              =    -313.9143039984324446 [Eh]

	 ================> DF-SCS-MP2 Energies <==================
	-----------------------------------------------------------
	 SCS Same-Spin Scale       =       0.3333333333333333 [-]
	 SCS Opposite-Spin Scale   =       1.2000000000000000 [-]
	 SCS Same-Spin Energy      =      -0.1130513254389104 [Eh]
	 SCS Opposite-Spin Energy  =      -1.4780644191052896 [Eh]
	 SCS Correlation Energy    =      -1.5911157445442001 [Eh]
	 SCS Total Energy          =    -313.9345454174055021 [Eh]
	-----------------------------------------------------------

  Dipole Moment: [D]
     X:     0.0117      Y:     0.0698      Z:     0.0758     Total:     0.1037

*** Psi4 exiting successfully. Buy a developer a beer!
