                               Psi4 1.4a3.dev225

  ==> Input File <==

--------------------------------------------------------------------------
#psi4
#
memory 32 gb

molecule  {
0 1
  C        1.1366596     0.3763256     0.4911715
  C       -1.0769820     0.3750600     0.4036550
  C        0.0000030     1.4273620     0.0552210
  C       -0.0000090    -0.7130420     0.1804050
  C        2.3595160     0.3194210    -0.4060430
  C       -2.3595260     0.3194330    -0.4060330
  C        3.2195680    -0.8924030    -0.0547570
  C       -3.2195490    -0.8924170    -0.0547640
  H        1.3139090     0.4360540     1.4748590
  H       -1.3139070     0.4360710     1.4748610
  H        0.0000080     2.3782020     0.5982830
  H        0.0000040     1.6360460    -1.0223960
  H       -0.0000100    -1.0431540    -0.8674540
  H       -0.0000130    -1.5954000     0.8282360
  H        2.9313650     1.2434240    -0.2483150
  H        2.0993870     0.2926970    -1.4725700
  H       -2.0994060     0.2927390    -1.4725620
  H       -2.9313940     1.2434200    -0.2482770
  H        2.6724260    -1.8222580    -0.2378450
  H        4.1369510    -0.9193470    -0.6503860
  H        3.5046520    -0.8738050     1.0019030
  H       -3.5045960    -0.8738620     1.0019060
  H       -4.1369540    -0.9193510    -0.6503600
  H       -2.6724020    -1.8222580    -0.2379080
units angstrom
no_reorient  #important for SAPT in psi4, default
symmetry c1  #important for SAPT in psi4, default
}

set PROPERTIES_ORIGIN ["COM"]
properties('MP2/aug-cc-pvtz', properties = ['dipole'])
--------------------------------------------------------------------------

    Molecular point group: c1
  Charge       = 0
  Multiplicity = 1
  Basis Set: AUG-CC-PVTZ
    Blend: AUG-CC-PVTZ
  Basis Set: (AUG-CC-PVTZ AUX)
    Blend: AUG-CC-PVTZ-JKFIT

    Orbital Energies [Eh]
    ---------------------

    Doubly Occupied:

       1A    -11.217335     2A    -11.215684     3A    -11.214199
       4A    -11.213827     5A    -11.213709     6A    -11.213197
       7A    -11.208961     8A    -11.207930     9A     -1.129189
      10A     -1.046511    11A     -1.004422    12A     -0.900164
      13A     -0.885244    14A     -0.839183    15A     -0.779196
      16A     -0.749836    17A     -0.644665    18A     -0.617927
      19A     -0.609385    20A     -0.585275    21A     -0.571040
      22A     -0.543909    23A     -0.530209    24A     -0.521999
      25A     -0.509173    26A     -0.503919    27A     -0.482005
      28A     -0.476961    29A     -0.449977    30A     -0.435087
      31A     -0.404140    32A     -0.400632

  @DF-RHF Final Energy:  -312.33401431337904

   => Energetics <=

    Nuclear Repulsion Energy =            388.9678385077892244
    One-Electron Energy =               -1191.9539304532361257
    Two-Electron Energy =                 490.6520776320678578
    Total Energy =                       -312.3340143133790434
  Basis Set: (AUG-CC-PVTZ AUX)
    Blend: AUG-CC-PVTZ-RI
    Molecular point group: c1

    Geometry (in Angstrom), charge = 0, multiplicity = 1:

       Center              X                  Y                   Z               Mass
    ------------   -----------------  -----------------  -----------------  -----------------
         C            1.130272210250     0.359280892294     0.475362884517    12.000000000000
         C           -1.083369389750     0.358015292294     0.387846384517    12.000000000000
         C           -0.006384389750     1.410317292294     0.039412384517    12.000000000000
         C           -0.006396389750    -0.730086707706     0.164596384517    12.000000000000
         C            2.353128610250     0.302376292294    -0.421851615483    12.000000000000
         C           -2.365913389750     0.302388292294    -0.421841615483    12.000000000000
         C            3.213180610250    -0.909447707706    -0.070565615483    12.000000000000
         C           -3.225936389750    -0.909461707706    -0.070572615483    12.000000000000
         H            1.307521610250     0.419009292294     1.459050384517     1.007825032230
         H           -1.320294389750     0.419026292294     1.459052384517     1.007825032230
         H           -0.006379389750     2.361157292294     0.582474384517     1.007825032230
         H           -0.006383389750     1.619001292294    -1.038204615483     1.007825032230
         H           -0.006397389750    -1.060198707706    -0.883262615483     1.007825032230
         H           -0.006400389750    -1.612444707706     0.812427384517     1.007825032230
         H            2.924977610250     1.226379292294    -0.264123615483     1.007825032230
         H            2.092999610250     0.275652292294    -1.488378615483     1.007825032230
         H           -2.105793389750     0.275694292294    -1.488370615483     1.007825032230
         H           -2.937781389750     1.226375292294    -0.264085615483     1.007825032230
         H            2.666038610250    -1.839302707706    -0.253653615483     1.007825032230
         H            4.130563610250    -0.936391707706    -0.666194615483     1.007825032230
         H            3.498264610250    -0.890849707706     0.986094384517     1.007825032230
         H           -3.510983389750    -0.890906707706     0.986097384517     1.007825032230
         H           -4.143341389750    -0.936395707706    -0.666168615483     1.007825032230
         H           -2.678789389750    -1.839302707706    -0.253716615483     1.007825032230

  Basis Set: AUG-CC-PVTZ
    Blend: AUG-CC-PVTZ
  Basis Set: (AUG-CC-PVTZ AUX)
    Blend: AUG-CC-PVTZ-JKFIT
	 Reference Energy          =    -312.3340143133790434 [Eh]
	 Singles Energy            =      -0.0000000000000000 [Eh]
	 Same-Spin Energy          =      -0.3388069988995495 [Eh]
	 Opposite-Spin Energy      =      -1.2320750201624433 [Eh]
	 Correlation Energy        =      -1.5708820190619928 [Eh]
	 Total Energy              =    -313.9048963324410124 [Eh]

	 ================> DF-SCS-MP2 Energies <==================
	-----------------------------------------------------------
	 SCS Same-Spin Scale       =       0.3333333333333333 [-]
	 SCS Opposite-Spin Scale   =       1.2000000000000000 [-]
	 SCS Same-Spin Energy      =      -0.1129356662998498 [Eh]
	 SCS Opposite-Spin Energy  =      -1.4784900241949319 [Eh]
	 SCS Correlation Energy    =      -1.5914256904947817 [Eh]
	 SCS Total Energy          =    -313.9254400038738027 [Eh]
	-----------------------------------------------------------

  Dipole Moment: [D]
     X:     0.0252      Y:     0.0813      Z:     0.0988     Total:     0.1304

*** Psi4 exiting successfully. Buy a developer a beer!
