                               Psi4 1.4a3.dev225

  ==> Input File <==

--------------------------------------------------------------------------
#psi4
#
memory 32 gb

molecule  {
0 1
  C        1.0769770     0.3750480     0.4036540
  C       -1.0769820     0.3750600     0.4036550
  C        0.0000030     1.4273620     0.0552210
  C       -0.0000090    -0.7130420     0.1804050
  C        2.3595160     0.3194210    -0.4060430
  C       -2.4130117     0.3244169    -0.3147237
  C        3.2195680    -0.8924030    -0.0547570
  C       -3.2195490    -0.8924170    -0.0547640
  H        1.3139090     0.4360540     1.4748590
  H       -1.3139070     0.4360710     1.4748610
  H        0.0000080     2.3782020     0.5982830
  H        0.0000040     1.6360460    -1.0223960
  H       -0.0000100    -1.0431540    -0.8674540
  H       -0.0000130    -1.5954000     0.8282360
  H        2.9313650     1.2434240    -0.2483150
  H        2.0993870     0.2926970    -1.4725700
  H       -2.0994060     0.2927390    -1.4725620
  H       -2.9313940     1.2434200    -0.2482770
  H        2.6724260    -1.8222580    -0.2378450
  H        4.1369510    -0.9193470    -0.6503860
  H        3.5046520    -0.8738050     1.0019030
  H       -3.5045960    -0.8738620     1.0019060
  H       -4.1369540    -0.9193510    -0.6503600
  H       -2.6724020    -1.8222580    -0.2379080
units angstrom
no_reorient  #important for SAPT in psi4, default
symmetry c1  #important for SAPT in psi4, default
}

set PROPERTIES_ORIGIN ["COM"]
properties('MP2/aug-cc-pvtz', properties = ['dipole'])
--------------------------------------------------------------------------

    Molecular point group: c1
  Charge       = 0
  Multiplicity = 1
  Basis Set: AUG-CC-PVTZ
    Blend: AUG-CC-PVTZ
  Basis Set: (AUG-CC-PVTZ AUX)
    Blend: AUG-CC-PVTZ-JKFIT

    Orbital Energies [Eh]
    ---------------------

    Doubly Occupied:

       1A    -11.219345     2A    -11.219007     3A    -11.217423
       4A    -11.213796     5A    -11.212755     6A    -11.212424
       7A    -11.209442     8A    -11.208897     9A     -1.140933
      10A     -1.050192    11A     -1.012118    12A     -0.901145
      13A     -0.892496    14A     -0.841042    15A     -0.767618
      16A     -0.742536    17A     -0.652010    18A     -0.621214
      19A     -0.612916    20A     -0.583245    21A     -0.577187
      22A     -0.540253    23A     -0.532056    24A     -0.530768
      25A     -0.511598    26A     -0.505703    27A     -0.477496
      28A     -0.450385    29A     -0.446815    30A     -0.428387
      31A     -0.423598    32A     -0.412026

  @DF-RHF Final Energy:  -312.33504411306023

   => Energetics <=

    Nuclear Repulsion Energy =            390.0933262292656991
    One-Electron Energy =               -1194.1230851503135000
    Two-Electron Energy =                 491.6947148079875660
    Total Energy =                       -312.3350441130602348
  Basis Set: (AUG-CC-PVTZ AUX)
    Blend: AUG-CC-PVTZ-RI
    Molecular point group: c1

    Geometry (in Angstrom), charge = 0, multiplicity = 1:

       Center              X                  Y                   Z               Mass
    ------------   -----------------  -----------------  -----------------  -----------------
         C            1.082701246115     0.357606632134     0.387439573871    12.000000000000
         C           -1.071257753885     0.357618632134     0.387440573871    12.000000000000
         C            0.005727246115     1.409920632134     0.039006573871    12.000000000000
         C            0.005715246115    -0.730483367866     0.164190573871    12.000000000000
         C            2.365240246115     0.301979632134    -0.422257426129    12.000000000000
         C           -2.407287453885     0.306975532134    -0.330938126129    12.000000000000
         C            3.225292246115    -0.909844367866    -0.070971426129    12.000000000000
         C           -3.213824753885    -0.909858367866    -0.070978426129    12.000000000000
         H            1.319633246115     0.418612632134     1.458644573871     1.007825032230
         H           -1.308182753885     0.418629632134     1.458646573871     1.007825032230
         H            0.005732246115     2.360760632134     0.582068573871     1.007825032230
         H            0.005728246115     1.618604632134    -1.038610426129     1.007825032230
         H            0.005714246115    -1.060595367866    -0.883668426129     1.007825032230
         H            0.005711246115    -1.612841367866     0.812021573871     1.007825032230
         H            2.937089246115     1.225982632134    -0.264529426129     1.007825032230
         H            2.105111246115     0.275255632134    -1.488784426129     1.007825032230
         H           -2.093681753885     0.275297632134    -1.488776426129     1.007825032230
         H           -2.925669753885     1.225978632134    -0.264491426129     1.007825032230
         H            2.678150246115    -1.839699367866    -0.254059426129     1.007825032230
         H            4.142675246115    -0.936788367866    -0.666600426129     1.007825032230
         H            3.510376246115    -0.891246367866     0.985688573871     1.007825032230
         H           -3.498871753885    -0.891303367866     0.985691573871     1.007825032230
         H           -4.131229753885    -0.936792367866    -0.666574426129     1.007825032230
         H           -2.666677753885    -1.839699367866    -0.254122426129     1.007825032230

  Basis Set: AUG-CC-PVTZ
    Blend: AUG-CC-PVTZ
  Basis Set: (AUG-CC-PVTZ AUX)
    Blend: AUG-CC-PVTZ-JKFIT
	 Reference Energy          =    -312.3350441130602348 [Eh]
	 Singles Energy            =      -0.0000000000000000 [Eh]
	 Same-Spin Energy          =      -0.3395888464781499 [Eh]
	 Opposite-Spin Energy      =      -1.2322986452928308 [Eh]
	 Correlation Energy        =      -1.5718874917709806 [Eh]
	 Total Energy              =    -313.9069316048312430 [Eh]

	 ================> DF-SCS-MP2 Energies <==================
	-----------------------------------------------------------
	 SCS Same-Spin Scale       =       0.3333333333333333 [-]
	 SCS Opposite-Spin Scale   =       1.2000000000000000 [-]
	 SCS Same-Spin Energy      =      -0.1131962821593833 [Eh]
	 SCS Opposite-Spin Energy  =      -1.4787583743513970 [Eh]
	 SCS Correlation Energy    =      -1.5919546565107803 [Eh]
	 SCS Total Energy          =    -313.9269987695710142 [Eh]
	-----------------------------------------------------------

  Dipole Moment: [D]
     X:    -0.0131      Y:     0.0713      Z:     0.1505     Total:     0.1670

*** Psi4 exiting successfully. Buy a developer a beer!
