                               Psi4 1.4a3.dev225

  ==> Input File <==

--------------------------------------------------------------------------
#psi4
#
memory 32 gb

molecule  {
0 1
  C        0.9968711     0.4459912     0.4182097
  C       -1.0769820     0.3750600     0.4036550
  C        0.0000030     1.4273620     0.0552210
  C       -0.0000090    -0.7130420     0.1804050
  C        2.3595160     0.3194210    -0.4060430
  C       -2.3595260     0.3194330    -0.4060330
  C        3.2195680    -0.8924030    -0.0547570
  C       -3.2195490    -0.8924170    -0.0547640
  H        1.3139090     0.4360540     1.4748590
  H       -1.3139070     0.4360710     1.4748610
  H        0.0000080     2.3782020     0.5982830
  H        0.0000040     1.6360460    -1.0223960
  H       -0.0000100    -1.0431540    -0.8674540
  H       -0.0000130    -1.5954000     0.8282360
  H        2.9313650     1.2434240    -0.2483150
  H        2.0993870     0.2926970    -1.4725700
  H       -2.0994060     0.2927390    -1.4725620
  H       -2.9313940     1.2434200    -0.2482770
  H        2.6724260    -1.8222580    -0.2378450
  H        4.1369510    -0.9193470    -0.6503860
  H        3.5046520    -0.8738050     1.0019030
  H       -3.5045960    -0.8738620     1.0019060
  H       -4.1369540    -0.9193510    -0.6503600
  H       -2.6724020    -1.8222580    -0.2379080
units angstrom
no_reorient  #important for SAPT in psi4, default
symmetry c1  #important for SAPT in psi4, default
}

set PROPERTIES_ORIGIN ["COM"]
properties('MP2/aug-cc-pvtz', properties = ['dipole'])
--------------------------------------------------------------------------

    Molecular point group: c1
  Charge       = 0
  Multiplicity = 1
  Basis Set: AUG-CC-PVTZ
    Blend: AUG-CC-PVTZ
  Basis Set: (AUG-CC-PVTZ AUX)
    Blend: AUG-CC-PVTZ-JKFIT

    Orbital Energies [Eh]
    ---------------------

    Doubly Occupied:

       1A    -11.219933     2A    -11.219268     3A    -11.214776
       4A    -11.212919     5A    -11.209572     6A    -11.209199
       7A    -11.209107     8A    -11.206887     9A     -1.153244
      10A     -1.040446    11A     -1.007310    12A     -0.901833
      13A     -0.893484    14A     -0.837788    15A     -0.768027
      16A     -0.745114    17A     -0.658387    18A     -0.613871
      19A     -0.608727    20A     -0.585089    21A     -0.573738
      22A     -0.537811    23A     -0.533096    24A     -0.525157
      25A     -0.506583    26A     -0.504520    27A     -0.481697
      28A     -0.462157    29A     -0.455800    30A     -0.435269
      31A     -0.430879    32A     -0.390819

  @DF-RHF Final Energy:  -312.33493243233858

   => Energetics <=

    Nuclear Repulsion Energy =            390.5310877812104309
    One-Electron Energy =               -1195.0270274814693039
    Two-Electron Energy =                 492.1610072679202972
    Total Energy =                       -312.3349324323385758
  Basis Set: (AUG-CC-PVTZ AUX)
    Blend: AUG-CC-PVTZ-RI
    Molecular point group: c1

    Geometry (in Angstrom), charge = 0, multiplicity = 1:

       Center              X                  Y                   Z               Mass
    ------------   -----------------  -----------------  -----------------  -----------------
         C            1.005444325636     0.421490655460     0.410209691288    12.000000000000
         C           -1.068408774364     0.350559455460     0.395654991288    12.000000000000
         C            0.008576225636     1.402861455460     0.047220991288    12.000000000000
         C            0.008564225636    -0.737542544540     0.172404991288    12.000000000000
         C            2.368089225636     0.294920455460    -0.414043008712    12.000000000000
         C           -2.350952774364     0.294932455460    -0.414033008712    12.000000000000
         C            3.228141225636    -0.916903544540    -0.062757008712    12.000000000000
         C           -3.210975774364    -0.916917544540    -0.062764008712    12.000000000000
         H            1.322482225636     0.411553455460     1.466858991288     1.007825032230
         H           -1.305333774364     0.411570455460     1.466860991288     1.007825032230
         H            0.008581225636     2.353701455460     0.590282991288     1.007825032230
         H            0.008577225636     1.611545455460    -1.030396008712     1.007825032230
         H            0.008563225636    -1.067654544540    -0.875454008712     1.007825032230
         H            0.008560225636    -1.619900544540     0.820235991288     1.007825032230
         H            2.939938225636     1.218923455460    -0.256315008712     1.007825032230
         H            2.107960225636     0.268196455460    -1.480570008712     1.007825032230
         H           -2.090832774364     0.268238455460    -1.480562008712     1.007825032230
         H           -2.922820774364     1.218919455460    -0.256277008712     1.007825032230
         H            2.680999225636    -1.846758544540    -0.245845008712     1.007825032230
         H            4.145524225636    -0.943847544540    -0.658386008712     1.007825032230
         H            3.513225225636    -0.898305544540     0.993902991288     1.007825032230
         H           -3.496022774364    -0.898362544540     0.993905991288     1.007825032230
         H           -4.128380774364    -0.943851544540    -0.658360008712     1.007825032230
         H           -2.663828774364    -1.846758544540    -0.245908008712     1.007825032230

  Basis Set: AUG-CC-PVTZ
    Blend: AUG-CC-PVTZ
  Basis Set: (AUG-CC-PVTZ AUX)
    Blend: AUG-CC-PVTZ-JKFIT
	 Reference Energy          =    -312.3349324323385758 [Eh]
	 Singles Energy            =      -0.0000000000000000 [Eh]
	 Same-Spin Energy          =      -0.3396320342362011 [Eh]
	 Opposite-Spin Energy      =      -1.2320271862625032 [Eh]
	 Correlation Energy        =      -1.5716592204987043 [Eh]
	 Total Energy              =    -313.9065916528372782 [Eh]

	 ================> DF-SCS-MP2 Energies <==================
	-----------------------------------------------------------
	 SCS Same-Spin Scale       =       0.3333333333333333 [-]
	 SCS Opposite-Spin Scale   =       1.2000000000000000 [-]
	 SCS Same-Spin Energy      =      -0.1132106780787337 [Eh]
	 SCS Opposite-Spin Energy  =      -1.4784326235150038 [Eh]
	 SCS Correlation Energy    =      -1.5916433015937375 [Eh]
	 SCS Total Energy          =    -313.9265757339323386 [Eh]
	-----------------------------------------------------------

  Dipole Moment: [D]
     X:    -0.0749      Y:     0.0814      Z:     0.1248     Total:     0.1667

*** Psi4 exiting successfully. Buy a developer a beer!
