                               Psi4 1.4a3.dev225

  ==> Input File <==

--------------------------------------------------------------------------
#psi4
#
memory 32 gb

molecule  {
0 1
  C        1.0769770     0.3750480     0.4036540
  C       -1.0769820     0.3750600     0.4036550
  C        0.0000030     1.4273620     0.0552210
  C       -0.0000090    -0.7130420     0.1804050
  C        2.3595160     0.3194210    -0.4060430
  C       -2.4373288     0.3270030    -0.2677281
  C        3.2195680    -0.8924030    -0.0547570
  C       -3.2195490    -0.8924170    -0.0547640
  H        1.3139090     0.4360540     1.4748590
  H       -1.3139070     0.4360710     1.4748610
  H        0.0000080     2.3782020     0.5982830
  H        0.0000040     1.6360460    -1.0223960
  H       -0.0000100    -1.0431540    -0.8674540
  H       -0.0000130    -1.5954000     0.8282360
  H        2.9313650     1.2434240    -0.2483150
  H        2.0993870     0.2926970    -1.4725700
  H       -2.0994060     0.2927390    -1.4725620
  H       -2.9313940     1.2434200    -0.2482770
  H        2.6724260    -1.8222580    -0.2378450
  H        4.1369510    -0.9193470    -0.6503860
  H        3.5046520    -0.8738050     1.0019030
  H       -3.5045960    -0.8738620     1.0019060
  H       -4.1369540    -0.9193510    -0.6503600
  H       -2.6724020    -1.8222580    -0.2379080
units angstrom
no_reorient  #important for SAPT in psi4, default
symmetry c1  #important for SAPT in psi4, default
}

set PROPERTIES_ORIGIN ["COM"]
properties('MP2/aug-cc-pvtz', properties = ['dipole'])
--------------------------------------------------------------------------

    Molecular point group: c1
  Charge       = 0
  Multiplicity = 1
  Basis Set: AUG-CC-PVTZ
    Blend: AUG-CC-PVTZ
  Basis Set: (AUG-CC-PVTZ AUX)
    Blend: AUG-CC-PVTZ-JKFIT

    Orbital Energies [Eh]
    ---------------------

    Doubly Occupied:

       1A    -11.221011     2A    -11.220210     3A    -11.219417
       4A    -11.214054     5A    -11.213563     6A    -11.213244
       7A    -11.209620     8A    -11.209404     9A     -1.141335
      10A     -1.052947    11A     -1.014254    12A     -0.902382
      13A     -0.892884    14A     -0.841622    15A     -0.767952
      16A     -0.742380    17A     -0.652251    18A     -0.624103
      19A     -0.612523    20A     -0.583008    21A     -0.580605
      22A     -0.544493    23A     -0.533508    24A     -0.530924
      25A     -0.513286    26A     -0.505646    27A     -0.476291
      28A     -0.449979    29A     -0.446990    30A     -0.424565
      31A     -0.420085    32A     -0.408531

  @DF-RHF Final Energy:  -312.32228207600599

   => Energetics <=

    Nuclear Repulsion Energy =            390.0754368602300701
    One-Electron Energy =               -1194.0293053660207079
    Two-Electron Energy =                 491.6315864297846474
    Total Energy =                       -312.3222820760059903
  Basis Set: (AUG-CC-PVTZ AUX)
    Blend: AUG-CC-PVTZ-RI
    Molecular point group: c1

    Geometry (in Angstrom), charge = 0, multiplicity = 1:

       Center              X                  Y                   Z               Mass
    ------------   -----------------  -----------------  -----------------  -----------------
         C            1.085303740458     0.357329859385     0.382409953435    12.000000000000
         C           -1.068655259542     0.357341859385     0.382410953435    12.000000000000
         C            0.008329740458     1.409643859385     0.033976953435    12.000000000000
         C            0.008317740458    -0.730760140615     0.159160953435    12.000000000000
         C            2.367842740458     0.301702859385    -0.427287046565    12.000000000000
         C           -2.429002059542     0.309284859385    -0.288972146565    12.000000000000
         C            3.227894740458    -0.910121140615    -0.076001046565    12.000000000000
         C           -3.211222259542    -0.910135140615    -0.076008046565    12.000000000000
         H            1.322235740458     0.418335859385     1.453614953435     1.007825032230
         H           -1.305580259542     0.418352859385     1.453616953435     1.007825032230
         H            0.008334740458     2.360483859385     0.577038953435     1.007825032230
         H            0.008330740458     1.618327859385    -1.043640046565     1.007825032230
         H            0.008316740458    -1.060872140615    -0.888698046565     1.007825032230
         H            0.008313740458    -1.613118140615     0.806991953435     1.007825032230
         H            2.939691740458     1.225705859385    -0.269559046565     1.007825032230
         H            2.107713740458     0.274978859385    -1.493814046565     1.007825032230
         H           -2.091079259542     0.275020859385    -1.493806046565     1.007825032230
         H           -2.923067259542     1.225701859385    -0.269521046565     1.007825032230
         H            2.680752740458    -1.839976140615    -0.259089046565     1.007825032230
         H            4.145277740458    -0.937065140615    -0.671630046565     1.007825032230
         H            3.512978740458    -0.891523140615     0.980658953435     1.007825032230
         H           -3.496269259542    -0.891580140615     0.980661953435     1.007825032230
         H           -4.128627259542    -0.937069140615    -0.671604046565     1.007825032230
         H           -2.664075259542    -1.839976140615    -0.259152046565     1.007825032230

  Basis Set: AUG-CC-PVTZ
    Blend: AUG-CC-PVTZ
  Basis Set: (AUG-CC-PVTZ AUX)
    Blend: AUG-CC-PVTZ-JKFIT
	 Reference Energy          =    -312.3222820760059903 [Eh]
	 Singles Energy            =      -0.0000000000000000 [Eh]
	 Same-Spin Energy          =      -0.3399876441937891 [Eh]
	 Opposite-Spin Energy      =      -1.2330876767405687 [Eh]
	 Correlation Energy        =      -1.5730753209343578 [Eh]
	 Total Energy              =    -313.8953573969403692 [Eh]

	 ================> DF-SCS-MP2 Energies <==================
	-----------------------------------------------------------
	 SCS Same-Spin Scale       =       0.3333333333333333 [-]
	 SCS Opposite-Spin Scale   =       1.2000000000000000 [-]
	 SCS Same-Spin Energy      =      -0.1133292147312630 [Eh]
	 SCS Opposite-Spin Energy  =      -1.4797052120886824 [Eh]
	 SCS Correlation Energy    =      -1.5930344268199454 [Eh]
	 SCS Total Energy          =    -313.9153165028259309 [Eh]
	-----------------------------------------------------------

  Dipole Moment: [D]
     X:    -0.0166      Y:     0.0635      Z:     0.2003     Total:     0.2108

*** Psi4 exiting successfully. Buy a developer a beer!
