                               Psi4 1.4a3.dev225

  ==> Input File <==

--------------------------------------------------------------------------
#psi4
#
memory 32 gb

molecule  {
0 1
  C        1.0769770     0.3750480     0.4036540
  C       -1.0769820     0.3750600     0.4036550
  C        0.0000030     1.4273620     0.0552210
  C       -0.0000090    -0.7130420     0.1804050
  C        2.3595160     0.3194210    -0.4060430
  C       -2.3595260     0.3194330    -0.4060330
  C        3.2195680    -0.8924030    -0.0547570
  C       -3.2195490    -0.8924170    -0.0547640
  H        1.3139090     0.4360540     1.4748590
  H       -1.3139070     0.4360710     1.4748610
  H        0.0000080     2.3782020     0.5982830
  H        0.0000040     1.6360460    -1.0223960
  H       -0.0000100    -1.0431540    -0.8674540
  H       -0.0000130    -1.5954000     0.8282360
  H        2.9313650     1.2434240    -0.2483150
  H        2.0993870     0.2926970    -1.4725700
  H       -2.0994060     0.2927390    -1.4725620
  H       -2.9313940     1.2434200    -0.2482770
  H        2.6724260    -1.8222580    -0.2378450
  H        4.1369510    -0.9193470    -0.6503860
  H        3.5046520    -0.8738050     1.0019030
  H       -3.5566784    -0.8704717     1.1949757
  H       -4.1369540    -0.9193510    -0.6503600
  H       -2.6724020    -1.8222580    -0.2379080
units angstrom
no_reorient  #important for SAPT in psi4, default
symmetry c1  #important for SAPT in psi4, default
}

set PROPERTIES_ORIGIN ["COM"]
properties('MP2/aug-cc-pvtz', properties = ['dipole'])
--------------------------------------------------------------------------

    Molecular point group: c1
  Charge       = 0
  Multiplicity = 1
  Basis Set: AUG-CC-PVTZ
    Blend: AUG-CC-PVTZ
  Basis Set: (AUG-CC-PVTZ AUX)
    Blend: AUG-CC-PVTZ-JKFIT

    Orbital Energies [Eh]
    ---------------------

    Doubly Occupied:

       1A    -11.233181     2A    -11.218938     3A    -11.218815
       4A    -11.216455     5A    -11.213759     6A    -11.211931
       7A    -11.211507     8A    -11.209455     9A     -1.141161
      10A     -1.045361    11A     -1.005454    12A     -0.895469
      13A     -0.892453    14A     -0.836658    15A     -0.767620
      16A     -0.743869    17A     -0.652203    18A     -0.616599
      19A     -0.612659    20A     -0.580097    21A     -0.571691
      22A     -0.532183    23A     -0.531224    24A     -0.525348
      25A     -0.509277    26A     -0.500756    27A     -0.474965
      28A     -0.455384    29A     -0.442488    30A     -0.442037
      31A     -0.422286    32A     -0.407841

  @DF-RHF Final Energy:  -312.32719078264540

   => Energetics <=

    Nuclear Repulsion Energy =            389.3861543017860640
    One-Electron Energy =               -1192.7484411883956454
    Two-Electron Energy =                 491.0350961039641788
    Total Energy =                       -312.3271907826454026
  Basis Set: (AUG-CC-PVTZ AUX)
    Blend: AUG-CC-PVTZ-RI
    Molecular point group: c1

    Geometry (in Angstrom), charge = 0, multiplicity = 1:

       Center              X                  Y                   Z               Mass
    ------------   -----------------  -----------------  -----------------  -----------------
         C            1.077445171203     0.358109551821     0.395476403409    12.000000000000
         C           -1.076513828797     0.358121551821     0.395477403409    12.000000000000
         C            0.000471171203     1.410423551821     0.047043403409    12.000000000000
         C            0.000459171203    -0.729980448179     0.172227403409    12.000000000000
         C            2.359984171203     0.302482551821    -0.414220596591    12.000000000000
         C           -2.359057828797     0.302494551821    -0.414210596591    12.000000000000
         C            3.220036171203    -0.909341448179    -0.062934596591    12.000000000000
         C           -3.219080828797    -0.909355448179    -0.062941596591    12.000000000000
         H            1.314377171203     0.419115551821     1.466681403409     1.007825032230
         H           -1.313438828797     0.419132551821     1.466683403409     1.007825032230
         H            0.000476171203     2.361263551821     0.590105403409     1.007825032230
         H            0.000472171203     1.619107551821    -1.030573596591     1.007825032230
         H            0.000458171203    -1.060092448179    -0.875631596591     1.007825032230
         H            0.000455171203    -1.612338448179     0.820058403409     1.007825032230
         H            2.931833171203     1.226485551821    -0.256492596591     1.007825032230
         H            2.099855171203     0.275758551821    -1.480747596591     1.007825032230
         H           -2.098937828797     0.275800551821    -1.480739596591     1.007825032230
         H           -2.930925828797     1.226481551821    -0.256454596591     1.007825032230
         H            2.672894171203    -1.839196448179    -0.246022596591     1.007825032230
         H            4.137419171203    -0.936285448179    -0.658563596591     1.007825032230
         H            3.505120171203    -0.890743448179     0.993725403409     1.007825032230
         H           -3.556210228797    -0.887410148179     1.186798103409     1.007825032230
         H           -4.136485828797    -0.936289448179    -0.658537596591     1.007825032230
         H           -2.671933828797    -1.839196448179    -0.246085596591     1.007825032230

  Basis Set: AUG-CC-PVTZ
    Blend: AUG-CC-PVTZ
  Basis Set: (AUG-CC-PVTZ AUX)
    Blend: AUG-CC-PVTZ-JKFIT
	 Reference Energy          =    -312.3271907826454026 [Eh]
	 Singles Energy            =      -0.0000000000000000 [Eh]
	 Same-Spin Energy          =      -0.3389590630992640 [Eh]
	 Opposite-Spin Energy      =      -1.2329296109990471 [Eh]
	 Correlation Energy        =      -1.5718886740983111 [Eh]
	 Total Energy              =    -313.8990794567437206 [Eh]

	 ================> DF-SCS-MP2 Energies <==================
	-----------------------------------------------------------
	 SCS Same-Spin Scale       =       0.3333333333333333 [-]
	 SCS Opposite-Spin Scale   =       1.2000000000000000 [-]
	 SCS Same-Spin Energy      =      -0.1129863543664213 [Eh]
	 SCS Opposite-Spin Energy  =      -1.4795155331988565 [Eh]
	 SCS Correlation Energy    =      -1.5925018875652779 [Eh]
	 SCS Total Energy          =    -313.9196926702106794 [Eh]
	-----------------------------------------------------------

  Dipole Moment: [D]
     X:     0.0767      Y:     0.1050      Z:    -0.0684     Total:     0.1469

*** Psi4 exiting successfully. Buy a developer a beer!
