                               Psi4 1.4a3.dev225

  ==> Input File <==

--------------------------------------------------------------------------
#psi4
#
memory 32 gb

molecule  {
0 1
  C        1.0769770     0.3750480     0.4036540
  C       -1.0769820     0.3750600     0.4036550
  C        0.0000030     1.4273620     0.0552210
  C       -0.0000090    -0.7130420     0.1804050
  C        2.3595160     0.3194210    -0.4060430
  C       -2.3595260     0.3194330    -0.4060330
  C        3.2195680    -0.8924030    -0.0547570
  C       -3.1366377    -0.9541183    -0.0808032
  H        1.3139090     0.4360540     1.4748590
  H       -1.3139070     0.4360710     1.4748610
  H        0.0000080     2.3782020     0.5982830
  H        0.0000040     1.6360460    -1.0223960
  H       -0.0000100    -1.0431540    -0.8674540
  H       -0.0000130    -1.5954000     0.8282360
  H        2.9313650     1.2434240    -0.2483150
  H        2.0993870     0.2926970    -1.4725700
  H       -2.0994060     0.2927390    -1.4725620
  H       -2.9313940     1.2434200    -0.2482770
  H        2.6724260    -1.8222580    -0.2378450
  H        4.1369510    -0.9193470    -0.6503860
  H        3.5046520    -0.8738050     1.0019030
  H       -3.5045960    -0.8738620     1.0019060
  H       -4.1369540    -0.9193510    -0.6503600
  H       -2.6724020    -1.8222580    -0.2379080
units angstrom
no_reorient  #important for SAPT in psi4, default
symmetry c1  #important for SAPT in psi4, default
}

set PROPERTIES_ORIGIN ["COM"]
properties('MP2/aug-cc-pvtz', properties = ['dipole'])
--------------------------------------------------------------------------

    Molecular point group: c1
  Charge       = 0
  Multiplicity = 1
  Basis Set: AUG-CC-PVTZ
    Blend: AUG-CC-PVTZ
  Basis Set: (AUG-CC-PVTZ AUX)
    Blend: AUG-CC-PVTZ-JKFIT

    Orbital Energies [Eh]
    ---------------------

    Doubly Occupied:

       1A    -11.218476     2A    -11.217684     3A    -11.214484
       4A    -11.213439     5A    -11.211799     6A    -11.211061
       7A    -11.210416     8A    -11.209266     9A     -1.140877
      10A     -1.046861    11A     -1.007784    12A     -0.899436
      13A     -0.892285    14A     -0.842446    15A     -0.770469
      16A     -0.743741    17A     -0.652067    18A     -0.623155
      19A     -0.612242    20A     -0.586760    21A     -0.566765
      22A     -0.541194    23A     -0.530955    24A     -0.526733
      25A     -0.512530    26A     -0.501828    27A     -0.479613
      28A     -0.458408    29A     -0.443376    30A     -0.440190
      31A     -0.422485    32A     -0.403950

  @DF-RHF Final Energy:  -312.33308603381022

   => Energetics <=

    Nuclear Repulsion Energy =            390.6163243902790896
    One-Electron Energy =               -1195.1932726712707336
    Two-Electron Energy =                 492.2438622471814824
    Total Energy =                       -312.3330860338102184
  Basis Set: (AUG-CC-PVTZ AUX)
    Blend: AUG-CC-PVTZ-RI
    Molecular point group: c1

    Geometry (in Angstrom), charge = 0, multiplicity = 1:

       Center              X                  Y                   Z               Mass
    ------------   -----------------  -----------------  -----------------  -----------------
         C            1.068103599980     0.364743496963     0.399998588201    12.000000000000
         C           -1.085855400020     0.364755496963     0.399999588201    12.000000000000
         C           -0.008870400020     1.417057496963     0.051565588201    12.000000000000
         C           -0.008882400020    -0.723346503037     0.176749588201    12.000000000000
         C            2.350642599980     0.309116496963    -0.409698411799    12.000000000000
         C           -2.368399400020     0.309128496963    -0.409688411799    12.000000000000
         C            3.210694599980    -0.902707503037    -0.058412411799    12.000000000000
         C           -3.145511100020    -0.964422803037    -0.084458611799    12.000000000000
         H            1.305035599980     0.425749496963     1.471203588201     1.007825032230
         H           -1.322780400020     0.425766496963     1.471205588201     1.007825032230
         H           -0.008865400020     2.367897496963     0.594627588201     1.007825032230
         H           -0.008869400020     1.625741496963    -1.026051411799     1.007825032230
         H           -0.008883400020    -1.053458503037    -0.871109411799     1.007825032230
         H           -0.008886400020    -1.605704503037     0.824580588201     1.007825032230
         H            2.922491599980     1.233119496963    -0.251970411799     1.007825032230
         H            2.090513599980     0.282392496963    -1.476225411799     1.007825032230
         H           -2.108279400020     0.282434496963    -1.476217411799     1.007825032230
         H           -2.940267400020     1.233115496963    -0.251932411799     1.007825032230
         H            2.663552599980    -1.832562503037    -0.241500411799     1.007825032230
         H            4.128077599980    -0.929651503037    -0.654041411799     1.007825032230
         H            3.495778599980    -0.884109503037     0.998247588201     1.007825032230
         H           -3.513469400020    -0.884166503037     0.998250588201     1.007825032230
         H           -4.145827400020    -0.929655503037    -0.654015411799     1.007825032230
         H           -2.681275400020    -1.832562503037    -0.241563411799     1.007825032230

  Basis Set: AUG-CC-PVTZ
    Blend: AUG-CC-PVTZ
  Basis Set: (AUG-CC-PVTZ AUX)
    Blend: AUG-CC-PVTZ-JKFIT
	 Reference Energy          =    -312.3330860338102184 [Eh]
	 Singles Energy            =      -0.0000000000000000 [Eh]
	 Same-Spin Energy          =      -0.3393223684441040 [Eh]
	 Opposite-Spin Energy      =      -1.2322210392651034 [Eh]
	 Correlation Energy        =      -1.5715434077092074 [Eh]
	 Total Energy              =    -313.9046294415194325 [Eh]

	 ================> DF-SCS-MP2 Energies <==================
	-----------------------------------------------------------
	 SCS Same-Spin Scale       =       0.3333333333333333 [-]
	 SCS Opposite-Spin Scale   =       1.2000000000000000 [-]
	 SCS Same-Spin Energy      =      -0.1131074561480346 [Eh]
	 SCS Opposite-Spin Energy  =      -1.4786652471181241 [Eh]
	 SCS Correlation Energy    =      -1.5917727032661588 [Eh]
	 SCS Total Energy          =    -313.9248587370763630 [Eh]
	-----------------------------------------------------------

  Dipole Moment: [D]
     X:     0.0275      Y:     0.0772      Z:     0.0684     Total:     0.1067

*** Psi4 exiting successfully. Buy a developer a beer!
