                               Psi4 1.4a3.dev225

  ==> Input File <==

--------------------------------------------------------------------------
#psi4
#
memory 32 gb

molecule  {
0 1
  C        1.0769770     0.3750480     0.4036540
  C       -1.0769820     0.3750600     0.4036550
  C        0.0000030     1.4273620     0.0552210
  C       -0.0000090    -0.7130420     0.1804050
  C        2.3595160     0.3194210    -0.4060430
  C       -2.3595260     0.3194330    -0.4060330
  C        3.2195680    -0.8924030    -0.0547570
  C       -3.2195490    -0.8924170    -0.0547640
  H        1.3139090     0.4360540     1.4748590
  H       -1.3139070     0.4360710     1.4748610
  H        0.0000080     2.3782020     0.5982830
  H        0.0000040     1.6360460    -1.0223960
  H       -0.0000100    -1.0431540    -0.8674540
  H       -0.0000130    -1.5954000     0.8282360
  H        2.9313650     1.2434240    -0.2483150
  H        2.0993870     0.2926970    -1.4725700
  H       -2.0994060     0.2927390    -1.4725620
  H       -2.9313940     1.2434200    -0.2482770
  H        2.6724260    -1.8222580    -0.2378450
  H        4.1369510    -0.9193470    -0.6503860
  H        3.5046520    -0.8738050     1.0019030
  H       -3.4993878    -0.8742010     0.9825990
  H       -4.1369540    -0.9193510    -0.6503600
  H       -2.6724020    -1.8222580    -0.2379080
units angstrom
no_reorient  #important for SAPT in psi4, default
symmetry c1  #important for SAPT in psi4, default
}

set PROPERTIES_ORIGIN ["COM"]
properties('MP2/aug-cc-pvtz', properties = ['dipole'])
--------------------------------------------------------------------------

    Molecular point group: c1
  Charge       = 0
  Multiplicity = 1
  Basis Set: AUG-CC-PVTZ
    Blend: AUG-CC-PVTZ
  Basis Set: (AUG-CC-PVTZ AUX)
    Blend: AUG-CC-PVTZ-JKFIT

    Orbital Energies [Eh]
    ---------------------

    Doubly Occupied:

       1A    -11.218342     2A    -11.218300     3A    -11.213351
       4A    -11.213124     5A    -11.211357     6A    -11.210947
       7A    -11.209145     8A    -11.206630     9A     -1.140598
      10A     -1.046172    11A     -1.007815    12A     -0.899827
      13A     -0.891964    14A     -0.841675    15A     -0.769315
      16A     -0.743757    17A     -0.651726    18A     -0.617192
      19A     -0.612618    20A     -0.585625    21A     -0.572234
      22A     -0.537808    23A     -0.530652    24A     -0.524714
      25A     -0.508053    26A     -0.505512    27A     -0.482948
      28A     -0.464556    29A     -0.442078    30A     -0.441082
      31A     -0.421564    32A     -0.406793

  @DF-RHF Final Energy:  -312.34671487602554

   => Energetics <=

    Nuclear Repulsion Energy =            390.1996286205953766
    One-Electron Energy =               -1194.3977324928487178
    Two-Electron Energy =                 491.8513889962277972
    Total Energy =                       -312.3467148760255441
  Basis Set: (AUG-CC-PVTZ AUX)
    Blend: AUG-CC-PVTZ-RI
    Molecular point group: c1

    Geometry (in Angstrom), charge = 0, multiplicity = 1:

       Center              X                  Y                   Z               Mass
    ------------   -----------------  -----------------  -----------------  -----------------
         C            1.076930220946     0.358143072224     0.397385328017    12.000000000000
         C           -1.077028779054     0.358155072224     0.397386328017    12.000000000000
         C           -0.000043779054     1.410457072224     0.048952328017    12.000000000000
         C           -0.000055779054    -0.729946927776     0.174136328017    12.000000000000
         C            2.359469220946     0.302516072224    -0.412311671983    12.000000000000
         C           -2.359572779054     0.302528072224    -0.412301671983    12.000000000000
         C            3.219521220946    -0.909307927776    -0.061025671983    12.000000000000
         C           -3.219595779054    -0.909321927776    -0.061032671983    12.000000000000
         H            1.313862220946     0.419149072224     1.468590328017     1.007825032230
         H           -1.313953779054     0.419166072224     1.468592328017     1.007825032230
         H           -0.000038779054     2.361297072224     0.592014328017     1.007825032230
         H           -0.000042779054     1.619141072224    -1.028664671983     1.007825032230
         H           -0.000056779054    -1.060058927776    -0.873722671983     1.007825032230
         H           -0.000059779054    -1.612304927776     0.821967328017     1.007825032230
         H            2.931318220946     1.226519072224    -0.254583671983     1.007825032230
         H            2.099340220946     0.275792072224    -1.478838671983     1.007825032230
         H           -2.099452779054     0.275834072224    -1.478830671983     1.007825032230
         H           -2.931440779054     1.226515072224    -0.254545671983     1.007825032230
         H            2.672379220946    -1.839162927776    -0.244113671983     1.007825032230
         H            4.136904220946    -0.936251927776    -0.656654671983     1.007825032230
         H            3.504605220946    -0.890709927776     0.995634328017     1.007825032230
         H           -3.499434579054    -0.891105927776     0.976330328017     1.007825032230
         H           -4.137000779054    -0.936255927776    -0.656628671983     1.007825032230
         H           -2.672448779054    -1.839162927776    -0.244176671983     1.007825032230

  Basis Set: AUG-CC-PVTZ
    Blend: AUG-CC-PVTZ
  Basis Set: (AUG-CC-PVTZ AUX)
    Blend: AUG-CC-PVTZ-JKFIT
	 Reference Energy          =    -312.3467148760255441 [Eh]
	 Singles Energy            =      -0.0000000000000000 [Eh]
	 Same-Spin Energy          =      -0.3390915597660263 [Eh]
	 Opposite-Spin Energy      =      -1.2314172036225404 [Eh]
	 Correlation Energy        =      -1.5705087633885668 [Eh]
	 Total Energy              =    -313.9172236394140896 [Eh]

	 ================> DF-SCS-MP2 Energies <==================
	-----------------------------------------------------------
	 SCS Same-Spin Scale       =       0.3333333333333333 [-]
	 SCS Opposite-Spin Scale   =       1.2000000000000000 [-]
	 SCS Same-Spin Energy      =      -0.1130305199220088 [Eh]
	 SCS Opposite-Spin Energy  =      -1.4777006443470484 [Eh]
	 SCS Correlation Energy    =      -1.5907311642690571 [Eh]
	 SCS Total Energy          =    -313.9374460402946170 [Eh]
	-----------------------------------------------------------

  Dipole Moment: [D]
     X:    -0.0060      Y:     0.0716      Z:     0.0951     Total:     0.1192

*** Psi4 exiting successfully. Buy a developer a beer!
