                               Psi4 1.4a3.dev225

  ==> Input File <==

--------------------------------------------------------------------------
#psi4
#
memory 32 gb

molecule  {
0 1
  C        1.0769770     0.3750480     0.4036540
  C       -1.0769820     0.3750600     0.4036550
  C        0.0000030     1.4273620     0.0552210
  C       -0.0000090    -0.7130420     0.1804050
  C        2.3595160     0.3194210    -0.4060430
  C       -2.3595260     0.3194330    -0.4060330
  C        3.2758924    -0.9717648    -0.0317514
  C       -3.2195490    -0.8924170    -0.0547640
  H        1.3139090     0.4360540     1.4748590
  H       -1.3139070     0.4360710     1.4748610
  H        0.0000080     2.3782020     0.5982830
  H        0.0000040     1.6360460    -1.0223960
  H       -0.0000100    -1.0431540    -0.8674540
  H       -0.0000130    -1.5954000     0.8282360
  H        2.9313650     1.2434240    -0.2483150
  H        2.0993870     0.2926970    -1.4725700
  H       -2.0994060     0.2927390    -1.4725620
  H       -2.9313940     1.2434200    -0.2482770
  H        2.6724260    -1.8222580    -0.2378450
  H        4.1369510    -0.9193470    -0.6503860
  H        3.5046520    -0.8738050     1.0019030
  H       -3.5045960    -0.8738620     1.0019060
  H       -4.1369540    -0.9193510    -0.6503600
  H       -2.6724020    -1.8222580    -0.2379080
units angstrom
no_reorient  #important for SAPT in psi4, default
symmetry c1  #important for SAPT in psi4, default
}

set PROPERTIES_ORIGIN ["COM"]
properties('MP2/aug-cc-pvtz', properties = ['dipole'])
--------------------------------------------------------------------------

    Molecular point group: c1
  Charge       = 0
  Multiplicity = 1
  Basis Set: AUG-CC-PVTZ
    Blend: AUG-CC-PVTZ
  Basis Set: (AUG-CC-PVTZ AUX)
    Blend: AUG-CC-PVTZ-JKFIT

    Orbital Energies [Eh]
    ---------------------

    Doubly Occupied:

       1A    -11.218364     2A    -11.218286     3A    -11.217104
       4A    -11.213322     5A    -11.211207     6A    -11.210934
       7A    -11.209139     8A    -11.205915     9A     -1.139638
      10A     -1.040231    11A     -0.999774    12A     -0.902324
      13A     -0.891882    14A     -0.844702    15A     -0.768134
      16A     -0.743216    17A     -0.651411    18A     -0.616015
      19A     -0.611795    20A     -0.586307    21A     -0.573532
      22A     -0.538783    23A     -0.530686    24A     -0.522542
      25A     -0.516096    26A     -0.500405    27A     -0.484282
      28A     -0.466071    29A     -0.442553    30A     -0.435425
      31A     -0.419421    32A     -0.404183

  @DF-RHF Final Energy:  -312.33940194787067

   => Energetics <=

    Nuclear Repulsion Energy =            388.7876073165396633
    One-Electron Energy =               -1191.5866660083381703
    Two-Electron Energy =                 490.4596567439278942
    Total Energy =                       -312.3394019478706696
  Basis Set: (AUG-CC-PVTZ AUX)
    Blend: AUG-CC-PVTZ-RI
    Molecular point group: c1

    Geometry (in Angstrom), charge = 0, multiplicity = 1:

       Center              X                  Y                   Z               Mass
    ------------   -----------------  -----------------  -----------------  -----------------
         C            1.070949015627     0.366633580539     0.394749655782    12.000000000000
         C           -1.083009984373     0.366645580539     0.394750655782    12.000000000000
         C           -0.006024984373     1.418947580539     0.046316655782    12.000000000000
         C           -0.006036984373    -0.721456419461     0.171500655782    12.000000000000
         C            2.353488015627     0.311006580539    -0.414947344218    12.000000000000
         C           -2.365553984373     0.311018580539    -0.414937344218    12.000000000000
         C            3.269864415627    -0.980179219461    -0.040655744218    12.000000000000
         C           -3.225576984373    -0.900831419461    -0.063668344218    12.000000000000
         H            1.307881015627     0.427639580539     1.465954655782     1.007825032230
         H           -1.319934984373     0.427656580539     1.465956655782     1.007825032230
         H           -0.006019984373     2.369787580539     0.589378655782     1.007825032230
         H           -0.006023984373     1.627631580539    -1.031300344218     1.007825032230
         H           -0.006037984373    -1.051568419461    -0.876358344218     1.007825032230
         H           -0.006040984373    -1.603814419461     0.819331655782     1.007825032230
         H            2.925337015627     1.235009580539    -0.257219344218     1.007825032230
         H            2.093359015627     0.284282580539    -1.481474344218     1.007825032230
         H           -2.105433984373     0.284324580539    -1.481466344218     1.007825032230
         H           -2.937421984373     1.235005580539    -0.257181344218     1.007825032230
         H            2.666398015627    -1.830672419461    -0.246749344218     1.007825032230
         H            4.130923015627    -0.927761419461    -0.659290344218     1.007825032230
         H            3.498624015627    -0.882219419461     0.992998655782     1.007825032230
         H           -3.510623984373    -0.882276419461     0.993001655782     1.007825032230
         H           -4.142981984373    -0.927765419461    -0.659264344218     1.007825032230
         H           -2.678429984373    -1.830672419461    -0.246812344218     1.007825032230

  Basis Set: AUG-CC-PVTZ
    Blend: AUG-CC-PVTZ
  Basis Set: (AUG-CC-PVTZ AUX)
    Blend: AUG-CC-PVTZ-JKFIT
	 Reference Energy          =    -312.3394019478706696 [Eh]
	 Singles Energy            =      -0.0000000000000000 [Eh]
	 Same-Spin Energy          =      -0.3388294240660785 [Eh]
	 Opposite-Spin Energy      =      -1.2317146111555584 [Eh]
	 Correlation Energy        =      -1.5705440352216369 [Eh]
	 Total Energy              =    -313.9099459830923138 [Eh]

	 ================> DF-SCS-MP2 Energies <==================
	-----------------------------------------------------------
	 SCS Same-Spin Scale       =       0.3333333333333333 [-]
	 SCS Opposite-Spin Scale   =       1.2000000000000000 [-]
	 SCS Same-Spin Energy      =      -0.1129431413553595 [Eh]
	 SCS Opposite-Spin Energy  =      -1.4780575333866699 [Eh]
	 SCS Correlation Energy    =      -1.5910006747420293 [Eh]
	 SCS Total Energy          =    -313.9304026226126894 [Eh]
	-----------------------------------------------------------

  Dipole Moment: [D]
     X:    -0.0158      Y:     0.0901      Z:     0.0861     Total:     0.1256

*** Psi4 exiting successfully. Buy a developer a beer!
