                               Psi4 1.4a3.dev225

  ==> Input File <==

--------------------------------------------------------------------------
#psi4
#
memory 32 gb

molecule  {
0 1
  C        1.0769770     0.3750480     0.4036540
  C       -1.0769820     0.3750600     0.4036550
  C        0.0000030     1.4273620     0.0552210
  C       -0.0000090    -0.7130420     0.1804050
  C        2.3595160     0.3194210    -0.4060430
  C       -2.3870669     0.3218926    -0.3608441
  C        3.2195680    -0.8924030    -0.0547570
  C       -3.2195490    -0.8924170    -0.0547640
  H        1.3139090     0.4360540     1.4748590
  H       -1.3139070     0.4360710     1.4748610
  H        0.0000080     2.3782020     0.5982830
  H        0.0000040     1.6360460    -1.0223960
  H       -0.0000100    -1.0431540    -0.8674540
  H       -0.0000130    -1.5954000     0.8282360
  H        2.9313650     1.2434240    -0.2483150
  H        2.0993870     0.2926970    -1.4725700
  H       -2.0994060     0.2927390    -1.4725620
  H       -2.9313940     1.2434200    -0.2482770
  H        2.6724260    -1.8222580    -0.2378450
  H        4.1369510    -0.9193470    -0.6503860
  H        3.5046520    -0.8738050     1.0019030
  H       -3.5045960    -0.8738620     1.0019060
  H       -4.1369540    -0.9193510    -0.6503600
  H       -2.6724020    -1.8222580    -0.2379080
units angstrom
no_reorient  #important for SAPT in psi4, default
symmetry c1  #important for SAPT in psi4, default
}

set PROPERTIES_ORIGIN ["COM"]
properties('MP2/aug-cc-pvtz', properties = ['dipole'])
--------------------------------------------------------------------------

    Molecular point group: c1
  Charge       = 0
  Multiplicity = 1
  Basis Set: AUG-CC-PVTZ
    Blend: AUG-CC-PVTZ
  Basis Set: (AUG-CC-PVTZ AUX)
    Blend: AUG-CC-PVTZ-JKFIT

    Orbital Energies [Eh]
    ---------------------

    Doubly Occupied:

       1A    -11.218667     2A    -11.218617     3A    -11.214970
       4A    -11.213569     5A    -11.212029     6A    -11.211667
       7A    -11.209289     8A    -11.208826     9A     -1.140695
      10A     -1.047857    11A     -1.009813    12A     -0.900077
      13A     -0.892196    14A     -0.840811    15A     -0.767902
      16A     -0.743025    17A     -0.651856    18A     -0.618414
      19A     -0.613266    20A     -0.583959    21A     -0.574337
      22A     -0.537751    23A     -0.530690    24A     -0.528884
      25A     -0.509531    26A     -0.505815    27A     -0.479222
      28A     -0.455745    29A     -0.444370    30A     -0.437766
      31A     -0.422745    32A     -0.409803

  @DF-RHF Final Energy:  -312.34348925695684

   => Energetics <=

    Nuclear Repulsion Energy =            390.1055137458087074
    One-Electron Energy =               -1194.1896738124507920
    Two-Electron Energy =                 491.7406708096852412
    Total Energy =                       -312.3434892569568433
  Basis Set: (AUG-CC-PVTZ AUX)
    Blend: AUG-CC-PVTZ-RI
    Molecular point group: c1

    Geometry (in Angstrom), charge = 0, multiplicity = 1:

       Center              X                  Y                   Z               Mass
    ------------   -----------------  -----------------  -----------------  -----------------
         C            1.079924550078     0.357876790848     0.392375527586    12.000000000000
         C           -1.074034449922     0.357888790848     0.392376527586    12.000000000000
         C            0.002950550078     1.410190790848     0.043942527586    12.000000000000
         C            0.002938550078    -0.730213209152     0.169126527586    12.000000000000
         C            2.362463550078     0.302249790848    -0.417321472414    12.000000000000
         C           -2.384119349922     0.304721390848    -0.372122572414    12.000000000000
         C            3.222515550078    -0.909574209152    -0.066035472414    12.000000000000
         C           -3.216601449922    -0.909588209152    -0.066042472414    12.000000000000
         H            1.316856550078     0.418882790848     1.463580527586     1.007825032230
         H           -1.310959449922     0.418899790848     1.463582527586     1.007825032230
         H            0.002955550078     2.361030790848     0.587004527586     1.007825032230
         H            0.002951550078     1.618874790848    -1.033674472414     1.007825032230
         H            0.002937550078    -1.060325209152    -0.878732472414     1.007825032230
         H            0.002934550078    -1.612571209152     0.816957527586     1.007825032230
         H            2.934312550078     1.226252790848    -0.259593472414     1.007825032230
         H            2.102334550078     0.275525790848    -1.483848472414     1.007825032230
         H           -2.096458449922     0.275567790848    -1.483840472414     1.007825032230
         H           -2.928446449922     1.226248790848    -0.259555472414     1.007825032230
         H            2.675373550078    -1.839429209152    -0.249123472414     1.007825032230
         H            4.139898550078    -0.936518209152    -0.661664472414     1.007825032230
         H            3.507599550078    -0.890976209152     0.990624527586     1.007825032230
         H           -3.501648449922    -0.891033209152     0.990627527586     1.007825032230
         H           -4.134006449922    -0.936522209152    -0.661638472414     1.007825032230
         H           -2.669454449922    -1.839429209152    -0.249186472414     1.007825032230

  Basis Set: AUG-CC-PVTZ
    Blend: AUG-CC-PVTZ
  Basis Set: (AUG-CC-PVTZ AUX)
    Blend: AUG-CC-PVTZ-JKFIT
	 Reference Energy          =    -312.3434892569568433 [Eh]
	 Singles Energy            =      -0.0000000000000000 [Eh]
	 Same-Spin Energy          =      -0.3392838634178151 [Eh]
	 Opposite-Spin Energy      =      -1.2317687830541311 [Eh]
	 Correlation Energy        =      -1.5710526464719461 [Eh]
	 Total Energy              =    -313.9145419034288125 [Eh]

	 ================> DF-SCS-MP2 Energies <==================
	-----------------------------------------------------------
	 SCS Same-Spin Scale       =       0.3333333333333333 [-]
	 SCS Opposite-Spin Scale   =       1.2000000000000000 [-]
	 SCS Same-Spin Energy      =      -0.1130946211392717 [Eh]
	 SCS Opposite-Spin Energy  =      -1.4781225396649573 [Eh]
	 SCS Correlation Energy    =      -1.5912171608042289 [Eh]
	 SCS Total Energy          =    -313.9347064177610491 [Eh]
	-----------------------------------------------------------

  Dipole Moment: [D]
     X:    -0.0077      Y:     0.0749      Z:     0.1112     Total:     0.1343

*** Psi4 exiting successfully. Buy a developer a beer!
