                               Psi4 1.4a3.dev225

  ==> Input File <==

--------------------------------------------------------------------------
#psi4
#
memory 32 gb

molecule  {
0 1
  C        1.1871828     0.2588089     0.3798048
  C       -1.0769820     0.3750600     0.4036550
  C        0.0000030     1.4273620     0.0552210
  C       -0.0000090    -0.7130420     0.1804050
  C        2.3595160     0.3194210    -0.4060430
  C       -2.3595260     0.3194330    -0.4060330
  C        3.2195680    -0.8924030    -0.0547570
  C       -3.2195490    -0.8924170    -0.0547640
  H        1.3139090     0.4360540     1.4748590
  H       -1.3139070     0.4360710     1.4748610
  H        0.0000080     2.3782020     0.5982830
  H        0.0000040     1.6360460    -1.0223960
  H       -0.0000100    -1.0431540    -0.8674540
  H       -0.0000130    -1.5954000     0.8282360
  H        2.9313650     1.2434240    -0.2483150
  H        2.0993870     0.2926970    -1.4725700
  H       -2.0994060     0.2927390    -1.4725620
  H       -2.9313940     1.2434200    -0.2482770
  H        2.6724260    -1.8222580    -0.2378450
  H        4.1369510    -0.9193470    -0.6503860
  H        3.5046520    -0.8738050     1.0019030
  H       -3.5045960    -0.8738620     1.0019060
  H       -4.1369540    -0.9193510    -0.6503600
  H       -2.6724020    -1.8222580    -0.2379080
units angstrom
no_reorient  #important for SAPT in psi4, default
symmetry c1  #important for SAPT in psi4, default
}

set PROPERTIES_ORIGIN ["COM"]
properties('MP2/aug-cc-pvtz', properties = ['dipole'])
--------------------------------------------------------------------------

    Molecular point group: c1
  Charge       = 0
  Multiplicity = 1
  Basis Set: AUG-CC-PVTZ
    Blend: AUG-CC-PVTZ
  Basis Set: (AUG-CC-PVTZ AUX)
    Blend: AUG-CC-PVTZ-JKFIT

    Orbital Energies [Eh]
    ---------------------

    Doubly Occupied:

       1A    -11.222232     2A    -11.217962     3A    -11.216519
       4A    -11.214412     5A    -11.214349     6A    -11.210845
       7A    -11.209397     8A    -11.208755     9A     -1.131324
      10A     -1.058957    11A     -1.006506    12A     -0.903253
      13A     -0.886849    14A     -0.843361    15A     -0.769676
      16A     -0.741505    17A     -0.645293    18A     -0.626447
      19A     -0.618625    20A     -0.584339    21A     -0.573437
      22A     -0.537825    23A     -0.528899    24A     -0.523306
      25A     -0.511649    26A     -0.506659    27A     -0.484026
      28A     -0.473379    29A     -0.447724    30A     -0.441159
      31A     -0.421224    32A     -0.372410

  @DF-RHF Final Energy:  -312.32277013686905

   => Energetics <=

    Nuclear Repulsion Energy =            389.7605696218799949
    One-Electron Energy =               -1193.4620722579888934
    Two-Electron Energy =                 491.3787324992398453
    Total Energy =                       -312.3227701368690532
  Basis Set: (AUG-CC-PVTZ AUX)
    Blend: AUG-CC-PVTZ-RI
    Molecular point group: c1

    Geometry (in Angstrom), charge = 0, multiplicity = 1:

       Center              X                  Y                   Z               Mass
    ------------   -----------------  -----------------  -----------------  -----------------
         C            1.175388254702     0.254341207929     0.375915007349    12.000000000000
         C           -1.088776545298     0.370592307929     0.399765207349    12.000000000000
         C           -0.011791545298     1.422894307929     0.051331207349    12.000000000000
         C           -0.011803545298    -0.717509692071     0.176515207349    12.000000000000
         C            2.347721454702     0.314953307929    -0.409932792651    12.000000000000
         C           -2.371320545298     0.314965307929    -0.409922792651    12.000000000000
         C            3.207773454702    -0.896870692071    -0.058646792651    12.000000000000
         C           -3.231343545298    -0.896884692071    -0.058653792651    12.000000000000
         H            1.302114454702     0.431586307929     1.470969207349     1.007825032230
         H           -1.325701545298     0.431603307929     1.470971207349     1.007825032230
         H           -0.011786545298     2.373734307929     0.594393207349     1.007825032230
         H           -0.011790545298     1.631578307929    -1.026285792651     1.007825032230
         H           -0.011804545298    -1.047621692071    -0.871343792651     1.007825032230
         H           -0.011807545298    -1.599867692071     0.824346207349     1.007825032230
         H            2.919570454702     1.238956307929    -0.252204792651     1.007825032230
         H            2.087592454702     0.288229307929    -1.476459792651     1.007825032230
         H           -2.111200545298     0.288271307929    -1.476451792651     1.007825032230
         H           -2.943188545298     1.238952307929    -0.252166792651     1.007825032230
         H            2.660631454702    -1.826725692071    -0.241734792651     1.007825032230
         H            4.125156454702    -0.923814692071    -0.654275792651     1.007825032230
         H            3.492857454702    -0.878272692071     0.998013207349     1.007825032230
         H           -3.516390545298    -0.878329692071     0.998016207349     1.007825032230
         H           -4.148748545298    -0.923818692071    -0.654249792651     1.007825032230
         H           -2.684196545298    -1.826725692071    -0.241797792651     1.007825032230

  Basis Set: AUG-CC-PVTZ
    Blend: AUG-CC-PVTZ
  Basis Set: (AUG-CC-PVTZ AUX)
    Blend: AUG-CC-PVTZ-JKFIT
	 Reference Energy          =    -312.3227701368690532 [Eh]
	 Singles Energy            =      -0.0000000000000000 [Eh]
	 Same-Spin Energy          =      -0.3404880981131505 [Eh]
	 Opposite-Spin Energy      =      -1.2344336910461986 [Eh]
	 Correlation Energy        =      -1.5749217891593492 [Eh]
	 Total Energy              =    -313.8976919260284149 [Eh]

	 ================> DF-SCS-MP2 Energies <==================
	-----------------------------------------------------------
	 SCS Same-Spin Scale       =       0.3333333333333333 [-]
	 SCS Opposite-Spin Scale   =       1.2000000000000000 [-]
	 SCS Same-Spin Energy      =      -0.1134960327043835 [Eh]
	 SCS Opposite-Spin Energy  =      -1.4813204292554383 [Eh]
	 SCS Correlation Energy    =      -1.5948164619598217 [Eh]
	 SCS Total Energy          =    -313.9175865988288479 [Eh]
	-----------------------------------------------------------

  Dipole Moment: [D]
     X:     0.0680      Y:     0.0578      Z:     0.0198     Total:     0.0914

*** Psi4 exiting successfully. Buy a developer a beer!
