                               Psi4 1.4a3.dev225

  ==> Input File <==

--------------------------------------------------------------------------
#psi4
#
memory 32 gb

molecule  {
0 1
  C        1.0769770     0.3750480     0.4036540
  C       -1.0769820     0.3750600     0.4036550
  C        0.0000030     1.4273620     0.0552210
  C       -0.0000090    -0.7130420     0.1804050
  C        2.3595160     0.3194210    -0.4060430
  C       -2.3734939     0.3206545    -0.3835584
  C        3.2195680    -0.8924030    -0.0547570
  C       -3.2195490    -0.8924170    -0.0547640
  H        1.3139090     0.4360540     1.4748590
  H       -1.3139070     0.4360710     1.4748610
  H        0.0000080     2.3782020     0.5982830
  H        0.0000040     1.6360460    -1.0223960
  H       -0.0000100    -1.0431540    -0.8674540
  H       -0.0000130    -1.5954000     0.8282360
  H        2.9313650     1.2434240    -0.2483150
  H        2.0993870     0.2926970    -1.4725700
  H       -2.0994060     0.2927390    -1.4725620
  H       -2.9313940     1.2434200    -0.2482770
  H        2.6724260    -1.8222580    -0.2378450
  H        4.1369510    -0.9193470    -0.6503860
  H        3.5046520    -0.8738050     1.0019030
  H       -3.5045960    -0.8738620     1.0019060
  H       -4.1369540    -0.9193510    -0.6503600
  H       -2.6724020    -1.8222580    -0.2379080
units angstrom
no_reorient  #important for SAPT in psi4, default
symmetry c1  #important for SAPT in psi4, default
}

set PROPERTIES_ORIGIN ["COM"]
properties('MP2/aug-cc-pvtz', properties = ['dipole'])
--------------------------------------------------------------------------

    Molecular point group: c1
  Charge       = 0
  Multiplicity = 1
  Basis Set: AUG-CC-PVTZ
    Blend: AUG-CC-PVTZ
  Basis Set: (AUG-CC-PVTZ AUX)
    Blend: AUG-CC-PVTZ-JKFIT

    Orbital Energies [Eh]
    ---------------------

    Doubly Occupied:

       1A    -11.218504     2A    -11.218432     3A    -11.214067
       4A    -11.213469     5A    -11.211700     6A    -11.211315
       7A    -11.209224     8A    -11.208947     9A     -1.140640
      10A     -1.046856    11A     -1.008618    12A     -0.899604
      13A     -0.892083    14A     -0.840855    15A     -0.768359
      16A     -0.743367    17A     -0.651800    18A     -0.617351
      19A     -0.613194    20A     -0.584346    21A     -0.573194
      22A     -0.537229    23A     -0.530678    24A     -0.526830
      25A     -0.508459    26A     -0.505789    27A     -0.480514
      28A     -0.459951    29A     -0.442849    30A     -0.440443
      31A     -0.422221    32A     -0.408374

  @DF-RHF Final Energy:  -312.34581294247215

   => Energetics <=

    Nuclear Repulsion Energy =            390.1109796356813604
    One-Electron Energy =               -1194.2150607193946144
    Two-Electron Energy =                 491.7582681412411034
    Total Energy =                       -312.3458129424721506
  Basis Set: (AUG-CC-PVTZ AUX)
    Blend: AUG-CC-PVTZ-RI
    Molecular point group: c1

    Geometry (in Angstrom), charge = 0, multiplicity = 1:

       Center              X                  Y                   Z               Mass
    ------------   -----------------  -----------------  -----------------  -----------------
         C            1.078471923913     0.358009296297     0.394806485112    12.000000000000
         C           -1.075487076087     0.358021296297     0.394807485112    12.000000000000
         C            0.001497923913     1.410323296297     0.046373485112    12.000000000000
         C            0.001485923913    -0.730080703703     0.171557485112    12.000000000000
         C            2.361010923913     0.302382296297    -0.414890514888    12.000000000000
         C           -2.371998976087     0.303615796297    -0.392405914888    12.000000000000
         C            3.221062923913    -0.909441703703    -0.063604514888    12.000000000000
         C           -3.218054076087    -0.909455703703    -0.063611514888    12.000000000000
         H            1.315403923913     0.419015296297     1.466011485112     1.007825032230
         H           -1.312412076087     0.419032296297     1.466013485112     1.007825032230
         H            0.001502923913     2.361163296297     0.589435485112     1.007825032230
         H            0.001498923913     1.619007296297    -1.031243514888     1.007825032230
         H            0.001484923913    -1.060192703703    -0.876301514888     1.007825032230
         H            0.001481923913    -1.612438703703     0.819388485112     1.007825032230
         H            2.932859923913     1.226385296297    -0.257162514888     1.007825032230
         H            2.100881923913     0.275658296297    -1.481417514888     1.007825032230
         H           -2.097911076087     0.275700296297    -1.481409514888     1.007825032230
         H           -2.929899076087     1.226381296297    -0.257124514888     1.007825032230
         H            2.673920923913    -1.839296703703    -0.246692514888     1.007825032230
         H            4.138445923913    -0.936385703703    -0.659233514888     1.007825032230
         H            3.506146923913    -0.890843703703     0.993055485112     1.007825032230
         H           -3.503101076087    -0.890900703703     0.993058485112     1.007825032230
         H           -4.135459076087    -0.936389703703    -0.659207514888     1.007825032230
         H           -2.670907076087    -1.839296703703    -0.246755514888     1.007825032230

  Basis Set: AUG-CC-PVTZ
    Blend: AUG-CC-PVTZ
  Basis Set: (AUG-CC-PVTZ AUX)
    Blend: AUG-CC-PVTZ-JKFIT
	 Reference Energy          =    -312.3458129424721506 [Eh]
	 Singles Energy            =      -0.0000000000000000 [Eh]
	 Same-Spin Energy          =      -0.3391687582682553 [Eh]
	 Opposite-Spin Energy      =      -1.2316080135699115 [Eh]
	 Correlation Energy        =      -1.5707767718381667 [Eh]
	 Total Energy              =    -313.9165897143103052 [Eh]

	 ================> DF-SCS-MP2 Energies <==================
	-----------------------------------------------------------
	 SCS Same-Spin Scale       =       0.3333333333333333 [-]
	 SCS Opposite-Spin Scale   =       1.2000000000000000 [-]
	 SCS Same-Spin Energy      =      -0.1130562527560851 [Eh]
	 SCS Opposite-Spin Energy  =      -1.4779296162838937 [Eh]
	 SCS Correlation Energy    =      -1.5909858690399787 [Eh]
	 SCS Total Energy          =    -313.9367988115121193 [Eh]
	-----------------------------------------------------------

  Dipole Moment: [D]
     X:    -0.0042      Y:     0.0751      Z:     0.0958     Total:     0.1218

*** Psi4 exiting successfully. Buy a developer a beer!
