                               Psi4 1.4a3.dev225

  ==> Input File <==

--------------------------------------------------------------------------
#psi4
#
memory 32 gb

molecule  {
0 1
  C        1.0769770     0.3750480     0.4036540
  C       -1.0769820     0.3750600     0.4036550
  C        0.0000030     1.4273620     0.0552210
  C       -0.0000090    -0.7130420     0.1804050
  C        2.3595160     0.3194210    -0.4060430
  C       -2.3595260     0.3194330    -0.4060330
  C        3.2195680    -0.8924030    -0.0547570
  C       -3.2195490    -0.8924170    -0.0547640
  H        1.3139090     0.4360540     1.4748590
  H       -1.3139070     0.4360710     1.4748610
  H        0.0000080     2.3782020     0.5982830
  H        0.0000040     1.6360460    -1.0223960
  H       -0.0000100    -1.0431540    -0.8674540
  H       -0.0000130    -1.5954000     0.8282360
  H        2.9313650     1.2434240    -0.2483150
  H        2.0993870     0.2926970    -1.4725700
  H       -2.0994060     0.2927390    -1.4725620
  H       -2.9313940     1.2434200    -0.2482770
  H        2.6724260    -1.8222580    -0.2378450
  H        4.1369510    -0.9193470    -0.6503860
  H        3.5046520    -0.8738050     1.0019030
  H       -3.4525136    -0.8772523     0.8088363
  H       -4.1369540    -0.9193510    -0.6503600
  H       -2.6724020    -1.8222580    -0.2379080
units angstrom
no_reorient  #important for SAPT in psi4, default
symmetry c1  #important for SAPT in psi4, default
}

set PROPERTIES_ORIGIN ["COM"]
properties('MP2/aug-cc-pvtz', properties = ['dipole'])
--------------------------------------------------------------------------

    Molecular point group: c1
  Charge       = 0
  Multiplicity = 1
  Basis Set: AUG-CC-PVTZ
    Blend: AUG-CC-PVTZ
  Basis Set: (AUG-CC-PVTZ AUX)
    Blend: AUG-CC-PVTZ-JKFIT

    Orbital Energies [Eh]
    ---------------------

    Doubly Occupied:

       1A    -11.218151     2A    -11.218108     3A    -11.213187
       4A    -11.211441     5A    -11.211137     6A    -11.210755
       7A    -11.209021     8A    -11.183587     9A     -1.140556
      10A     -1.050325    11A     -1.013534    12A     -0.909072
      13A     -0.891774    14A     -0.848777    15A     -0.772054
      16A     -0.743941    17A     -0.651646    18A     -0.623966
      19A     -0.612290    20A     -0.595318    21A     -0.572299
      22A     -0.545327    23A     -0.530420    24A     -0.524260
      25A     -0.511667    26A     -0.504893    27A     -0.486472
      28A     -0.465824    29A     -0.441841    30A     -0.440551
      31A     -0.421262    32A     -0.406336

  @DF-RHF Final Energy:  -312.31264509431026

   => Energetics <=

    Nuclear Repulsion Energy =            391.0573463852881559
    One-Electron Energy =               -1195.9804022758091833
    Two-Electron Energy =                 492.6104107962107719
    Total Energy =                       -312.3126450943102554
  Basis Set: (AUG-CC-PVTZ AUX)
    Blend: AUG-CC-PVTZ-RI
    Molecular point group: c1

    Geometry (in Angstrom), charge = 0, multiplicity = 1:

       Center              X                  Y                   Z               Mass
    ------------   -----------------  -----------------  -----------------  -----------------
         C            1.076508897355     0.358170498499     0.398947174934    12.000000000000
         C           -1.077450102645     0.358182498499     0.398948174934    12.000000000000
         C           -0.000465102645     1.410484498499     0.050514174934    12.000000000000
         C           -0.000477102645    -0.729919501501     0.175698174934    12.000000000000
         C            2.359047897355     0.302543498499    -0.410749825066    12.000000000000
         C           -2.359994102645     0.302555498499    -0.410739825066    12.000000000000
         C            3.219099897355    -0.909280501501    -0.059463825066    12.000000000000
         C           -3.220017102645    -0.909294501501    -0.059470825066    12.000000000000
         H            1.313440897355     0.419176498499     1.470152174934     1.007825032230
         H           -1.314375102645     0.419193498499     1.470154174934     1.007825032230
         H           -0.000460102645     2.361324498499     0.593576174934     1.007825032230
         H           -0.000464102645     1.619168498499    -1.027102825066     1.007825032230
         H           -0.000478102645    -1.060031501501    -0.872160825066     1.007825032230
         H           -0.000481102645    -1.612277501501     0.823529174934     1.007825032230
         H            2.930896897355     1.226546498499    -0.253021825066     1.007825032230
         H            2.098918897355     0.275819498499    -1.477276825066     1.007825032230
         H           -2.099874102645     0.275861498499    -1.477268825066     1.007825032230
         H           -2.931862102645     1.226542498499    -0.252983825066     1.007825032230
         H            2.671957897355    -1.839135501501    -0.242551825066     1.007825032230
         H            4.136482897355    -0.936224501501    -0.655092825066     1.007825032230
         H            3.504183897355    -0.890682501501     0.997196174934     1.007825032230
         H           -3.452981702645    -0.894129801501     0.804129474934     1.007825032230
         H           -4.137422102645    -0.936228501501    -0.655066825066     1.007825032230
         H           -2.672870102645    -1.839135501501    -0.242614825066     1.007825032230

  Basis Set: AUG-CC-PVTZ
    Blend: AUG-CC-PVTZ
  Basis Set: (AUG-CC-PVTZ AUX)
    Blend: AUG-CC-PVTZ-JKFIT
	 Reference Energy          =    -312.3126450943102554 [Eh]
	 Singles Energy            =      -0.0000000000000000 [Eh]
	 Same-Spin Energy          =      -0.3392736185421895 [Eh]
	 Opposite-Spin Energy      =      -1.2310397093180845 [Eh]
	 Correlation Energy        =      -1.5703133278602741 [Eh]
	 Total Energy              =    -313.8829584221705318 [Eh]

	 ================> DF-SCS-MP2 Energies <==================
	-----------------------------------------------------------
	 SCS Same-Spin Scale       =       0.3333333333333333 [-]
	 SCS Opposite-Spin Scale   =       1.2000000000000000 [-]
	 SCS Same-Spin Energy      =      -0.1130912061807298 [Eh]
	 SCS Opposite-Spin Energy  =      -1.4772476511817014 [Eh]
	 SCS Correlation Energy    =      -1.5903388573624313 [Eh]
	 SCS Total Energy          =    -313.9029839516726952 [Eh]
	-----------------------------------------------------------

  Dipole Moment: [D]
     X:    -0.0463      Y:     0.0526      Z:     0.1747     Total:     0.1882

*** Psi4 exiting successfully. Buy a developer a beer!
