                               Psi4 1.4a3.dev225

  ==> Input File <==

--------------------------------------------------------------------------
#psi4
#
memory 32 gb

molecule  {
0 1
  C        1.0769770     0.3750480     0.4036540
  C       -1.0769820     0.3750600     0.4036550
  C       -0.1393639     1.5635377     0.0101317
  C       -0.0000090    -0.7130420     0.1804050
  C        2.3595160     0.3194210    -0.4060430
  C       -2.3595260     0.3194330    -0.4060330
  C        3.2195680    -0.8924030    -0.0547570
  C       -3.2195490    -0.8924170    -0.0547640
  H        1.3139090     0.4360540     1.4748590
  H       -1.3139070     0.4360710     1.4748610
  H        0.0000080     2.3782020     0.5982830
  H        0.0000040     1.6360460    -1.0223960
  H       -0.0000100    -1.0431540    -0.8674540
  H       -0.0000130    -1.5954000     0.8282360
  H        2.9313650     1.2434240    -0.2483150
  H        2.0993870     0.2926970    -1.4725700
  H       -2.0994060     0.2927390    -1.4725620
  H       -2.9313940     1.2434200    -0.2482770
  H        2.6724260    -1.8222580    -0.2378450
  H        4.1369510    -0.9193470    -0.6503860
  H        3.5046520    -0.8738050     1.0019030
  H       -3.5045960    -0.8738620     1.0019060
  H       -4.1369540    -0.9193510    -0.6503600
  H       -2.6724020    -1.8222580    -0.2379080
units angstrom
no_reorient  #important for SAPT in psi4, default
symmetry c1  #important for SAPT in psi4, default
}

set PROPERTIES_ORIGIN ["COM"]
properties('MP2/aug-cc-pvtz', properties = ['dipole'])
--------------------------------------------------------------------------

    Molecular point group: c1
  Charge       = 0
  Multiplicity = 1
  Basis Set: AUG-CC-PVTZ
    Blend: AUG-CC-PVTZ
  Basis Set: (AUG-CC-PVTZ AUX)
    Blend: AUG-CC-PVTZ-JKFIT

    Orbital Energies [Eh]
    ---------------------

    Doubly Occupied:

       1A    -11.227475     2A    -11.224693     3A    -11.213579
       4A    -11.212133     5A    -11.210937     6A    -11.209456
       7A    -11.208393     8A    -11.207371     9A     -1.122267
      10A     -1.044536    11A     -1.002105    12A     -0.905288
      13A     -0.890358    14A     -0.841181    15A     -0.765171
      16A     -0.746984    17A     -0.654667    18A     -0.616310
      19A     -0.607634    20A     -0.588492    21A     -0.566278
      22A     -0.553329    23A     -0.534795    24A     -0.523742
      25A     -0.507263    26A     -0.504453    27A     -0.482784
      28A     -0.463768    29A     -0.450998    30A     -0.443987
      31A     -0.422042    32A     -0.364756

  @DF-RHF Final Energy:  -312.31813123245001

   => Energetics <=

    Nuclear Repulsion Energy =            387.6162388322598531
    One-Electron Energy =               -1189.2342884408071768
    Two-Electron Energy =                 489.2999183760973665
    Total Energy =                       -312.3181312324500141
  Basis Set: (AUG-CC-PVTZ AUX)
    Blend: AUG-CC-PVTZ-RI
    Molecular point group: c1

    Geometry (in Angstrom), charge = 0, multiplicity = 1:

       Center              X                  Y                   Z               Mass
    ------------   -----------------  -----------------  -----------------  -----------------
         C            1.091892528675     0.343566063263     0.402037391244    12.000000000000
         C           -1.062066471325     0.343578063263     0.402038391244    12.000000000000
         C           -0.124448371325     1.532055763263     0.008515091244    12.000000000000
         C            0.014906528675    -0.744523936737     0.178788391244    12.000000000000
         C            2.374431528675     0.287939063263    -0.407659608756    12.000000000000
         C           -2.344610471325     0.287951063263    -0.407649608756    12.000000000000
         C            3.234483528675    -0.923884936737    -0.056373608756    12.000000000000
         C           -3.204633471325    -0.923898936737    -0.056380608756    12.000000000000
         H            1.328824528675     0.404572063263     1.473242391244     1.007825032230
         H           -1.298991471325     0.404589063263     1.473244391244     1.007825032230
         H            0.014923528675     2.346720063263     0.596666391244     1.007825032230
         H            0.014919528675     1.604564063263    -1.024012608756     1.007825032230
         H            0.014905528675    -1.074635936737    -0.869070608756     1.007825032230
         H            0.014902528675    -1.626881936737     0.826619391244     1.007825032230
         H            2.946280528675     1.211942063263    -0.249931608756     1.007825032230
         H            2.114302528675     0.261215063263    -1.474186608756     1.007825032230
         H           -2.084490471325     0.261257063263    -1.474178608756     1.007825032230
         H           -2.916478471325     1.211938063263    -0.249893608756     1.007825032230
         H            2.687341528675    -1.853739936737    -0.239461608756     1.007825032230
         H            4.151866528675    -0.950828936737    -0.652002608756     1.007825032230
         H            3.519567528675    -0.905286936737     1.000286391244     1.007825032230
         H           -3.489680471325    -0.905343936737     1.000289391244     1.007825032230
         H           -4.122038471325    -0.950832936737    -0.651976608756     1.007825032230
         H           -2.657486471325    -1.853739936737    -0.239524608756     1.007825032230

  Basis Set: AUG-CC-PVTZ
    Blend: AUG-CC-PVTZ
  Basis Set: (AUG-CC-PVTZ AUX)
    Blend: AUG-CC-PVTZ-JKFIT
	 Reference Energy          =    -312.3181312324500141 [Eh]
	 Singles Energy            =      -0.0000000000000000 [Eh]
	 Same-Spin Energy          =      -0.3396888598644442 [Eh]
	 Opposite-Spin Energy      =      -1.2344224714686747 [Eh]
	 Correlation Energy        =      -1.5741113313331190 [Eh]
	 Total Energy              =    -313.8922425637831566 [Eh]

	 ================> DF-SCS-MP2 Energies <==================
	-----------------------------------------------------------
	 SCS Same-Spin Scale       =       0.3333333333333333 [-]
	 SCS Opposite-Spin Scale   =       1.2000000000000000 [-]
	 SCS Same-Spin Energy      =      -0.1132296199548147 [Eh]
	 SCS Opposite-Spin Energy  =      -1.4813069657624096 [Eh]
	 SCS Correlation Energy    =      -1.5945365857172242 [Eh]
	 SCS Total Energy          =    -313.9126678181672219 [Eh]
	-----------------------------------------------------------

  Dipole Moment: [D]
     X:     0.1448      Y:     0.0254      Z:     0.1280     Total:     0.1949

*** Psi4 exiting successfully. Buy a developer a beer!
