                               Psi4 1.4a3.dev225

  ==> Input File <==

--------------------------------------------------------------------------
#psi4
#
memory 32 gb

molecule  {
0 1
  C        1.0769770     0.3750480     0.4036540
  C       -1.0769820     0.3750600     0.4036550
  C        0.0000030     1.4273620     0.0552210
  C       -0.0000090    -0.7130420     0.1804050
  C        2.3595160     0.3194210    -0.4060430
  C       -2.3595260     0.3194330    -0.4060330
  C        3.2195680    -0.8924030    -0.0547570
  C       -3.2195490    -0.8924170    -0.0547640
  H        1.3139090     0.4360540     1.4748590
  H       -1.3139070     0.4360710     1.4748610
  H        0.0000080     2.3782020     0.5982830
  H        0.0000040     1.6360460    -1.0223960
  H       -0.0000100    -1.0431540    -0.8674540
  H       -0.0000130    -1.5954000     0.8282360
  H        2.9834445     1.3275749    -0.2339504
  H        2.0993870     0.2926970    -1.4725700
  H       -2.0994060     0.2927390    -1.4725620
  H       -2.9313940     1.2434200    -0.2482770
  H        2.6724260    -1.8222580    -0.2378450
  H        4.1369510    -0.9193470    -0.6503860
  H        3.5046520    -0.8738050     1.0019030
  H       -3.5045960    -0.8738620     1.0019060
  H       -4.1369540    -0.9193510    -0.6503600
  H       -2.6724020    -1.8222580    -0.2379080
units angstrom
no_reorient  #important for SAPT in psi4, default
symmetry c1  #important for SAPT in psi4, default
}

set PROPERTIES_ORIGIN ["COM"]
properties('MP2/aug-cc-pvtz', properties = ['dipole'])
--------------------------------------------------------------------------

    Molecular point group: c1
  Charge       = 0
  Multiplicity = 1
  Basis Set: AUG-CC-PVTZ
    Blend: AUG-CC-PVTZ
  Basis Set: (AUG-CC-PVTZ AUX)
    Blend: AUG-CC-PVTZ-JKFIT

    Orbital Energies [Eh]
    ---------------------

    Doubly Occupied:

       1A    -11.225781     2A    -11.219476     3A    -11.218868
       4A    -11.213774     5A    -11.212456     6A    -11.211342
       7A    -11.210470     8A    -11.209494     9A     -1.141081
      10A     -1.044813    11A     -1.006415    12A     -0.899650
      13A     -0.892304    14A     -0.838997    15A     -0.765509
      16A     -0.744225    17A     -0.651895    18A     -0.615584
      19A     -0.608541    20A     -0.582719    21A     -0.572804
      22A     -0.537570    23A     -0.531295    24A     -0.525504
      25A     -0.507580    26A     -0.503358    27A     -0.479875
      28A     -0.465096    29A     -0.442862    30A     -0.438542
      31A     -0.421211    32A     -0.406770

  @DF-RHF Final Energy:  -312.34040913303033

   => Energetics <=

    Nuclear Repulsion Energy =            389.6661213999617530
    One-Electron Energy =               -1193.3213410620649029
    Two-Electron Energy =                 491.3148105290728154
    Total Energy =                       -312.3404091330303345
  Basis Set: (AUG-CC-PVTZ AUX)
    Blend: AUG-CC-PVTZ-RI
    Molecular point group: c1

    Geometry (in Angstrom), charge = 0, multiplicity = 1:

       Center              X                  Y                   Z               Mass
    ------------   -----------------  -----------------  -----------------  -----------------
         C            1.076508923421     0.357383644051     0.397082674544    12.000000000000
         C           -1.077450076579     0.357395644051     0.397083674544    12.000000000000
         C           -0.000465076579     1.409697644051     0.048649674544    12.000000000000
         C           -0.000477076579    -0.730706355949     0.173833674544    12.000000000000
         C            2.359047923421     0.301756644051    -0.412614325456    12.000000000000
         C           -2.359994076579     0.301768644051    -0.412604325456    12.000000000000
         C            3.219099923421    -0.910067355949    -0.061328325456    12.000000000000
         C           -3.220017076579    -0.910081355949    -0.061335325456    12.000000000000
         H            1.313440923421     0.418389644051     1.468287674544     1.007825032230
         H           -1.314375076579     0.418406644051     1.468289674544     1.007825032230
         H           -0.000460076579     2.360537644051     0.591711674544     1.007825032230
         H           -0.000464076579     1.618381644051    -1.028967325456     1.007825032230
         H           -0.000478076579    -1.060818355949    -0.874025325456     1.007825032230
         H           -0.000481076579    -1.613064355949     0.821664674544     1.007825032230
         H            2.982976423421     1.309910544051    -0.240521725456     1.007825032230
         H            2.098918923421     0.275032644051    -1.479141325456     1.007825032230
         H           -2.099874076579     0.275074644051    -1.479133325456     1.007825032230
         H           -2.931862076579     1.225755644051    -0.254848325456     1.007825032230
         H            2.671957923421    -1.839922355949    -0.244416325456     1.007825032230
         H            4.136482923421    -0.937011355949    -0.656957325456     1.007825032230
         H            3.504183923421    -0.891469355949     0.995331674544     1.007825032230
         H           -3.505064076579    -0.891526355949     0.995334674544     1.007825032230
         H           -4.137422076579    -0.937015355949    -0.656931325456     1.007825032230
         H           -2.672870076579    -1.839922355949    -0.244479325456     1.007825032230

  Basis Set: AUG-CC-PVTZ
    Blend: AUG-CC-PVTZ
  Basis Set: (AUG-CC-PVTZ AUX)
    Blend: AUG-CC-PVTZ-JKFIT
	 Reference Energy          =    -312.3404091330303345 [Eh]
	 Singles Energy            =      -0.0000000000000000 [Eh]
	 Same-Spin Energy          =      -0.3390789208294834 [Eh]
	 Opposite-Spin Energy      =      -1.2322518421308817 [Eh]
	 Correlation Energy        =      -1.5713307629603652 [Eh]
	 Total Energy              =    -313.9117398959907064 [Eh]

	 ================> DF-SCS-MP2 Energies <==================
	-----------------------------------------------------------
	 SCS Same-Spin Scale       =       0.3333333333333333 [-]
	 SCS Opposite-Spin Scale   =       1.2000000000000000 [-]
	 SCS Same-Spin Energy      =      -0.1130263069431611 [Eh]
	 SCS Opposite-Spin Energy  =      -1.4787022105570580 [Eh]
	 SCS Correlation Energy    =      -1.5917285175002192 [Eh]
	 SCS Total Energy          =    -313.9321376505305352 [Eh]
	-----------------------------------------------------------

  Dipole Moment: [D]
     X:    -0.0592      Y:    -0.0042      Z:     0.0866     Total:     0.1050

*** Psi4 exiting successfully. Buy a developer a beer!
