                               Psi4 1.4a3.dev225

  ==> Input File <==

--------------------------------------------------------------------------
#psi4
#
memory 32 gb

molecule  {
0 1
  C        1.0769770     0.3750480     0.4036540
  C       -1.0769820     0.3750600     0.4036550
  C        0.0000030     1.4273620     0.0552210
  C       -0.0000090    -0.7130420     0.1804050
  C        2.3595160     0.3194210    -0.4060430
  C       -2.3595260     0.3194330    -0.4060330
  C        3.2195680    -0.8924030    -0.0547570
  C       -3.2195490    -0.8924170    -0.0547640
  H        1.3139090     0.4360540     1.4748590
  H       -1.3139070     0.4360710     1.4748610
  H        0.0000080     2.3782020     0.5982830
  H        0.0000040     1.6360460    -1.0223960
  H       -0.0000102    -1.1032493    -1.0582118
  H       -0.0000130    -1.5954000     0.8282360
  H        2.9313650     1.2434240    -0.2483150
  H        2.0993870     0.2926970    -1.4725700
  H       -2.0994060     0.2927390    -1.4725620
  H       -2.9313940     1.2434200    -0.2482770
  H        2.6724260    -1.8222580    -0.2378450
  H        4.1369510    -0.9193470    -0.6503860
  H        3.5046520    -0.8738050     1.0019030
  H       -3.5045960    -0.8738620     1.0019060
  H       -4.1369540    -0.9193510    -0.6503600
  H       -2.6724020    -1.8222580    -0.2379080
units angstrom
no_reorient  #important for SAPT in psi4, default
symmetry c1  #important for SAPT in psi4, default
}

set PROPERTIES_ORIGIN ["COM"]
properties('MP2/aug-cc-pvtz', properties = ['dipole'])
--------------------------------------------------------------------------

    Molecular point group: c1
  Charge       = 0
  Multiplicity = 1
  Basis Set: AUG-CC-PVTZ
    Blend: AUG-CC-PVTZ
  Basis Set: (AUG-CC-PVTZ AUX)
    Blend: AUG-CC-PVTZ-JKFIT

    Orbital Energies [Eh]
    ---------------------

    Doubly Occupied:

       1A    -11.234922     2A    -11.221261     3A    -11.221258
       4A    -11.213711     5A    -11.213710     6A    -11.212147
       7A    -11.209019     8A    -11.209019     9A     -1.140580
      10A     -1.046429    11A     -1.007465    12A     -0.900011
      13A     -0.883736    14A     -0.841306    15A     -0.770314
      16A     -0.733002    17A     -0.654112    18A     -0.617059
      19A     -0.612196    20A     -0.583019    21A     -0.572557
      22A     -0.537915    23A     -0.526017    24A     -0.509174
      25A     -0.508206    26A     -0.503744    27A     -0.480767
      28A     -0.464897    29A     -0.443078    30A     -0.435530
      31A     -0.422441    32A     -0.408808

  @DF-RHF Final Energy:  -312.32709039319184

   => Energetics <=

    Nuclear Repulsion Energy =            389.2709284201945366
    One-Electron Energy =               -1192.5212230287002058
    Two-Electron Energy =                 490.9232042153138309
    Total Energy =                       -312.3270903931918383
  Basis Set: (AUG-CC-PVTZ AUX)
    Blend: AUG-CC-PVTZ-RI
    Molecular point group: c1

    Geometry (in Angstrom), charge = 0, multiplicity = 1:

       Center              X                  Y                   Z               Mass
    ------------   -----------------  -----------------  -----------------  -----------------
         C            1.076977036076     0.358680185154     0.398926394675    12.000000000000
         C           -1.076981963924     0.358692185154     0.398927394675    12.000000000000
         C            0.000003036076     1.410994185154     0.050493394675    12.000000000000
         C           -0.000008963924    -0.729409814846     0.175677394675    12.000000000000
         C            2.359516036076     0.303053185154    -0.410770605325    12.000000000000
         C           -2.359525963924     0.303065185154    -0.410760605325    12.000000000000
         C            3.219568036076    -0.908770814846    -0.059484605325    12.000000000000
         C           -3.219548963924    -0.908784814846    -0.059491605325    12.000000000000
         H            1.313909036076     0.419686185154     1.470131394675     1.007825032230
         H           -1.313906963924     0.419703185154     1.470133394675     1.007825032230
         H            0.000008036076     2.361834185154     0.593555394675     1.007825032230
         H            0.000004036076     1.619678185154    -1.027123605325     1.007825032230
         H           -0.000010163924    -1.119617114846    -1.062939405325     1.007825032230
         H           -0.000012963924    -1.611767814846     0.823508394675     1.007825032230
         H            2.931365036076     1.227056185154    -0.253042605325     1.007825032230
         H            2.099387036076     0.276329185154    -1.477297605325     1.007825032230
         H           -2.099405963924     0.276371185154    -1.477289605325     1.007825032230
         H           -2.931393963924     1.227052185154    -0.253004605325     1.007825032230
         H            2.672426036076    -1.838625814846    -0.242572605325     1.007825032230
         H            4.136951036076    -0.935714814846    -0.655113605325     1.007825032230
         H            3.504652036076    -0.890172814846     0.997175394675     1.007825032230
         H           -3.504595963924    -0.890229814846     0.997178394675     1.007825032230
         H           -4.136953963924    -0.935718814846    -0.655087605325     1.007825032230
         H           -2.672401963924    -1.838625814846    -0.242635605325     1.007825032230

  Basis Set: AUG-CC-PVTZ
    Blend: AUG-CC-PVTZ
  Basis Set: (AUG-CC-PVTZ AUX)
    Blend: AUG-CC-PVTZ-JKFIT
	 Reference Energy          =    -312.3270903931918383 [Eh]
	 Singles Energy            =      -0.0000000000000000 [Eh]
	 Same-Spin Energy          =      -0.3393020643662353 [Eh]
	 Opposite-Spin Energy      =      -1.2332384006172052 [Eh]
	 Correlation Energy        =      -1.5725404649834407 [Eh]
	 Total Energy              =    -313.8996308581752714 [Eh]

	 ================> DF-SCS-MP2 Energies <==================
	-----------------------------------------------------------
	 SCS Same-Spin Scale       =       0.3333333333333333 [-]
	 SCS Opposite-Spin Scale   =       1.2000000000000000 [-]
	 SCS Same-Spin Energy      =      -0.1131006881220784 [Eh]
	 SCS Opposite-Spin Energy  =      -1.4798860807406462 [Eh]
	 SCS Correlation Energy    =      -1.5929867688627246 [Eh]
	 SCS Total Energy          =    -313.9200771620545538 [Eh]
	-----------------------------------------------------------

  Dipole Moment: [D]
     X:    -0.0000      Y:     0.1567      Z:     0.2244     Total:     0.2737

*** Psi4 exiting successfully. Buy a developer a beer!
