                               Psi4 1.4a3.dev225

  ==> Input File <==

--------------------------------------------------------------------------
#psi4
#
memory 32 gb

molecule  {
0 1
  C        1.0769770     0.3750480     0.4036540
  C       -1.0769820     0.3750600     0.4036550
  C        0.0000030     1.4273620     0.0552210
  C       -0.0000090    -0.7130420     0.1804050
  C        2.3595160     0.3194210    -0.4060430
  C       -2.3595260     0.3194330    -0.4060330
  C        3.2195680    -0.8924030    -0.0547570
  C       -3.2195490    -0.8924170    -0.0547640
  H        1.3139090     0.4360540     1.4748590
  H       -1.3139070     0.4360710     1.4748610
  H        0.0000080     2.3782020     0.5982830
  H        0.0000040     1.6360460    -1.0223960
  H       -0.0000100    -1.0431540    -0.8674540
  H       -0.0000130    -1.5954000     0.8282360
  H        2.9313650     1.2434240    -0.2483150
  H        2.0993870     0.2926970    -1.4725700
  H       -2.0994060     0.2927390    -1.4725620
  H       -2.9313940     1.2434200    -0.2482770
  H        2.7224248    -1.7372862    -0.2211141
  H        4.1369510    -0.9193470    -0.6503860
  H        3.5046520    -0.8738050     1.0019030
  H       -3.5045960    -0.8738620     1.0019060
  H       -4.1369540    -0.9193510    -0.6503600
  H       -2.6724020    -1.8222580    -0.2379080
units angstrom
no_reorient  #important for SAPT in psi4, default
symmetry c1  #important for SAPT in psi4, default
}

set PROPERTIES_ORIGIN ["COM"]
properties('MP2/aug-cc-pvtz', properties = ['dipole'])
--------------------------------------------------------------------------

    Molecular point group: c1
  Charge       = 0
  Multiplicity = 1
  Basis Set: AUG-CC-PVTZ
    Blend: AUG-CC-PVTZ
  Basis Set: (AUG-CC-PVTZ AUX)
    Blend: AUG-CC-PVTZ-JKFIT

    Orbital Energies [Eh]
    ---------------------

    Doubly Occupied:

       1A    -11.218431     2A    -11.218160     3A    -11.213412
       4A    -11.212270     5A    -11.211522     6A    -11.210876
       7A    -11.209217     8A    -11.196416     9A     -1.140681
      10A     -1.047494    11A     -1.009945    12A     -0.903274
      13A     -0.892095    14A     -0.844753    15A     -0.770376
      16A     -0.743714    17A     -0.652038    18A     -0.621042
      19A     -0.613408    20A     -0.587399    21A     -0.571677
      22A     -0.537388    23A     -0.530810    24A     -0.524581
      25A     -0.516607    26A     -0.505723    27A     -0.483710
      28A     -0.463950    29A     -0.442041    30A     -0.441042
      31A     -0.421808    32A     -0.406634

  @DF-RHF Final Energy:  -312.34060875910370

   => Energetics <=

    Nuclear Repulsion Energy =            390.5100834263949423
    One-Electron Energy =               -1194.9763996965082242
    Two-Electron Energy =                 492.1257075110096366
    Total Energy =                       -312.3406087591037021
  Basis Set: (AUG-CC-PVTZ AUX)
    Blend: AUG-CC-PVTZ-RI
    Molecular point group: c1

    Geometry (in Angstrom), charge = 0, multiplicity = 1:

       Center              X                  Y                   Z               Mass
    ------------   -----------------  -----------------  -----------------  -----------------
         C            1.076527625564     0.357376265482     0.397061405317    12.000000000000
         C           -1.077431374436     0.357388265482     0.397062405317    12.000000000000
         C           -0.000446374436     1.409690265482     0.048628405317    12.000000000000
         C           -0.000458374436    -0.730713734518     0.173812405317    12.000000000000
         C            2.359066625564     0.301749265482    -0.412635594683    12.000000000000
         C           -2.359975374436     0.301761265482    -0.412625594683    12.000000000000
         C            3.219118625564    -0.910074734518    -0.061349594683    12.000000000000
         C           -3.219998374436    -0.910088734518    -0.061356594683    12.000000000000
         H            1.313459625564     0.418382265482     1.468266405317     1.007825032230
         H           -1.314356374436     0.418399265482     1.468268405317     1.007825032230
         H           -0.000441374436     2.360530265482     0.591690405317     1.007825032230
         H           -0.000445374436     1.618374265482    -1.028988594683     1.007825032230
         H           -0.000459374436    -1.060825734518    -0.874046594683     1.007825032230
         H           -0.000462374436    -1.613071734518     0.821643405317     1.007825032230
         H            2.930915625564     1.225752265482    -0.254907594683     1.007825032230
         H            2.098937625564     0.275025265482    -1.479162594683     1.007825032230
         H           -2.099855374436     0.275067265482    -1.479154594683     1.007825032230
         H           -2.931843374436     1.225748265482    -0.254869594683     1.007825032230
         H            2.721975425564    -1.754957934518    -0.227706694683     1.007825032230
         H            4.136501625564    -0.937018734518    -0.656978594683     1.007825032230
         H            3.504202625564    -0.891476734518     0.995310405317     1.007825032230
         H           -3.505045374436    -0.891533734518     0.995313405317     1.007825032230
         H           -4.137403374436    -0.937022734518    -0.656952594683     1.007825032230
         H           -2.672851374436    -1.839929734518    -0.244500594683     1.007825032230

  Basis Set: AUG-CC-PVTZ
    Blend: AUG-CC-PVTZ
  Basis Set: (AUG-CC-PVTZ AUX)
    Blend: AUG-CC-PVTZ-JKFIT
	 Reference Energy          =    -312.3406087591037021 [Eh]
	 Singles Energy            =      -0.0000000000000000 [Eh]
	 Same-Spin Energy          =      -0.3391151282024914 [Eh]
	 Opposite-Spin Energy      =      -1.2310641567129970 [Eh]
	 Correlation Energy        =      -1.5701792849154883 [Eh]
	 Total Energy              =    -313.9107880440191707 [Eh]

	 ================> DF-SCS-MP2 Energies <==================
	-----------------------------------------------------------
	 SCS Same-Spin Scale       =       0.3333333333333333 [-]
	 SCS Opposite-Spin Scale   =       1.2000000000000000 [-]
	 SCS Same-Spin Energy      =      -0.1130383760674971 [Eh]
	 SCS Opposite-Spin Energy  =      -1.4772769880555963 [Eh]
	 SCS Correlation Energy    =      -1.5903153641230934 [Eh]
	 SCS Total Energy          =    -313.9309241232268164 [Eh]
	-----------------------------------------------------------

  Dipole Moment: [D]
     X:    -0.0146      Y:     0.0211      Z:     0.0776     Total:     0.0817

*** Psi4 exiting successfully. Buy a developer a beer!
