                               Psi4 1.4a3.dev225

  ==> Input File <==

--------------------------------------------------------------------------
#psi4
#
memory 32 gb

molecule  {
0 1
  C        1.0769770     0.3750480     0.4036540
  C       -1.0769820     0.3750600     0.4036550
  C        0.0000030     1.4273620     0.0552210
  C       -0.0000090    -0.7130420     0.1804050
  C        2.3595160     0.3194210    -0.4060430
  C       -2.4440282     0.3157679    -0.4593804
  C        3.2195680    -0.8924030    -0.0547570
  C       -3.2195490    -0.8924170    -0.0547640
  H        1.3139090     0.4360540     1.4748590
  H       -1.3139070     0.4360710     1.4748610
  H        0.0000080     2.3782020     0.5982830
  H        0.0000040     1.6360460    -1.0223960
  H       -0.0000100    -1.0431540    -0.8674540
  H       -0.0000130    -1.5954000     0.8282360
  H        2.9313650     1.2434240    -0.2483150
  H        2.0993870     0.2926970    -1.4725700
  H       -2.0994060     0.2927390    -1.4725620
  H       -2.9313940     1.2434200    -0.2482770
  H        2.6724260    -1.8222580    -0.2378450
  H        4.1369510    -0.9193470    -0.6503860
  H        3.5046520    -0.8738050     1.0019030
  H       -3.5045960    -0.8738620     1.0019060
  H       -4.1369540    -0.9193510    -0.6503600
  H       -2.6724020    -1.8222580    -0.2379080
units angstrom
no_reorient  #important for SAPT in psi4, default
symmetry c1  #important for SAPT in psi4, default
}

set PROPERTIES_ORIGIN ["COM"]
properties('MP2/aug-cc-pvtz', properties = ['dipole'])
--------------------------------------------------------------------------

    Molecular point group: c1
  Charge       = 0
  Multiplicity = 1
  Basis Set: AUG-CC-PVTZ
    Blend: AUG-CC-PVTZ
  Basis Set: (AUG-CC-PVTZ AUX)
    Blend: AUG-CC-PVTZ-JKFIT

    Orbital Energies [Eh]
    ---------------------

    Doubly Occupied:

       1A    -11.221155     2A    -11.218032     3A    -11.213118
       4A    -11.211773     5A    -11.210979     6A    -11.210330
       7A    -11.208942     8A    -11.207925     9A     -1.136759
      10A     -1.044115    11A     -1.011027    12A     -0.894593
      13A     -0.890493    14A     -0.838522    15A     -0.772147
      16A     -0.741902    17A     -0.650602    18A     -0.620029
      19A     -0.607795    20A     -0.588666    21A     -0.570042
      22A     -0.539843    23A     -0.530052    24A     -0.524810
      25A     -0.507724    26A     -0.506453    27A     -0.487757
      28A     -0.462762    29A     -0.446416    30A     -0.436428
      31A     -0.422548    32A     -0.394162

  @DF-RHF Final Energy:  -312.33860865265285

   => Energetics <=

    Nuclear Repulsion Energy =            388.9243738700965878
    One-Electron Energy =               -1191.8701645435655792
    Two-Electron Energy =                 490.6071820208161398
    Total Energy =                       -312.3386086526528516
  Basis Set: (AUG-CC-PVTZ AUX)
    Blend: AUG-CC-PVTZ-RI
    Molecular point group: c1

    Geometry (in Angstrom), charge = 0, multiplicity = 1:

       Center              X                  Y                   Z               Mass
    ------------   -----------------  -----------------  -----------------  -----------------
         C            1.086020731818     0.358532275963     0.402921199697    12.000000000000
         C           -1.067938268182     0.358544275963     0.402922199697    12.000000000000
         C            0.009046731818     1.410846275963     0.054488199697    12.000000000000
         C            0.009034731818    -0.729557724037     0.179672199697    12.000000000000
         C            2.368559731818     0.302905275963    -0.406775800303    12.000000000000
         C           -2.434984468182     0.299252175963    -0.460113200303    12.000000000000
         C            3.228611731818    -0.908918724037    -0.055489800303    12.000000000000
         C           -3.210505268182    -0.908932724037    -0.055496800303    12.000000000000
         H            1.322952731818     0.419538275963     1.474126199697     1.007825032230
         H           -1.304863268182     0.419555275963     1.474128199697     1.007825032230
         H            0.009051731818     2.361686275963     0.597550199697     1.007825032230
         H            0.009047731818     1.619530275963    -1.023128800303     1.007825032230
         H            0.009033731818    -1.059669724037    -0.868186800303     1.007825032230
         H            0.009030731818    -1.611915724037     0.827503199697     1.007825032230
         H            2.940408731818     1.226908275963    -0.249047800303     1.007825032230
         H            2.108430731818     0.276181275963    -1.473302800303     1.007825032230
         H           -2.090362268182     0.276223275963    -1.473294800303     1.007825032230
         H           -2.922350268182     1.226904275963    -0.249009800303     1.007825032230
         H            2.681469731818    -1.838773724037    -0.238577800303     1.007825032230
         H            4.145994731818    -0.935862724037    -0.651118800303     1.007825032230
         H            3.513695731818    -0.890320724037     1.001170199697     1.007825032230
         H           -3.495552268182    -0.890377724037     1.001173199697     1.007825032230
         H           -4.127910268182    -0.935866724037    -0.651092800303     1.007825032230
         H           -2.663358268182    -1.838773724037    -0.238640800303     1.007825032230

  Basis Set: AUG-CC-PVTZ
    Blend: AUG-CC-PVTZ
  Basis Set: (AUG-CC-PVTZ AUX)
    Blend: AUG-CC-PVTZ-JKFIT
	 Reference Energy          =    -312.3386086526528516 [Eh]
	 Singles Energy            =      -0.0000000000000000 [Eh]
	 Same-Spin Energy          =      -0.3390946230172935 [Eh]
	 Opposite-Spin Energy      =      -1.2318484530827680 [Eh]
	 Correlation Energy        =      -1.5709430761000616 [Eh]
	 Total Energy              =    -313.9095517287528878 [Eh]

	 ================> DF-SCS-MP2 Energies <==================
	-----------------------------------------------------------
	 SCS Same-Spin Scale       =       0.3333333333333333 [-]
	 SCS Opposite-Spin Scale   =       1.2000000000000000 [-]
	 SCS Same-Spin Energy      =      -0.1130315410057645 [Eh]
	 SCS Opposite-Spin Energy  =      -1.4782181436993216 [Eh]
	 SCS Correlation Energy    =      -1.5912496847050861 [Eh]
	 SCS Total Energy          =    -313.9298583373579277 [Eh]
	-----------------------------------------------------------

  Dipole Moment: [D]
     X:    -0.0110      Y:     0.0721      Z:     0.0824     Total:     0.1100

*** Psi4 exiting successfully. Buy a developer a beer!
