                               Psi4 1.4a3.dev225

  ==> Input File <==

--------------------------------------------------------------------------
#psi4
#
memory 32 gb

molecule  {
0 1
  C        1.0769770     0.3750480     0.4036540
  C       -1.0769820     0.3750600     0.4036550
  C        0.0008104     1.4570022     0.1589420
  C       -0.0000090    -0.7130420     0.1804050
  C        2.3595160     0.3194210    -0.4060430
  C       -2.3595260     0.3194330    -0.4060330
  C        3.2195680    -0.8924030    -0.0547570
  C       -3.2195490    -0.8924170    -0.0547640
  H        1.3139090     0.4360540     1.4748590
  H       -1.3139070     0.4360710     1.4748610
  H        0.0000080     2.3782020     0.5982830
  H        0.0000040     1.6360460    -1.0223960
  H       -0.0000100    -1.0431540    -0.8674540
  H       -0.0000130    -1.5954000     0.8282360
  H        2.9313650     1.2434240    -0.2483150
  H        2.0993870     0.2926970    -1.4725700
  H       -2.0994060     0.2927390    -1.4725620
  H       -2.9313940     1.2434200    -0.2482770
  H        2.6724260    -1.8222580    -0.2378450
  H        4.1369510    -0.9193470    -0.6503860
  H        3.5046520    -0.8738050     1.0019030
  H       -3.5045960    -0.8738620     1.0019060
  H       -4.1369540    -0.9193510    -0.6503600
  H       -2.6724020    -1.8222580    -0.2379080
units angstrom
no_reorient  #important for SAPT in psi4, default
symmetry c1  #important for SAPT in psi4, default
}

set PROPERTIES_ORIGIN ["COM"]
properties('MP2/aug-cc-pvtz', properties = ['dipole'])
--------------------------------------------------------------------------

    Molecular point group: c1
  Charge       = 0
  Multiplicity = 1
  Basis Set: AUG-CC-PVTZ
    Blend: AUG-CC-PVTZ
  Basis Set: (AUG-CC-PVTZ AUX)
    Blend: AUG-CC-PVTZ-JKFIT

    Orbital Energies [Eh]
    ---------------------

    Doubly Occupied:

       1A    -11.220052     2A    -11.219999     3A    -11.214256
       4A    -11.214244     5A    -11.213839     6A    -11.211838
       7A    -11.209763     8A    -11.209753     9A     -1.139405
      10A     -1.046219    11A     -1.008014    12A     -0.899449
      13A     -0.894858    14A     -0.842572    15A     -0.770431
      16A     -0.739226    17A     -0.663381    18A     -0.617324
      19A     -0.611880    20A     -0.585350    21A     -0.573008
      22A     -0.534591    23A     -0.525695    24A     -0.524311
      25A     -0.508541    26A     -0.499251    27A     -0.483760
      28A     -0.463779    29A     -0.443869    30A     -0.442402
      31A     -0.418774    32A     -0.406200

  @DF-RHF Final Energy:  -312.33401048849993

   => Energetics <=

    Nuclear Repulsion Energy =            389.7105255871985037
    One-Electron Energy =               -1193.3770013209530134
    Two-Electron Energy =                 491.3324652452545820
    Total Energy =                       -312.3340104884999278
  Basis Set: (AUG-CC-PVTZ AUX)
    Blend: AUG-CC-PVTZ-RI
    Molecular point group: c1

    Geometry (in Angstrom), charge = 0, multiplicity = 1:

       Center              X                  Y                   Z               Mass
    ------------   -----------------  -----------------  -----------------  -----------------
         C            1.076890623731     0.354967835515     0.386111233772    12.000000000000
         C           -1.077068376269     0.354979835515     0.386112233772    12.000000000000
         C            0.000724023731     1.436922035515     0.141399233772    12.000000000000
         C           -0.000095376269    -0.733122164485     0.162862233772    12.000000000000
         C            2.359429623731     0.299340835515    -0.423585766228    12.000000000000
         C           -2.359612376269     0.299352835515    -0.423575766228    12.000000000000
         C            3.219481623731    -0.912483164485    -0.072299766228    12.000000000000
         C           -3.219635376269    -0.912497164485    -0.072306766228    12.000000000000
         H            1.313822623731     0.415973835515     1.457316233772     1.007825032230
         H           -1.313993376269     0.415990835515     1.457318233772     1.007825032230
         H           -0.000078376269     2.358121835515     0.580740233772     1.007825032230
         H           -0.000082376269     1.615965835515    -1.039938766228     1.007825032230
         H           -0.000096376269    -1.063234164485    -0.884996766228     1.007825032230
         H           -0.000099376269    -1.615480164485     0.810693233772     1.007825032230
         H            2.931278623731     1.223343835515    -0.265857766228     1.007825032230
         H            2.099300623731     0.272616835515    -1.490112766228     1.007825032230
         H           -2.099492376269     0.272658835515    -1.490104766228     1.007825032230
         H           -2.931480376269     1.223339835515    -0.265819766228     1.007825032230
         H            2.672339623731    -1.842338164485    -0.255387766228     1.007825032230
         H            4.136864623731    -0.939427164485    -0.667928766228     1.007825032230
         H            3.504565623731    -0.893885164485     0.984360233772     1.007825032230
         H           -3.504682376269    -0.893942164485     0.984363233772     1.007825032230
         H           -4.137040376269    -0.939431164485    -0.667902766228     1.007825032230
         H           -2.672488376269    -1.842338164485    -0.255450766228     1.007825032230

  Basis Set: AUG-CC-PVTZ
    Blend: AUG-CC-PVTZ
  Basis Set: (AUG-CC-PVTZ AUX)
    Blend: AUG-CC-PVTZ-JKFIT
	 Reference Energy          =    -312.3340104884999278 [Eh]
	 Singles Energy            =      -0.0000000000000000 [Eh]
	 Same-Spin Energy          =      -0.3393698800298826 [Eh]
	 Opposite-Spin Energy      =      -1.2322432165915809 [Eh]
	 Correlation Energy        =      -1.5716130966214634 [Eh]
	 Total Energy              =    -313.9056235851214183 [Eh]

	 ================> DF-SCS-MP2 Energies <==================
	-----------------------------------------------------------
	 SCS Same-Spin Scale       =       0.3333333333333333 [-]
	 SCS Opposite-Spin Scale   =       1.2000000000000000 [-]
	 SCS Same-Spin Energy      =      -0.1131232933432942 [Eh]
	 SCS Opposite-Spin Energy  =      -1.4786918599098970 [Eh]
	 SCS Correlation Energy    =      -1.5918151532531912 [Eh]
	 SCS Total Energy          =    -313.9258256417531356 [Eh]
	-----------------------------------------------------------

  Dipole Moment: [D]
     X:    -0.0005      Y:     0.0730      Z:     0.1744     Total:     0.1891

*** Psi4 exiting successfully. Buy a developer a beer!
