                               Psi4 1.4a3.dev225

  ==> Input File <==

--------------------------------------------------------------------------
#psi4
#
memory 32 gb

molecule  {
0 1
  C        1.0769770     0.3750480     0.4036540
  C       -1.0769820     0.3750600     0.4036550
  C        0.0000030     1.4273620     0.0552210
  C       -0.0139310    -0.6989761     0.1832909
  C        2.3595160     0.3194210    -0.4060430
  C       -2.3595260     0.3194330    -0.4060330
  C        3.2195680    -0.8924030    -0.0547570
  C       -3.2195490    -0.8924170    -0.0547640
  H        1.3139090     0.4360540     1.4748590
  H       -1.3139070     0.4360710     1.4748610
  H        0.0000080     2.3782020     0.5982830
  H        0.0000040     1.6360460    -1.0223960
  H       -0.0000100    -1.0431540    -0.8674540
  H       -0.0000130    -1.5954000     0.8282360
  H        2.9313650     1.2434240    -0.2483150
  H        2.0993870     0.2926970    -1.4725700
  H       -2.0994060     0.2927390    -1.4725620
  H       -2.9313940     1.2434200    -0.2482770
  H        2.6724260    -1.8222580    -0.2378450
  H        4.1369510    -0.9193470    -0.6503860
  H        3.5046520    -0.8738050     1.0019030
  H       -3.5045960    -0.8738620     1.0019060
  H       -4.1369540    -0.9193510    -0.6503600
  H       -2.6724020    -1.8222580    -0.2379080
units angstrom
no_reorient  #important for SAPT in psi4, default
symmetry c1  #important for SAPT in psi4, default
}

set PROPERTIES_ORIGIN ["COM"]
properties('MP2/aug-cc-pvtz', properties = ['dipole'])
--------------------------------------------------------------------------

    Molecular point group: c1
  Charge       = 0
  Multiplicity = 1
  Basis Set: AUG-CC-PVTZ
    Blend: AUG-CC-PVTZ
  Basis Set: (AUG-CC-PVTZ AUX)
    Blend: AUG-CC-PVTZ-JKFIT

    Orbital Energies [Eh]
    ---------------------

    Doubly Occupied:

       1A    -11.217949     2A    -11.217378     3A    -11.213681
       4A    -11.213427     5A    -11.212186     6A    -11.211119
       7A    -11.209276     8A    -11.209231     9A     -1.143134
      10A     -1.046259    11A     -1.007974    12A     -0.899808
      13A     -0.891112    14A     -0.841212    15A     -0.769888
      16A     -0.743257    17A     -0.651547    18A     -0.617307
      19A     -0.613174    20A     -0.584803    21A     -0.572330
      22A     -0.537277    23A     -0.528110    24A     -0.525189
      25A     -0.508786    26A     -0.505326    27A     -0.482384
      28A     -0.464403    29A     -0.443143    30A     -0.440538
      31A     -0.420912    32A     -0.408359

  @DF-RHF Final Energy:  -312.34621028025219

   => Energetics <=

    Nuclear Repulsion Energy =            390.3422359971426658
    One-Electron Energy =               -1194.6759399468251104
    Two-Electron Energy =                 491.9874936694302505
    Total Energy =                       -312.3462102802521940
  Basis Set: (AUG-CC-PVTZ AUX)
    Blend: AUG-CC-PVTZ-RI
    Molecular point group: c1

    Geometry (in Angstrom), charge = 0, multiplicity = 1:

       Center              X                  Y                   Z               Mass
    ------------   -----------------  -----------------  -----------------  -----------------
         C            1.078467011547     0.356634647250     0.396902930861    12.000000000000
         C           -1.075491988453     0.356646647250     0.396903930861    12.000000000000
         C            0.001493011547     1.408948647250     0.048469930861    12.000000000000
         C           -0.012440988453    -0.717389452750     0.176539830861    12.000000000000
         C            2.361006011547     0.301007647250    -0.412794069139    12.000000000000
         C           -2.358035988453     0.301019647250    -0.412784069139    12.000000000000
         C            3.221058011547    -0.910816352750    -0.061508069139    12.000000000000
         C           -3.218058988453    -0.910830352750    -0.061515069139    12.000000000000
         H            1.315399011547     0.417640647250     1.468107930861     1.007825032230
         H           -1.312416988453     0.417657647250     1.468109930861     1.007825032230
         H            0.001498011547     2.359788647250     0.591531930861     1.007825032230
         H            0.001494011547     1.617632647250    -1.029147069139     1.007825032230
         H            0.001480011547    -1.061567352750    -0.874205069139     1.007825032230
         H            0.001477011547    -1.613813352750     0.821484930861     1.007825032230
         H            2.932855011547     1.225010647250    -0.255066069139     1.007825032230
         H            2.100877011547     0.274283647250    -1.479321069139     1.007825032230
         H           -2.097915988453     0.274325647250    -1.479313069139     1.007825032230
         H           -2.929903988453     1.225006647250    -0.255028069139     1.007825032230
         H            2.673916011547    -1.840671352750    -0.244596069139     1.007825032230
         H            4.138441011547    -0.937760352750    -0.657137069139     1.007825032230
         H            3.506142011547    -0.892218352750     0.995151930861     1.007825032230
         H           -3.503105988453    -0.892275352750     0.995154930861     1.007825032230
         H           -4.135463988453    -0.937764352750    -0.657111069139     1.007825032230
         H           -2.670911988453    -1.840671352750    -0.244659069139     1.007825032230

  Basis Set: AUG-CC-PVTZ
    Blend: AUG-CC-PVTZ
  Basis Set: (AUG-CC-PVTZ AUX)
    Blend: AUG-CC-PVTZ-JKFIT
	 Reference Energy          =    -312.3462102802521940 [Eh]
	 Singles Energy            =      -0.0000000000000000 [Eh]
	 Same-Spin Energy          =      -0.3391731872697926 [Eh]
	 Opposite-Spin Energy      =      -1.2315330338030113 [Eh]
	 Correlation Energy        =      -1.5707062210728038 [Eh]
	 Total Energy              =    -313.9169165013249767 [Eh]

	 ================> DF-SCS-MP2 Energies <==================
	-----------------------------------------------------------
	 SCS Same-Spin Scale       =       0.3333333333333333 [-]
	 SCS Opposite-Spin Scale   =       1.2000000000000000 [-]
	 SCS Same-Spin Energy      =      -0.1130577290899309 [Eh]
	 SCS Opposite-Spin Energy  =      -1.4778396405636134 [Eh]
	 SCS Correlation Energy    =      -1.5908973696535442 [Eh]
	 SCS Total Energy          =    -313.9371076499057267 [Eh]
	-----------------------------------------------------------

  Dipole Moment: [D]
     X:     0.0075      Y:     0.0774      Z:     0.0790     Total:     0.1108

*** Psi4 exiting successfully. Buy a developer a beer!
