                               Psi4 1.3.2 release

  ==> Input File <==

--------------------------------------------------------------------------
#psi4
#
memory 32 gb

molecule  {
0 1
  C       -0.0008780     0.0364400     0.3700670
  C       -1.3140620    -0.5659680    -0.0888750
  C        1.2035130    -0.7636300    -0.1050350
  O        0.0237072     1.3242379    -0.2594116
  H        0.0073480     0.0821120     1.4707400
  H       -1.4374710    -1.5773920     0.3081530
  H        1.2062590    -0.8068070    -1.1976420
  H        2.1383400    -0.2964470     0.2238190
  H        1.1818030    -1.7838790     0.2901510
  H        0.8552790     1.7789920     0.1244760
  H       -1.3353960    -0.6091480    -1.1813770
  H       -2.1493090     0.0516170     0.2489950
units angstrom
no_reorient  #important for SAPT in psi4, default
symmetry c1  #important for SAPT in psi4, default
}

set PROPERTIES_ORIGIN ["COM"]
properties('MP2/aug-cc-pvtz', properties = ['dipole'])
--------------------------------------------------------------------------

    Molecular point group: c1
  Charge       = 0
  Multiplicity = 1
  Basis Set: AUG-CC-PVTZ
    Blend: AUG-CC-PVTZ
  Basis Set: (AUG-CC-PVTZ AUX)
    Blend: AUG-CC-PVTZ-JKFIT

    Orbital Energies [Eh]
    ---------------------

    Doubly Occupied:

       1A    -20.560412     2A    -11.279233     3A    -11.215925
       4A    -11.209063     5A     -1.346619     6A     -1.038861
       7A     -0.937721     8A     -0.791595     9A     -0.690265
      10A     -0.621684    11A     -0.603142    12A     -0.544992
      13A     -0.532943    14A     -0.522384    15A     -0.508549
      16A     -0.472118    17A     -0.438386

  @DF-RHF Final Energy:  -193.18939412150212

   => Energetics <=

    Nuclear Repulsion Energy =            134.9679206678964931
    One-Electron Energy =                -529.6868451391783310
    Two-Electron Energy =                 201.5295303497797477
    Total Energy =                       -193.1893941215021187
  Basis Set: (AUG-CC-PVTZ AUX)
    Blend: AUG-CC-PVTZ-RI
    Molecular point group: c1

    Geometry (in Angstrom), charge = 0, multiplicity = 1:

       Center              X                  Y                   Z               Mass
    ------------   -----------------  -----------------  -----------------  -----------------
         C            0.007237940551    -0.004811949906     0.399136120621    12.000000000000
         C           -1.305946059449    -0.607219949906    -0.059805879379    12.000000000000
         C            1.211628940551    -0.804881949906    -0.075965879379    12.000000000000
         O            0.031823140551     1.282985950094    -0.230342479379    15.994914619570
         H            0.015463940551     0.040860050094     1.499809120621     1.007825032230
         H           -1.429355059449    -1.618643949906     0.337222120621     1.007825032230
         H            1.214374940551    -0.848058949906    -1.168572879379     1.007825032230
         H            2.146455940551    -0.337698949906     0.252888120621     1.007825032230
         H            1.189918940551    -1.825130949906     0.319220120621     1.007825032230
         H            0.863394940551     1.737740050094     0.153545120621     1.007825032230
         H           -1.327280059449    -0.650399949906    -1.152307879379     1.007825032230
         H           -2.141193059449     0.010365050094     0.278064120621     1.007825032230

  Basis Set: AUG-CC-PVTZ
    Blend: AUG-CC-PVTZ
  Basis Set: (AUG-CC-PVTZ AUX)
    Blend: AUG-CC-PVTZ-JKFIT
	 Reference Energy          =    -193.1893941215021187 [Eh]
	 Singles Energy            =      -0.0000000000000000 [Eh]
	 Same-Spin Energy          =      -0.1925607408704242 [Eh]
	 Opposite-Spin Energy      =      -0.6750234277241953 [Eh]
	 Correlation Energy        =      -0.8675841685946195 [Eh]
	 Total Energy              =    -194.0569782900967368 [Eh]

	 ================> DF-SCS-MP2 Energies <==================
	-----------------------------------------------------------
	 SCS Same-Spin Scale       =       0.3333333333333333 [-]
	 SCS Opposite-Spin Scale   =       1.2000000000000000 [-]
	 SCS Same-Spin Energy      =      -0.0641869136234747 [Eh]
	 SCS Opposite-Spin Energy  =      -0.8100281132690343 [Eh]
	 SCS Correlation Energy    =      -0.8742150268925091 [Eh]
	 SCS Total Energy          =    -194.0636091483946188 [Eh]
	-----------------------------------------------------------

  Dipole Moment: [D]
     X:     1.0672      Y:    -0.6978      Z:     1.1000     Total:     1.6840

*** Psi4 exiting successfully. Buy a developer a beer!
