                               Psi4 1.3.2 release

  ==> Input File <==

--------------------------------------------------------------------------
#psi4
#
memory 32 gb

molecule  {
0 1
  C       -0.0008780     0.0364400     0.3700670
  C       -1.3345916    -0.4745171    -0.1379745
  C        1.2035130    -0.7636300    -0.1050350
  O        0.0252140     1.3649880    -0.1680320
  H        0.0073480     0.0821120     1.4707400
  H       -1.4374710    -1.5773920     0.3081530
  H        1.2062590    -0.8068070    -1.1976420
  H        2.1383400    -0.2964470     0.2238190
  H        1.1818030    -1.7838790     0.2901510
  H        0.8552790     1.7789920     0.1244760
  H       -1.3353960    -0.6091480    -1.1813770
  H       -2.1493090     0.0516170     0.2489950
units angstrom
no_reorient  #important for SAPT in psi4, default
symmetry c1  #important for SAPT in psi4, default
}

set PROPERTIES_ORIGIN ["COM"]
properties('MP2/aug-cc-pvtz', properties = ['dipole'])
--------------------------------------------------------------------------

    Molecular point group: c1
  Charge       = 0
  Multiplicity = 1
  Basis Set: AUG-CC-PVTZ
    Blend: AUG-CC-PVTZ
  Basis Set: (AUG-CC-PVTZ AUX)
    Blend: AUG-CC-PVTZ-JKFIT

    Orbital Energies [Eh]
    ---------------------

    Doubly Occupied:

       1A    -20.552183     2A    -11.280233     3A    -11.219210
       4A    -11.211823     5A     -1.353621     6A     -1.040852
       7A     -0.941594     8A     -0.797434     9A     -0.692593
      10A     -0.633435    11A     -0.605245    12A     -0.554878
      13A     -0.536182    14A     -0.516673    15A     -0.494956
      16A     -0.475471    17A     -0.439194

  @DF-RHF Final Energy:  -193.18535515294093

   => Energetics <=

    Nuclear Repulsion Energy =            135.0310463704797144
    One-Electron Energy =                -529.7416447833337543
    Two-Electron Energy =                 201.5252432599131112
    Total Energy =                       -193.1853551529409287
  Basis Set: (AUG-CC-PVTZ AUX)
    Blend: AUG-CC-PVTZ-RI
    Molecular point group: c1

    Geometry (in Angstrom), charge = 0, multiplicity = 1:

       Center              X                  Y                   Z               Mass
    ------------   -----------------  -----------------  -----------------  -----------------
         C            0.010938627519    -0.033937450251     0.384609796951    12.000000000000
         C           -1.322774972481    -0.544894550251    -0.123431703049    12.000000000000
         C            1.215329627519    -0.834007450251    -0.090492203049    12.000000000000
         O            0.037030627519     1.294610549749    -0.153489203049    15.994914619570
         H            0.019164627519     0.011734549749     1.485282796951     1.007825032230
         H           -1.425654372481    -1.647769450251     0.322695796951     1.007825032230
         H            1.218075627519    -0.877184450251    -1.183099203049     1.007825032230
         H            2.150156627519    -0.366824450251     0.238361796951     1.007825032230
         H            1.193619627519    -1.854256450251     0.304693796951     1.007825032230
         H            0.867095627519     1.708614549749     0.139018796951     1.007825032230
         H           -1.323579372481    -0.679525450251    -1.166834203049     1.007825032230
         H           -2.137492372481    -0.018760450251     0.263537796951     1.007825032230

  Basis Set: AUG-CC-PVTZ
    Blend: AUG-CC-PVTZ
  Basis Set: (AUG-CC-PVTZ AUX)
    Blend: AUG-CC-PVTZ-JKFIT
	 Reference Energy          =    -193.1853551529409287 [Eh]
	 Singles Energy            =      -0.0000000000000000 [Eh]
	 Same-Spin Energy          =      -0.1918697793991340 [Eh]
	 Opposite-Spin Energy      =      -0.6734856929698432 [Eh]
	 Correlation Energy        =      -0.8653554723689771 [Eh]
	 Total Energy              =    -194.0507106253099039 [Eh]

	 ================> DF-SCS-MP2 Energies <==================
	-----------------------------------------------------------
	 SCS Same-Spin Scale       =       0.3333333333333333 [-]
	 SCS Opposite-Spin Scale   =       1.2000000000000000 [-]
	 SCS Same-Spin Energy      =      -0.0639565931330447 [Eh]
	 SCS Opposite-Spin Energy  =      -0.8081828315638118 [Eh]
	 SCS Correlation Energy    =      -0.8721394246968565 [Eh]
	 SCS Total Energy          =    -194.0574945776377831 [Eh]
	-----------------------------------------------------------

  Dipole Moment: [D]
     X:     1.1384      Y:    -0.7792      Z:     0.8974     Total:     1.6457

*** Psi4 exiting successfully. Buy a developer a beer!
