                               Psi4 1.4a3.dev225

  ==> Input File <==

--------------------------------------------------------------------------
#psi4
#
memory 32 gb

molecule  {
0 1
  C       -0.0009430     0.0362800     0.3701830
  C       -1.3145230    -0.5650620    -0.0890380
  C        1.2029820    -0.7643180    -0.1050550
  O        0.0265198     1.3836154    -0.1752141
  H        0.0074080     0.0820460     1.4708190
  H       -1.4389570    -1.5762170     0.3085700
  H        1.2054580    -0.8075300    -1.1976690
  H        2.1382080    -0.2978140     0.2236980
  H        1.1805850    -1.7845380     0.2901560
  H        0.8578980     1.7773510     0.1225920
  H       -1.3355770    -0.6086870    -1.1814120
  H       -2.1492510     0.0533470     0.2483910
units angstrom
no_reorient  #important for SAPT in psi4, default
symmetry c1  #important for SAPT in psi4, default
}

set PROPERTIES_ORIGIN ["COM"]
properties('MP2/aug-cc-pvtz', properties = ['dipole'])
--------------------------------------------------------------------------

    Molecular point group: c1
  Charge       = 0
  Multiplicity = 1
  Basis Set: AUG-CC-PVTZ
    Blend: AUG-CC-PVTZ
  Basis Set: (AUG-CC-PVTZ AUX)
    Blend: AUG-CC-PVTZ-JKFIT

    Orbital Energies [Eh]
    ---------------------

    Doubly Occupied:

       1A    -20.553551     2A    -11.281660     3A    -11.219015
       4A    -11.211247     5A     -1.348046     6A     -1.044085
       7A     -0.939151     8A     -0.795391     9A     -0.690516
      10A     -0.625480    11A     -0.603299    12A     -0.546794
      13A     -0.534530    14A     -0.523860    15A     -0.509272
      16A     -0.475048    17A     -0.439501

  @DF-RHF Final Energy:  -193.19602193943985

   => Energetics <=

    Nuclear Repulsion Energy =            134.4304825087932329
    One-Electron Energy =                -528.5721166289426947
    Two-Electron Energy =                 200.9456121807095883
    Total Energy =                       -193.1960219394398450
  Basis Set: (AUG-CC-PVTZ AUX)
    Blend: AUG-CC-PVTZ-RI
    Molecular point group: c1

    Geometry (in Angstrom), charge = 0, multiplicity = 1:

       Center              X                  Y                   Z               Mass
    ------------   -----------------  -----------------  -----------------  -----------------
         C            0.006653208123    -0.020779056069     0.376877887420    12.000000000000
         C           -1.306926791877    -0.622121056069    -0.082343112580    12.000000000000
         C            1.210578208123    -0.821377056069    -0.098360112580    12.000000000000
         O            0.034116008123     1.326556343931    -0.168519212580    15.994914619570
         H            0.015004208123     0.024986943931     1.477513887420     1.007825032230
         H           -1.431360791877    -1.633276056069     0.315264887420     1.007825032230
         H            1.213054208123    -0.864589056069    -1.190974112580     1.007825032230
         H            2.145804208123    -0.354873056069     0.230392887420     1.007825032230
         H            1.188181208123    -1.841597056069     0.296850887420     1.007825032230
         H            0.865494208123     1.720291943931     0.129286887420     1.007825032230
         H           -1.327980791877    -0.665746056069    -1.174717112580     1.007825032230
         H           -2.141654791877    -0.003712056069     0.255085887420     1.007825032230

  Basis Set: AUG-CC-PVTZ
    Blend: AUG-CC-PVTZ
  Basis Set: (AUG-CC-PVTZ AUX)
    Blend: AUG-CC-PVTZ-JKFIT
	 Reference Energy          =    -193.1960219394398450 [Eh]
	 Singles Energy            =      -0.0000000000000000 [Eh]
	 Same-Spin Energy          =      -0.1916727179230907 [Eh]
	 Opposite-Spin Energy      =      -0.6731922848889906 [Eh]
	 Correlation Energy        =      -0.8648650028120813 [Eh]
	 Total Energy              =    -194.0608869422519263 [Eh]

	 ================> DF-SCS-MP2 Energies <==================
	-----------------------------------------------------------
	 SCS Same-Spin Scale       =       0.3333333333333333 [-]
	 SCS Opposite-Spin Scale   =       1.2000000000000000 [-]
	 SCS Same-Spin Energy      =      -0.0638909059743636 [Eh]
	 SCS Opposite-Spin Energy  =      -0.8078307418667887 [Eh]
	 SCS Correlation Energy    =      -0.8717216478411522 [Eh]
	 SCS Total Energy          =    -194.0677435872810008 [Eh]
	-----------------------------------------------------------

  Dipole Moment: [D]
     X:     1.1098      Y:    -0.9204      Z:     0.9443     Total:     1.7235

*** Psi4 exiting successfully. Buy a developer a beer!
