                               Psi4 1.3.2 release

  ==> Input File <==

--------------------------------------------------------------------------
#psi4
#
memory 32 gb

molecule  {
0 1
  C       -0.0008780     0.0364400     0.3700670
  C       -1.3424248    -0.4278297    -0.1616106
  C        1.2035130    -0.7636300    -0.1050350
  O        0.0252140     1.3649880    -0.1680320
  H        0.0073480     0.0821120     1.4707400
  H       -1.4374710    -1.5773920     0.3081530
  H        1.2062590    -0.8068070    -1.1976420
  H        2.1383400    -0.2964470     0.2238190
  H        1.1818030    -1.7838790     0.2901510
  H        0.8552790     1.7789920     0.1244760
  H       -1.3353960    -0.6091480    -1.1813770
  H       -2.1493090     0.0516170     0.2489950
units angstrom
no_reorient  #important for SAPT in psi4, default
symmetry c1  #important for SAPT in psi4, default
}

set PROPERTIES_ORIGIN ["COM"]
properties('MP2/aug-cc-pvtz', properties = ['dipole'])
--------------------------------------------------------------------------

    Molecular point group: c1
  Charge       = 0
  Multiplicity = 1
  Basis Set: AUG-CC-PVTZ
    Blend: AUG-CC-PVTZ
  Basis Set: (AUG-CC-PVTZ AUX)
    Blend: AUG-CC-PVTZ-JKFIT

    Orbital Energies [Eh]
    ---------------------

    Doubly Occupied:

       1A    -20.551664     2A    -11.281201     3A    -11.220063
       4A    -11.214133     5A     -1.354288     6A     -1.040551
       7A     -0.943573     8A     -0.798858     9A     -0.693225
      10A     -0.638090    11A     -0.605690    12A     -0.561133
      13A     -0.538133    14A     -0.517956    15A     -0.488323
      16A     -0.465765    17A     -0.440095

  @DF-RHF Final Energy:  -193.17275799983892

   => Energetics <=

    Nuclear Repulsion Energy =            135.1334085475966447
    One-Electron Energy =                -529.9068490918493808
    Two-Electron Energy =                 201.6006825444137860
    Total Energy =                       -193.1727579998389217
  Basis Set: (AUG-CC-PVTZ AUX)
    Blend: AUG-CC-PVTZ-RI
    Molecular point group: c1

    Geometry (in Angstrom), charge = 0, multiplicity = 1:

       Center              X                  Y                   Z               Mass
    ------------   -----------------  -----------------  -----------------  -----------------
         C            0.012503767205    -0.043265988089     0.389332489866    12.000000000000
         C           -1.329043032795    -0.507535688089    -0.142345110134    12.000000000000
         C            1.216894767205    -0.843335988089    -0.085769510134    12.000000000000
         O            0.038595767205     1.285282011911    -0.148766510134    15.994914619570
         H            0.020729767205     0.002406011911     1.490005489866     1.007825032230
         H           -1.424089232795    -1.657097988089     0.327418489866     1.007825032230
         H            1.219640767205    -0.886512988089    -1.178376510134     1.007825032230
         H            2.151721767205    -0.376152988089     0.243084489866     1.007825032230
         H            1.195184767205    -1.863584988089     0.309416489866     1.007825032230
         H            0.868660767205     1.699286011911     0.143741489866     1.007825032230
         H           -1.322014232795    -0.688853988089    -1.162111510134     1.007825032230
         H           -2.135927232795    -0.028088988089     0.268260489866     1.007825032230

  Basis Set: AUG-CC-PVTZ
    Blend: AUG-CC-PVTZ
  Basis Set: (AUG-CC-PVTZ AUX)
    Blend: AUG-CC-PVTZ-JKFIT
	 Reference Energy          =    -193.1727579998389217 [Eh]
	 Singles Energy            =      -0.0000000000000000 [Eh]
	 Same-Spin Energy          =      -0.1920905870572227 [Eh]
	 Opposite-Spin Energy      =      -0.6741757934576966 [Eh]
	 Correlation Energy        =      -0.8662663805149193 [Eh]
	 Total Energy              =    -194.0390243803538510 [Eh]

	 ================> DF-SCS-MP2 Energies <==================
	-----------------------------------------------------------
	 SCS Same-Spin Scale       =       0.3333333333333333 [-]
	 SCS Opposite-Spin Scale   =       1.2000000000000000 [-]
	 SCS Same-Spin Energy      =      -0.0640301956857409 [Eh]
	 SCS Opposite-Spin Energy  =      -0.8090109521492359 [Eh]
	 SCS Correlation Energy    =      -0.8730411478349768 [Eh]
	 SCS Total Energy          =    -194.0457991476739039 [Eh]
	-----------------------------------------------------------

  Dipole Moment: [D]
     X:     1.1606      Y:    -0.7416      Z:     0.8822     Total:     1.6356

*** Psi4 exiting successfully. Buy a developer a beer!
