                               Psi4 1.3.2 release

  ==> Input File <==

--------------------------------------------------------------------------
#psi4
#
memory 32 gb

molecule  {
0 1
  C       -0.0008780     0.0364400     0.3700670
  C       -1.2871347    -0.6544841    -0.0375395
  C        1.2035130    -0.7636300    -0.1050350
  O        0.0252140     1.3649880    -0.1680320
  H        0.0073480     0.0821120     1.4707400
  H       -1.4374710    -1.5773920     0.3081530
  H        1.2062590    -0.8068070    -1.1976420
  H        2.1383400    -0.2964470     0.2238190
  H        1.1818030    -1.7838790     0.2901510
  H        0.8552790     1.7789920     0.1244760
  H       -1.3353960    -0.6091480    -1.1813770
  H       -2.1493090     0.0516170     0.2489950
units angstrom
no_reorient  #important for SAPT in psi4, default
symmetry c1  #important for SAPT in psi4, default
}

set PROPERTIES_ORIGIN ["COM"]
properties('MP2/aug-cc-pvtz', properties = ['dipole'])
--------------------------------------------------------------------------

    Molecular point group: c1
  Charge       = 0
  Multiplicity = 1
  Basis Set: AUG-CC-PVTZ
    Blend: AUG-CC-PVTZ
  Basis Set: (AUG-CC-PVTZ AUX)
    Blend: AUG-CC-PVTZ-JKFIT

    Orbital Energies [Eh]
    ---------------------

    Doubly Occupied:

       1A    -20.556975     2A    -11.280950     3A    -11.216863
       4A    -11.212873     5A     -1.354542     6A     -1.045484
       7A     -0.937768     8A     -0.799315     9A     -0.696405
      10A     -0.622620    11A     -0.603256    12A     -0.567327
      13A     -0.541440    14A     -0.525072    15A     -0.495116
      16A     -0.465659    17A     -0.434579

  @DF-RHF Final Energy:  -193.18307925811007

   => Energetics <=

    Nuclear Repulsion Energy =            134.7161214981128694
    One-Electron Energy =                -529.0859150754545226
    Two-Electron Energy =                 201.1867143192315552
    Total Energy =                       -193.1830792581100695
  Basis Set: (AUG-CC-PVTZ AUX)
    Blend: AUG-CC-PVTZ-RI
    Molecular point group: c1

    Geometry (in Angstrom), charge = 0, multiplicity = 1:

       Center              X                  Y                   Z               Mass
    ------------   -----------------  -----------------  -----------------  -----------------
         C            0.001456337065     0.002021480191     0.364542033533    12.000000000000
         C           -1.284800362935    -0.688902619809    -0.043064466467    12.000000000000
         C            1.205847337065    -0.798048519809    -0.110559966467    12.000000000000
         O            0.027548337065     1.330569480191    -0.173556966467    15.994914619570
         H            0.009682337065     0.047693480191     1.465215033533     1.007825032230
         H           -1.435136662935    -1.611810519809     0.302628033533     1.007825032230
         H            1.208593337065    -0.841225519809    -1.203166966467     1.007825032230
         H            2.140674337065    -0.330865519809     0.218294033533     1.007825032230
         H            1.184137337065    -1.818297519809     0.284626033533     1.007825032230
         H            0.857613337065     1.744573480191     0.118951033533     1.007825032230
         H           -1.333061662935    -0.643566519809    -1.186901966467     1.007825032230
         H           -2.146974662935     0.017198480191     0.243470033533     1.007825032230

  Basis Set: AUG-CC-PVTZ
    Blend: AUG-CC-PVTZ
  Basis Set: (AUG-CC-PVTZ AUX)
    Blend: AUG-CC-PVTZ-JKFIT
	 Reference Energy          =    -193.1830792581100695 [Eh]
	 Singles Energy            =      -0.0000000000000000 [Eh]
	 Same-Spin Energy          =      -0.1918784082934082 [Eh]
	 Opposite-Spin Energy      =      -0.6734019304855972 [Eh]
	 Correlation Energy        =      -0.8652803387790053 [Eh]
	 Total Energy              =    -194.0483595968890711 [Eh]

	 ================> DF-SCS-MP2 Energies <==================
	-----------------------------------------------------------
	 SCS Same-Spin Scale       =       0.3333333333333333 [-]
	 SCS Opposite-Spin Scale   =       1.2000000000000000 [-]
	 SCS Same-Spin Energy      =      -0.0639594694311361 [Eh]
	 SCS Opposite-Spin Energy  =      -0.8080823165827166 [Eh]
	 SCS Correlation Energy    =      -0.8720417860138526 [Eh]
	 SCS Total Energy          =    -194.0551210441239220 [Eh]
	-----------------------------------------------------------

  Dipole Moment: [D]
     X:     1.1171      Y:    -0.8318      Z:     0.9421     Total:     1.6815

*** Psi4 exiting successfully. Buy a developer a beer!
