                               Psi4 1.3.2 release

  ==> Input File <==

--------------------------------------------------------------------------
#psi4
#
memory 32 gb

molecule  {
0 1
  C       -0.0008780     0.0364400     0.3700670
  C       -1.3140620    -0.5659680    -0.0888750
  C        1.2035130    -0.7636300    -0.1050350
  O        0.0252140     1.3649880    -0.1680320
  H        0.0073480     0.0821120     1.4707400
  H       -1.4374710    -1.5773920     0.3081530
  H        1.2062590    -0.8068070    -1.1976420
  H        2.1383400    -0.2964470     0.2238190
  H        1.1818030    -1.7838790     0.2901510
  H        0.8552790     1.7789920     0.1244760
  H       -1.3353960    -0.6091480    -1.1813770
  H       -2.1493090     0.0516170     0.2489950
units angstrom
no_reorient  #important for SAPT in psi4, default
symmetry c1  #important for SAPT in psi4, default
}

set PROPERTIES_ORIGIN ["COM"]
properties('MP2/aug-cc-pvtz', properties = ['dipole'])
--------------------------------------------------------------------------

    Molecular point group: c1
  Charge       = 0
  Multiplicity = 1
  Basis Set: AUG-CC-PVTZ
    Blend: AUG-CC-PVTZ
  Basis Set: (AUG-CC-PVTZ AUX)
    Blend: AUG-CC-PVTZ-JKFIT

    Orbital Energies [Eh]
    ---------------------

    Doubly Occupied:

       1A    -20.554067     2A    -11.279613     3A    -11.217800
       4A    -11.210359     5A     -1.353407     6A     -1.042438
       7A     -0.938658     8A     -0.796346     9A     -0.693498
      10A     -0.626443    11A     -0.604038    12A     -0.545830
      13A     -0.533817    14A     -0.526270    15A     -0.509947
      16A     -0.472786    17A     -0.437387

  @DF-RHF Final Energy:  -193.19665501955316

   => Energetics <=

    Nuclear Repulsion Energy =            134.8490590984055189
    One-Electron Energy =                -529.4060168639705353
    Two-Electron Energy =                 201.3603027460118540
    Total Energy =                       -193.1966550195531624
  Basis Set: (AUG-CC-PVTZ AUX)
    Blend: AUG-CC-PVTZ-RI
    Molecular point group: c1

    Geometry (in Angstrom), charge = 0, multiplicity = 1:

       Center              X                  Y                   Z               Mass
    ------------   -----------------  -----------------  -----------------  -----------------
         C            0.006836639608    -0.015664786085     0.374799301108    12.000000000000
         C           -1.306347360392    -0.618072786085    -0.084142698892    12.000000000000
         C            1.211227639608    -0.815734786085    -0.100302698892    12.000000000000
         O            0.032928639608     1.312883213915    -0.163299698892    15.994914619570
         H            0.015062639608     0.030007213915     1.475472301108     1.007825032230
         H           -1.429756360392    -1.629496786085     0.312885301108     1.007825032230
         H            1.213973639608    -0.858911786085    -1.192909698892     1.007825032230
         H            2.146054639608    -0.348551786085     0.228551301108     1.007825032230
         H            1.189517639608    -1.835983786085     0.294883301108     1.007825032230
         H            0.862993639608     1.726887213915     0.129208301108     1.007825032230
         H           -1.327681360392    -0.661252786085    -1.176644698892     1.007825032230
         H           -2.141594360392    -0.000487786085     0.253727301108     1.007825032230

  Basis Set: AUG-CC-PVTZ
    Blend: AUG-CC-PVTZ
  Basis Set: (AUG-CC-PVTZ AUX)
    Blend: AUG-CC-PVTZ-JKFIT
	 Reference Energy          =    -193.1966550195531624 [Eh]
	 Singles Energy            =      -0.0000000000000000 [Eh]
	 Same-Spin Energy          =      -0.1916873623464678 [Eh]
	 Opposite-Spin Energy      =      -0.6728795012134358 [Eh]
	 Correlation Energy        =      -0.8645668635599035 [Eh]
	 Total Energy              =    -194.0612218831130633 [Eh]

	 ================> DF-SCS-MP2 Energies <==================
	-----------------------------------------------------------
	 SCS Same-Spin Scale       =       0.3333333333333333 [-]
	 SCS Opposite-Spin Scale   =       1.2000000000000000 [-]
	 SCS Same-Spin Energy      =      -0.0638957874488226 [Eh]
	 SCS Opposite-Spin Energy  =      -0.8074554014561229 [Eh]
	 SCS Correlation Energy    =      -0.8713511889049456 [Eh]
	 SCS Total Energy          =    -194.0680062084581152 [Eh]
	-----------------------------------------------------------

  Dipole Moment: [D]
     X:     1.1129      Y:    -0.8261      Z:     0.9230     Total:     1.6652

*** Psi4 exiting successfully. Buy a developer a beer!
