                               Psi4 1.3.2 release

  ==> Input File <==

--------------------------------------------------------------------------
#psi4
#
memory 32 gb

molecule  {
0 1
  C        0.0880036     0.0554203     0.4119345
  C       -1.3140620    -0.5659680    -0.0888750
  C        1.2035130    -0.7636300    -0.1050350
  O        0.0252140     1.3649880    -0.1680320
  H        0.0073480     0.0821120     1.4707400
  H       -1.4374710    -1.5773920     0.3081530
  H        1.2062590    -0.8068070    -1.1976420
  H        2.1383400    -0.2964470     0.2238190
  H        1.1818030    -1.7838790     0.2901510
  H        0.8552790     1.7789920     0.1244760
  H       -1.3353960    -0.6091480    -1.1813770
  H       -2.1493090     0.0516170     0.2489950
units angstrom
no_reorient  #important for SAPT in psi4, default
symmetry c1  #important for SAPT in psi4, default
}

set PROPERTIES_ORIGIN ["COM"]
properties('MP2/aug-cc-pvtz', properties = ['dipole'])
--------------------------------------------------------------------------

    Molecular point group: c1
  Charge       = 0
  Multiplicity = 1
  Basis Set: AUG-CC-PVTZ
    Blend: AUG-CC-PVTZ
  Basis Set: (AUG-CC-PVTZ AUX)
    Blend: AUG-CC-PVTZ-JKFIT

    Orbital Energies [Eh]
    ---------------------

    Doubly Occupied:

       1A    -20.557829     2A    -11.278481     3A    -11.218005
       4A    -11.210310     5A     -1.356897     6A     -1.039978
       7A     -0.931334     8A     -0.801791     9A     -0.693836
      10A     -0.629002    11A     -0.603495    12A     -0.552119
      13A     -0.531092    14A     -0.524738    15A     -0.512683
      16A     -0.454193    17A     -0.443766

  @DF-RHF Final Energy:  -193.18609458093104

   => Energetics <=

    Nuclear Repulsion Energy =            134.5299845911112300
    One-Electron Energy =                -528.7530615686342799
    Two-Electron Energy =                 201.0369823965920375
    Total Energy =                       -193.1860945809310408
  Basis Set: (AUG-CC-PVTZ AUX)
    Blend: AUG-CC-PVTZ-RI
    Molecular point group: c1

    Geometry (in Angstrom), charge = 0, multiplicity = 1:

       Center              X                  Y                   Z               Mass
    ------------   -----------------  -----------------  -----------------  -----------------
         C            0.077958943337    -0.000476910737     0.408301320102    12.000000000000
         C           -1.324106656663    -0.621865210737    -0.092508179898    12.000000000000
         C            1.193468343337    -0.819527210737    -0.108668179898    12.000000000000
         O            0.015169343337     1.309090789263    -0.171665179898    15.994914619570
         H           -0.002696656663     0.026214789263     1.467106820102     1.007825032230
         H           -1.447515656663    -1.633289210737     0.304519820102     1.007825032230
         H            1.196214343337    -0.862704210737    -1.201275179898     1.007825032230
         H            2.128295343337    -0.352344210737     0.220185820102     1.007825032230
         H            1.171758343337    -1.839776210737     0.286517820102     1.007825032230
         H            0.845234343337     1.723094789263     0.120842820102     1.007825032230
         H           -1.345440656663    -0.665045210737    -1.185010179898     1.007825032230
         H           -2.159353656663    -0.004280210737     0.245361820102     1.007825032230

  Basis Set: AUG-CC-PVTZ
    Blend: AUG-CC-PVTZ
  Basis Set: (AUG-CC-PVTZ AUX)
    Blend: AUG-CC-PVTZ-JKFIT
	 Reference Energy          =    -193.1860945809310408 [Eh]
	 Singles Energy            =      -0.0000000000000000 [Eh]
	 Same-Spin Energy          =      -0.1920190030688805 [Eh]
	 Opposite-Spin Energy      =      -0.6739325694029865 [Eh]
	 Correlation Energy        =      -0.8659515724718669 [Eh]
	 Total Energy              =    -194.0520461534028982 [Eh]

	 ================> DF-SCS-MP2 Energies <==================
	-----------------------------------------------------------
	 SCS Same-Spin Scale       =       0.3333333333333333 [-]
	 SCS Opposite-Spin Scale   =       1.2000000000000000 [-]
	 SCS Same-Spin Energy      =      -0.0640063343562935 [Eh]
	 SCS Opposite-Spin Energy  =      -0.8087190832835838 [Eh]
	 SCS Correlation Energy    =      -0.8727254176398773 [Eh]
	 SCS Total Energy          =    -194.0588199985709252 [Eh]
	-----------------------------------------------------------

  Dipole Moment: [D]
     X:     1.2749      Y:    -0.7736      Z:     0.9574     Total:     1.7722

*** Psi4 exiting successfully. Buy a developer a beer!
