                               Psi4 1.4a3.dev225

  ==> Input File <==

--------------------------------------------------------------------------
#psi4
#
memory 32 gb

molecule  {
0 1
  C       -0.0009430     0.0362800     0.3701830
  C       -1.3145230    -0.5650620    -0.0890380
  C        1.2029820    -0.7643180    -0.1050550
  O        0.0257642     1.3465446    -0.1602079
  H        0.0074080     0.0820460     1.4708190
  H       -1.4389570    -1.5762170     0.3085700
  H        1.2054580    -0.8075300    -1.1976690
  H        2.1382080    -0.2978140     0.2236980
  H        1.1805850    -1.7845380     0.2901560
  H        0.8578980     1.7773510     0.1225920
  H       -1.3355770    -0.6086870    -1.1814120
  H       -2.1492510     0.0533470     0.2483910
units angstrom
no_reorient  #important for SAPT in psi4, default
symmetry c1  #important for SAPT in psi4, default
}

set PROPERTIES_ORIGIN ["COM"]
properties('MP2/aug-cc-pvtz', properties = ['dipole'])
--------------------------------------------------------------------------

    Molecular point group: c1
  Charge       = 0
  Multiplicity = 1
  Basis Set: AUG-CC-PVTZ
    Blend: AUG-CC-PVTZ
  Basis Set: (AUG-CC-PVTZ AUX)
    Blend: AUG-CC-PVTZ-JKFIT

    Orbital Energies [Eh]
    ---------------------

    Doubly Occupied:

       1A    -20.554509     2A    -11.277580     3A    -11.216647
       4A    -11.209485     5A     -1.358938     6A     -1.040778
       7A     -0.938266     8A     -0.797473     9A     -0.696194
      10A     -0.627747    11A     -0.604964    12A     -0.544867
      13A     -0.533152    14A     -0.528562    15A     -0.510490
      16A     -0.470501    17A     -0.435151

  @DF-RHF Final Energy:  -193.19668385860106

   => Energetics <=

    Nuclear Repulsion Energy =            135.2720340337261575
    One-Electron Energy =                -530.2468238454607672
    Two-Electron Energy =                 201.7781059531335188
    Total Energy =                       -193.1966838586010624
  Basis Set: (AUG-CC-PVTZ AUX)
    Blend: AUG-CC-PVTZ-RI
    Molecular point group: c1

    Geometry (in Angstrom), charge = 0, multiplicity = 1:

       Center              X                  Y                   Z               Mass
    ------------   -----------------  -----------------  -----------------  -----------------
         C            0.006854444513    -0.010906115404     0.372881336976    12.000000000000
         C           -1.306725555487    -0.612248115404    -0.086339663024    12.000000000000
         C            1.210779444513    -0.811504115404    -0.102356663024    12.000000000000
         O            0.033561644513     1.299358484596    -0.157509563024    15.994914619570
         H            0.015205444513     0.034859884596     1.473517336976     1.007825032230
         H           -1.431159555487    -1.623403115404     0.311268336976     1.007825032230
         H            1.213255444513    -0.854716115404    -1.194970663024     1.007825032230
         H            2.146005444513    -0.345000115404     0.226396336976     1.007825032230
         H            1.188382444513    -1.831724115404     0.292854336976     1.007825032230
         H            0.865695444513     1.730164884596     0.125290336976     1.007825032230
         H           -1.327779555487    -0.655873115404    -1.178713663024     1.007825032230
         H           -2.141453555487     0.006160884596     0.251089336976     1.007825032230

  Basis Set: AUG-CC-PVTZ
    Blend: AUG-CC-PVTZ
  Basis Set: (AUG-CC-PVTZ AUX)
    Blend: AUG-CC-PVTZ-JKFIT
	 Reference Energy          =    -193.1966838586010624 [Eh]
	 Singles Energy            =      -0.0000000000000000 [Eh]
	 Same-Spin Energy          =      -0.1917241982363462 [Eh]
	 Opposite-Spin Energy      =      -0.6726139051229145 [Eh]
	 Correlation Energy        =      -0.8643381033592608 [Eh]
	 Total Energy              =    -194.0610219619603356 [Eh]

	 ================> DF-SCS-MP2 Energies <==================
	-----------------------------------------------------------
	 SCS Same-Spin Scale       =       0.3333333333333333 [-]
	 SCS Opposite-Spin Scale   =       1.2000000000000000 [-]
	 SCS Same-Spin Energy      =      -0.0639080660787820 [Eh]
	 SCS Opposite-Spin Energy  =      -0.8071366861474975 [Eh]
	 SCS Correlation Energy    =      -0.8710447522262795 [Eh]
	 SCS Total Energy          =    -194.0677286108273449 [Eh]
	-----------------------------------------------------------

  Dipole Moment: [D]
     X:     1.1179      Y:    -0.7380      Z:     0.8941     Total:     1.6105

*** Psi4 exiting successfully. Buy a developer a beer!
