                               Psi4 1.4a3.dev225

  ==> Input File <==

--------------------------------------------------------------------------
#psi4
#
memory 32 gb

molecule  {
0 1
  C       -0.0009430     0.0362800     0.3701830
  C       -1.3145230    -0.5650620    -0.0890380
  C        1.2029820    -0.7643180    -0.1050550
  O        0.0270865     1.4114185    -0.1864687
  H        0.0074080     0.0820460     1.4708190
  H       -1.4389570    -1.5762170     0.3085700
  H        1.2054580    -0.8075300    -1.1976690
  H        2.1382080    -0.2978140     0.2236980
  H        1.1805850    -1.7845380     0.2901560
  H        0.8578980     1.7773510     0.1225920
  H       -1.3355770    -0.6086870    -1.1814120
  H       -2.1492510     0.0533470     0.2483910
units angstrom
no_reorient  #important for SAPT in psi4, default
symmetry c1  #important for SAPT in psi4, default
}

set PROPERTIES_ORIGIN ["COM"]
properties('MP2/aug-cc-pvtz', properties = ['dipole'])
--------------------------------------------------------------------------

    Molecular point group: c1
  Charge       = 0
  Multiplicity = 1
  Basis Set: AUG-CC-PVTZ
    Blend: AUG-CC-PVTZ
  Basis Set: (AUG-CC-PVTZ AUX)
    Blend: AUG-CC-PVTZ-JKFIT

    Orbital Energies [Eh]
    ---------------------

    Doubly Occupied:

       1A    -20.552771     2A    -11.284729     3A    -11.220754
       4A    -11.212566     5A     -1.340692     6A     -1.046455
       7A     -0.939890     8A     -0.794210     9A     -0.686162
      10A     -0.624209    11A     -0.602439    12A     -0.548293
      13A     -0.535733    14A     -0.520315    15A     -0.507818
      16A     -0.478100    17A     -0.442426

  @DF-RHF Final Energy:  -193.19409877237518

   => Energetics <=

    Nuclear Repulsion Energy =            133.8175532066830726
    One-Electron Energy =                -527.3481821213475769
    Two-Electron Energy =                 200.3365301422892912
    Total Energy =                       -193.1940987723751846
  Basis Set: (AUG-CC-PVTZ AUX)
    Blend: AUG-CC-PVTZ-RI
    Molecular point group: c1

    Geometry (in Angstrom), charge = 0, multiplicity = 1:

       Center              X                  Y                   Z               Mass
    ------------   -----------------  -----------------  -----------------  -----------------
         C            0.006502280831    -0.028183761568     0.379875286937    12.000000000000
         C           -1.307077719169    -0.629525761568    -0.079345713063    12.000000000000
         C            1.210427280831    -0.828781761568    -0.095362713063    12.000000000000
         O            0.034531780831     1.346954738432    -0.176776413063    15.994914619570
         H            0.014853280831     0.017582238432     1.480511286937     1.007825032230
         H           -1.431511719169    -1.640680761568     0.318262286937     1.007825032230
         H            1.212903280831    -0.871993761568    -1.187976713063     1.007825032230
         H            2.145653280831    -0.362277761568     0.233390286937     1.007825032230
         H            1.188030280831    -1.849001761568     0.299848286937     1.007825032230
         H            0.865343280831     1.712887238432     0.132284286937     1.007825032230
         H           -1.328131719169    -0.673150761568    -1.171719713063     1.007825032230
         H           -2.141805719169    -0.011116761568     0.258083286937     1.007825032230

  Basis Set: AUG-CC-PVTZ
    Blend: AUG-CC-PVTZ
  Basis Set: (AUG-CC-PVTZ AUX)
    Blend: AUG-CC-PVTZ-JKFIT
	 Reference Energy          =    -193.1940987723751846 [Eh]
	 Singles Energy            =      -0.0000000000000000 [Eh]
	 Same-Spin Energy          =      -0.1916814534937360 [Eh]
	 Opposite-Spin Energy      =      -0.6737208044278313 [Eh]
	 Correlation Energy        =      -0.8654022579215673 [Eh]
	 Total Energy              =    -194.0595010302967580 [Eh]

	 ================> DF-SCS-MP2 Energies <==================
	-----------------------------------------------------------
	 SCS Same-Spin Scale       =       0.3333333333333333 [-]
	 SCS Opposite-Spin Scale   =       1.2000000000000000 [-]
	 SCS Same-Spin Energy      =      -0.0638938178312453 [Eh]
	 SCS Opposite-Spin Energy  =      -0.8084649653133976 [Eh]
	 SCS Correlation Energy    =      -0.8723587831446430 [Eh]
	 SCS Total Energy          =    -194.0664575555198326 [Eh]
	-----------------------------------------------------------

  Dipole Moment: [D]
     X:     1.1028      Y:    -1.0543      Z:     0.9800     Total:     1.8133

*** Psi4 exiting successfully. Buy a developer a beer!
