                               Psi4 1.3.2 release

  ==> Input File <==

--------------------------------------------------------------------------
#psi4
#
memory 32 gb

molecule  {
0 1
  C       -0.0008780     0.0364400     0.3700670
  C       -1.3140620    -0.5659680    -0.0888750
  C        1.2035130    -0.7636300    -0.1050350
  O        0.0252140     1.3649880    -0.1680320
  H        0.0073480     0.0821120     1.4707400
  H       -1.4374710    -1.5773920     0.3081530
  H        1.2062590    -0.8068070    -1.1976420
  H        2.1383400    -0.2964470     0.2238190
  H        1.1818030    -1.7838790     0.2901510
  H        1.0259673     1.8641247     0.1846251
  H       -1.3353960    -0.6091480    -1.1813770
  H       -2.1493090     0.0516170     0.2489950
units angstrom
no_reorient  #important for SAPT in psi4, default
symmetry c1  #important for SAPT in psi4, default
}

set PROPERTIES_ORIGIN ["COM"]
properties('MP2/aug-cc-pvtz', properties = ['dipole'])
--------------------------------------------------------------------------

    Molecular point group: c1
  Charge       = 0
  Multiplicity = 1
  Basis Set: AUG-CC-PVTZ
    Blend: AUG-CC-PVTZ
  Basis Set: (AUG-CC-PVTZ AUX)
    Blend: AUG-CC-PVTZ-JKFIT

    Orbital Energies [Eh]
    ---------------------

    Doubly Occupied:

       1A    -20.569850     2A    -11.278271     3A    -11.216635
       4A    -11.210679     5A     -1.322794     6A     -1.034631
       7A     -0.937555     8A     -0.787279     9A     -0.666000
      10A     -0.617080    11A     -0.601695    12A     -0.541878
      13A     -0.527678    14A     -0.523631    15A     -0.507468
      16A     -0.465166    17A     -0.434435

  @DF-RHF Final Energy:  -193.16099027308090

   => Energetics <=

    Nuclear Repulsion Energy =            133.8684846521275063
    One-Electron Energy =                -527.5734989274812961
    Two-Electron Energy =                 200.5440240022728915
    Total Energy =                       -193.1609902730808983
  Basis Set: (AUG-CC-PVTZ AUX)
    Blend: AUG-CC-PVTZ-RI
    Molecular point group: c1

    Geometry (in Angstrom), charge = 0, multiplicity = 1:

       Center              X                  Y                   Z               Mass
    ------------   -----------------  -----------------  -----------------  -----------------
         C            0.003972319600    -0.017093397746     0.373789939186    12.000000000000
         C           -1.309211680400    -0.619501397746    -0.085152060814    12.000000000000
         C            1.208363319600    -0.817163397746    -0.101312060814    12.000000000000
         O            0.030064319600     1.311454602254    -0.164309060814    15.994914619570
         H            0.012198319600     0.028578602254     1.474462939186     1.007825032230
         H           -1.432620680400    -1.630925397746     0.311875939186     1.007825032230
         H            1.211109319600    -0.860340397746    -1.193919060814     1.007825032230
         H            2.143190319600    -0.349980397746     0.227541939186     1.007825032230
         H            1.186653319600    -1.837412397746     0.293873939186     1.007825032230
         H            1.030817619600     1.810591302254     0.188348039186     1.007825032230
         H           -1.330545680400    -0.662681397746    -1.177654060814     1.007825032230
         H           -2.144458680400    -0.001916397746     0.252717939186     1.007825032230

  Basis Set: AUG-CC-PVTZ
    Blend: AUG-CC-PVTZ
  Basis Set: (AUG-CC-PVTZ AUX)
    Blend: AUG-CC-PVTZ-JKFIT
	 Reference Energy          =    -193.1609902730808983 [Eh]
	 Singles Energy            =      -0.0000000000000000 [Eh]
	 Same-Spin Energy          =      -0.1938548707291061 [Eh]
	 Opposite-Spin Energy      =      -0.6796443187132907 [Eh]
	 Correlation Energy        =      -0.8734991894423968 [Eh]
	 Total Energy              =    -194.0344894625232826 [Eh]

	 ================> DF-SCS-MP2 Energies <==================
	-----------------------------------------------------------
	 SCS Same-Spin Scale       =       0.3333333333333333 [-]
	 SCS Opposite-Spin Scale   =       1.2000000000000000 [-]
	 SCS Same-Spin Energy      =      -0.0646182902430354 [Eh]
	 SCS Opposite-Spin Energy  =      -0.8155731824559488 [Eh]
	 SCS Correlation Energy    =      -0.8801914726989841 [Eh]
	 SCS Total Energy          =    -194.0411817457798804 [Eh]
	-----------------------------------------------------------

  Dipole Moment: [D]
     X:     1.1806      Y:    -0.7662      Z:     0.9487     Total:     1.6973

*** Psi4 exiting successfully. Buy a developer a beer!
