                               Psi4 1.4a3.dev225

  ==> Input File <==

--------------------------------------------------------------------------
#psi4
#
memory 32 gb

molecule  {
0 1
  C       -0.0009430     0.0362800     0.3701830
  C       -1.3145230    -0.5650620    -0.0890380
  C        1.2029820    -0.7643180    -0.1050550
  O        0.0261420     1.3650800    -0.1677110
  H        0.0074080     0.0820460     1.4708190
  H       -1.4389570    -1.5762170     0.3085700
  H        1.2054580    -0.8075300    -1.1976690
  H        2.1382080    -0.2978140     0.2236980
  H        1.1805850    -1.7845380     0.2901560
  H        0.8407952     1.7688738     0.1166227
  H       -1.3355770    -0.6086870    -1.1814120
  H       -2.1492510     0.0533470     0.2483910
units angstrom
no_reorient  #important for SAPT in psi4, default
symmetry c1  #important for SAPT in psi4, default
}

set PROPERTIES_ORIGIN ["COM"]
properties('MP2/aug-cc-pvtz', properties = ['dipole'])
--------------------------------------------------------------------------

    Molecular point group: c1
  Charge       = 0
  Multiplicity = 1
  Basis Set: AUG-CC-PVTZ
    Blend: AUG-CC-PVTZ
  Basis Set: (AUG-CC-PVTZ AUX)
    Blend: AUG-CC-PVTZ-JKFIT

    Orbital Energies [Eh]
    ---------------------

    Doubly Occupied:

       1A    -20.552130     2A    -11.279809     3A    -11.217973
       4A    -11.210400     5A     -1.357769     6A     -1.043508
       7A     -0.938844     8A     -0.797740     9A     -0.696606
      10A     -0.627269    11A     -0.604317    12A     -0.546316
      13A     -0.534235    14A     -0.526602    15A     -0.510278
      16A     -0.473440    17A     -0.437823

  @DF-RHF Final Energy:  -193.19754445439452

   => Energetics <=

    Nuclear Repulsion Energy =            134.9633366599799444
    One-Electron Energy =                -529.6116405090110675
    Two-Electron Energy =                 201.4507593946365773
    Total Energy =                       -193.1975444543945173
  Basis Set: (AUG-CC-PVTZ AUX)
    Blend: AUG-CC-PVTZ-RI
    Molecular point group: c1

    Geometry (in Angstrom), charge = 0, multiplicity = 1:

       Center              X                  Y                   Z               Mass
    ------------   -----------------  -----------------  -----------------  -----------------
         C            0.007040828369    -0.015700329861     0.374979783009    12.000000000000
         C           -1.306539171631    -0.617042329861    -0.084241216991    12.000000000000
         C            1.210965828369    -0.816298329861    -0.100258216991    12.000000000000
         O            0.034125828369     1.313099670139    -0.162914216991    15.994914619570
         H            0.015391828369     0.030065670139     1.475615783009     1.007825032230
         H           -1.430973171631    -1.628197329861     0.313366783009     1.007825032230
         H            1.213441828369    -0.859510329861    -1.192872216991     1.007825032230
         H            2.146191828369    -0.349794329861     0.228494783009     1.007825032230
         H            1.188568828369    -1.836518329861     0.294952783009     1.007825032230
         H            0.848779028369     1.716893470139     0.121419483009     1.007825032230
         H           -1.327593171631    -0.660667329861    -1.176615216991     1.007825032230
         H           -2.141267171631     0.001366670139     0.253187783009     1.007825032230

  Basis Set: AUG-CC-PVTZ
    Blend: AUG-CC-PVTZ
  Basis Set: (AUG-CC-PVTZ AUX)
    Blend: AUG-CC-PVTZ-JKFIT
	 Reference Energy          =    -193.1975444543945173 [Eh]
	 Singles Energy            =      -0.0000000000000000 [Eh]
	 Same-Spin Energy          =      -0.1914531552246185 [Eh]
	 Opposite-Spin Energy      =      -0.6722653050325180 [Eh]
	 Correlation Energy        =      -0.8637184602571365 [Eh]
	 Total Energy              =    -194.0612629146516497 [Eh]

	 ================> DF-SCS-MP2 Energies <==================
	-----------------------------------------------------------
	 SCS Same-Spin Scale       =       0.3333333333333333 [-]
	 SCS Opposite-Spin Scale   =       1.2000000000000000 [-]
	 SCS Same-Spin Energy      =      -0.0638177184082062 [Eh]
	 SCS Opposite-Spin Energy  =      -0.8067183660390216 [Eh]
	 SCS Correlation Energy    =      -0.8705360844472277 [Eh]
	 SCS Total Energy          =    -194.0680805388417411 [Eh]
	-----------------------------------------------------------

  Dipole Moment: [D]
     X:     1.1051      Y:    -0.8388      Z:     0.9169     Total:     1.6630

*** Psi4 exiting successfully. Buy a developer a beer!
