                               Psi4 1.3.2 release

  ==> Input File <==

--------------------------------------------------------------------------
#psi4
#
memory 32 gb

molecule  {
0 1
  C       -0.0008780     0.0364400     0.3700670
  C       -1.3140620    -0.5659680    -0.0888750
  C        1.2035130    -0.7636300    -0.1050350
  O        0.0215740     1.1796465    -0.0929635
  H        0.0073480     0.0821120     1.4707400
  H       -1.4374710    -1.5773920     0.3081530
  H        1.2062590    -0.8068070    -1.1976420
  H        2.1383400    -0.2964470     0.2238190
  H        1.1818030    -1.7838790     0.2901510
  H        0.8552790     1.7789920     0.1244760
  H       -1.3353960    -0.6091480    -1.1813770
  H       -2.1493090     0.0516170     0.2489950
units angstrom
no_reorient  #important for SAPT in psi4, default
symmetry c1  #important for SAPT in psi4, default
}

set PROPERTIES_ORIGIN ["COM"]
properties('MP2/aug-cc-pvtz', properties = ['dipole'])
--------------------------------------------------------------------------

    Molecular point group: c1
  Charge       = 0
  Multiplicity = 1
  Basis Set: AUG-CC-PVTZ
    Blend: AUG-CC-PVTZ
  Basis Set: (AUG-CC-PVTZ AUX)
    Blend: AUG-CC-PVTZ-JKFIT

    Orbital Energies [Eh]
    ---------------------

    Doubly Occupied:

       1A    -20.557703     2A    -11.260208     3A    -11.204980
       4A    -11.201627     5A     -1.429366     6A     -1.023739
       7A     -0.936324     8A     -0.813283     9A     -0.720895
      10A     -0.648987    11A     -0.621237    12A     -0.545312
      13A     -0.536457    14A     -0.528955    15A     -0.510110
      16A     -0.442108    17A     -0.409093

  @DF-RHF Final Energy:  -193.15777984983345

   => Energetics <=

    Nuclear Repulsion Energy =            139.4901060131555539
    One-Electron Energy =                -538.5150021326745673
    Two-Electron Energy =                 205.8671162696855390
    Total Energy =                       -193.1577798498334460
  Basis Set: (AUG-CC-PVTZ AUX)
    Blend: AUG-CC-PVTZ-RI
    Molecular point group: c1

    Geometry (in Angstrom), charge = 0, multiplicity = 1:

       Center              X                  Y                   Z               Mass
    ------------   -----------------  -----------------  -----------------  -----------------
         C            0.007806068485     0.033696588158     0.354806561639    12.000000000000
         C           -1.305377931515    -0.568711411842    -0.104135438361    12.000000000000
         C            1.212197068485    -0.766373411842    -0.120295438361    12.000000000000
         O            0.030258068485     1.176903088158    -0.108223938361    15.994914619570
         H            0.016032068485     0.079368588158     1.455479561639     1.007825032230
         H           -1.428786931515    -1.580135411842     0.292892561639     1.007825032230
         H            1.214943068485    -0.809550411842    -1.212902438361     1.007825032230
         H            2.147024068485    -0.299190411842     0.208558561639     1.007825032230
         H            1.190487068485    -1.786622411842     0.274890561639     1.007825032230
         H            0.863963068485     1.776248588158     0.109215561639     1.007825032230
         H           -1.326711931515    -0.611891411842    -1.196637438361     1.007825032230
         H           -2.140624931515     0.048873588158     0.233734561639     1.007825032230

  Basis Set: AUG-CC-PVTZ
    Blend: AUG-CC-PVTZ
  Basis Set: (AUG-CC-PVTZ AUX)
    Blend: AUG-CC-PVTZ-JKFIT
	 Reference Energy          =    -193.1577798498334460 [Eh]
	 Singles Energy            =      -0.0000000000000000 [Eh]
	 Same-Spin Energy          =      -0.1930244479793344 [Eh]
	 Opposite-Spin Energy      =      -0.6720434521507335 [Eh]
	 Correlation Energy        =      -0.8650679001300678 [Eh]
	 Total Energy              =    -194.0228477499635176 [Eh]

	 ================> DF-SCS-MP2 Energies <==================
	-----------------------------------------------------------
	 SCS Same-Spin Scale       =       0.3333333333333333 [-]
	 SCS Opposite-Spin Scale   =       1.2000000000000000 [-]
	 SCS Same-Spin Energy      =      -0.0643414826597781 [Eh]
	 SCS Opposite-Spin Energy  =      -0.8064521425808802 [Eh]
	 SCS Correlation Energy    =      -0.8707936252406583 [Eh]
	 SCS Total Energy          =    -194.0285734750740971 [Eh]
	-----------------------------------------------------------

  Dipole Moment: [D]
     X:     1.1184      Y:     0.1417      Z:     0.6239     Total:     1.2885

*** Psi4 exiting successfully. Buy a developer a beer!
