                               Psi4 1.3.2 release

  ==> Input File <==

--------------------------------------------------------------------------
#psi4
#
memory 32 gb

molecule  {
0 1
  C       -0.0008780     0.0364400     0.3700670
  C       -1.3197986    -0.5433632    -0.1013690
  C        1.2035130    -0.7636300    -0.1050350
  O        0.0252140     1.3649880    -0.1680320
  H        0.0073480     0.0821120     1.4707400
  H       -1.4374710    -1.5773920     0.3081530
  H        1.2062590    -0.8068070    -1.1976420
  H        2.1383400    -0.2964470     0.2238190
  H        1.1818030    -1.7838790     0.2901510
  H        0.8552790     1.7789920     0.1244760
  H       -1.3353960    -0.6091480    -1.1813770
  H       -2.1493090     0.0516170     0.2489950
units angstrom
no_reorient  #important for SAPT in psi4, default
symmetry c1  #important for SAPT in psi4, default
}

set PROPERTIES_ORIGIN ["COM"]
properties('MP2/aug-cc-pvtz', properties = ['dipole'])
--------------------------------------------------------------------------

    Molecular point group: c1
  Charge       = 0
  Multiplicity = 1
  Basis Set: AUG-CC-PVTZ
    Blend: AUG-CC-PVTZ
  Basis Set: (AUG-CC-PVTZ AUX)
    Blend: AUG-CC-PVTZ-JKFIT

    Orbital Energies [Eh]
    ---------------------

    Doubly Occupied:

       1A    -20.553495     2A    -11.279592     3A    -11.218112
       4A    -11.210339     5A     -1.353327     6A     -1.041911
       7A     -0.939234     8A     -0.796324     9A     -0.693031
      10A     -0.627881    11A     -0.604372    12A     -0.547226
      13A     -0.532703    14A     -0.520027    15A     -0.512254
      16A     -0.474215    17A     -0.437872

  @DF-RHF Final Energy:  -193.19587214521516

   => Energetics <=

    Nuclear Repulsion Energy =            134.8907955310152147
    One-Electron Energy =                -529.4895044314292818
    Two-Electron Energy =                 201.4028367551989049
    Total Energy =                       -193.1958721452151622
  Basis Set: (AUG-CC-PVTZ AUX)
    Blend: AUG-CC-PVTZ-RI
    Molecular point group: c1

    Geometry (in Angstrom), charge = 0, multiplicity = 1:

       Center              X                  Y                   Z               Mass
    ------------   -----------------  -----------------  -----------------  -----------------
         C            0.007982860861    -0.020181416527     0.377295708099    12.000000000000
         C           -1.310937739139    -0.599984616527    -0.094140291901    12.000000000000
         C            1.212373860861    -0.820251416527    -0.097806291901    12.000000000000
         O            0.034074860861     1.308366583473    -0.160803291901    15.994914619570
         H            0.016208860861     0.025490583473     1.477968708099     1.007825032230
         H           -1.428610139139    -1.634013416527     0.315381708099     1.007825032230
         H            1.215119860861    -0.863428416527    -1.190413291901     1.007825032230
         H            2.147200860861    -0.353068416527     0.231047708099     1.007825032230
         H            1.190663860861    -1.840500416527     0.297379708099     1.007825032230
         H            0.864139860861     1.722370583473     0.131704708099     1.007825032230
         H           -1.326535139139    -0.665769416527    -1.174148291901     1.007825032230
         H           -2.140448139139    -0.005004416527     0.256223708099     1.007825032230

  Basis Set: AUG-CC-PVTZ
    Blend: AUG-CC-PVTZ
  Basis Set: (AUG-CC-PVTZ AUX)
    Blend: AUG-CC-PVTZ-JKFIT
	 Reference Energy          =    -193.1958721452151622 [Eh]
	 Singles Energy            =      -0.0000000000000000 [Eh]
	 Same-Spin Energy          =      -0.1916994747286232 [Eh]
	 Opposite-Spin Energy      =      -0.6729302441406289 [Eh]
	 Correlation Energy        =      -0.8646297188692520 [Eh]
	 Total Energy              =    -194.0605018640844150 [Eh]

	 ================> DF-SCS-MP2 Energies <==================
	-----------------------------------------------------------
	 SCS Same-Spin Scale       =       0.3333333333333333 [-]
	 SCS Opposite-Spin Scale   =       1.2000000000000000 [-]
	 SCS Same-Spin Energy      =      -0.0638998249095410 [Eh]
	 SCS Opposite-Spin Energy  =      -0.8075162929687546 [Eh]
	 SCS Correlation Energy    =      -0.8714161178782956 [Eh]
	 SCS Total Energy          =    -194.0672882630934453 [Eh]
	-----------------------------------------------------------

  Dipole Moment: [D]
     X:     1.1166      Y:    -0.8182      Z:     0.9172     Total:     1.6606

*** Psi4 exiting successfully. Buy a developer a beer!
