                               Psi4 1.4a3.dev225

  ==> Input File <==

--------------------------------------------------------------------------
#psi4
#
memory 32 gb

molecule  {
0 1
  C       -0.0009430     0.0362800     0.3701830
  C       -1.3145230    -0.5650620    -0.0890380
  C        1.2029820    -0.7643180    -0.1050550
  O        0.0251975     1.3187415    -0.1489533
  H        0.0074080     0.0820460     1.4708190
  H       -1.4389570    -1.5762170     0.3085700
  H        1.2054580    -0.8075300    -1.1976690
  H        2.1382080    -0.2978140     0.2236980
  H        1.1805850    -1.7845380     0.2901560
  H        0.8578980     1.7773510     0.1225920
  H       -1.3355770    -0.6086870    -1.1814120
  H       -2.1492510     0.0533470     0.2483910
units angstrom
no_reorient  #important for SAPT in psi4, default
symmetry c1  #important for SAPT in psi4, default
}

set PROPERTIES_ORIGIN ["COM"]
properties('MP2/aug-cc-pvtz', properties = ['dipole'])
--------------------------------------------------------------------------

    Molecular point group: c1
  Charge       = 0
  Multiplicity = 1
  Basis Set: AUG-CC-PVTZ
    Blend: AUG-CC-PVTZ
  Basis Set: (AUG-CC-PVTZ AUX)
    Blend: AUG-CC-PVTZ-JKFIT

    Orbital Energies [Eh]
    ---------------------

    Doubly Occupied:

       1A    -20.555164     2A    -11.274541     3A    -11.214828
       4A    -11.208163     5A     -1.368055     6A     -1.038181
       7A     -0.937689     8A     -0.799415     9A     -0.700342
      10A     -0.629948    11A     -0.606643    12A     -0.543495
      13A     -0.532984    14A     -0.531166    15A     -0.510996
      16A     -0.466706    17A     -0.431550

  @DF-RHF Final Energy:  -193.19548351544722

   => Energetics <=

    Nuclear Repulsion Energy =            135.9230885721350433
    One-Electron Energy =                -531.5374099212176588
    Two-Electron Energy =                 202.4188378336353935
    Total Energy =                       -193.1954835154472221
  Basis Set: (AUG-CC-PVTZ AUX)
    Blend: AUG-CC-PVTZ-RI
    Molecular point group: c1

    Geometry (in Angstrom), charge = 0, multiplicity = 1:

       Center              X                  Y                   Z               Mass
    ------------   -----------------  -----------------  -----------------  -----------------
         C            0.007005371806    -0.003501409905     0.369883937459    12.000000000000
         C           -1.306574628194    -0.604843409905    -0.089337062541    12.000000000000
         C            1.210930371806    -0.804099409905    -0.105354062541    12.000000000000
         O            0.033145871806     1.278960090095    -0.149252362541    15.994914619570
         H            0.015356371806     0.042264590095     1.470519937459     1.007825032230
         H           -1.431008628194    -1.615998409905     0.308270937459     1.007825032230
         H            1.213406371806    -0.847311409905    -1.197968062541     1.007825032230
         H            2.146156371806    -0.337595409905     0.223398937459     1.007825032230
         H            1.188533371806    -1.824319409905     0.289856937459     1.007825032230
         H            0.865846371806     1.737569590095     0.122292937459     1.007825032230
         H           -1.327628628194    -0.648468409905    -1.181711062541     1.007825032230
         H           -2.141302628194     0.013565590095     0.248091937459     1.007825032230

  Basis Set: AUG-CC-PVTZ
    Blend: AUG-CC-PVTZ
  Basis Set: (AUG-CC-PVTZ AUX)
    Blend: AUG-CC-PVTZ-JKFIT
	 Reference Energy          =    -193.1954835154472221 [Eh]
	 Singles Energy            =      -0.0000000000000000 [Eh]
	 Same-Spin Energy          =      -0.1918135998838741 [Eh]
	 Opposite-Spin Energy      =      -0.6722803060625812 [Eh]
	 Correlation Energy        =      -0.8640939059464553 [Eh]
	 Total Energy              =    -194.0595774213936693 [Eh]

	 ================> DF-SCS-MP2 Energies <==================
	-----------------------------------------------------------
	 SCS Same-Spin Scale       =       0.3333333333333333 [-]
	 SCS Opposite-Spin Scale   =       1.2000000000000000 [-]
	 SCS Same-Spin Energy      =      -0.0639378666279580 [Eh]
	 SCS Opposite-Spin Energy  =      -0.8067363672750973 [Eh]
	 SCS Correlation Energy    =      -0.8706742339030554 [Eh]
	 SCS Total Energy          =    -194.0661577493502818 [Eh]
	-----------------------------------------------------------

  Dipole Moment: [D]
     X:     1.1227      Y:    -0.5981      Z:     0.8543     Total:     1.5324

*** Psi4 exiting successfully. Buy a developer a beer!
