                               Psi4 1.3.2 release

  ==> Input File <==

--------------------------------------------------------------------------
#psi4
#
memory 32 gb

molecule  {
0 1
  C       -0.0008780     0.0364400     0.3700670
  C       -1.3140620    -0.5659680    -0.0888750
  C        1.2035130    -0.7636300    -0.1050350
  O        0.0248489     1.3554000    -0.1911403
  H        0.0073480     0.0821120     1.4707400
  H       -1.4374710    -1.5773920     0.3081530
  H        1.2062590    -0.8068070    -1.1976420
  H        2.1383400    -0.2964470     0.2238190
  H        1.1818030    -1.7838790     0.2901510
  H        0.8552790     1.7789920     0.1244760
  H       -1.3353960    -0.6091480    -1.1813770
  H       -2.1493090     0.0516170     0.2489950
units angstrom
no_reorient  #important for SAPT in psi4, default
symmetry c1  #important for SAPT in psi4, default
}

set PROPERTIES_ORIGIN ["COM"]
properties('MP2/aug-cc-pvtz', properties = ['dipole'])
--------------------------------------------------------------------------

    Molecular point group: c1
  Charge       = 0
  Multiplicity = 1
  Basis Set: AUG-CC-PVTZ
    Blend: AUG-CC-PVTZ
  Basis Set: (AUG-CC-PVTZ AUX)
    Blend: AUG-CC-PVTZ-JKFIT

    Orbital Energies [Eh]
    ---------------------

    Doubly Occupied:

       1A    -20.555608     2A    -11.279513     3A    -11.217325
       4A    -11.210035     5A     -1.351697     6A     -1.041577
       7A     -0.938417     8A     -0.795018     9A     -0.692923
      10A     -0.625242    11A     -0.603825    12A     -0.545654
      13A     -0.533601    14A     -0.525262    15A     -0.509604
      16A     -0.472667    17A     -0.437792

  @DF-RHF Final Energy:  -193.19551032610457

   => Energetics <=

    Nuclear Repulsion Energy =            134.8772958296586637
    One-Electron Energy =                -529.4740876861563947
    Two-Electron Energy =                 201.4012815303931347
    Total Energy =                       -193.1955103261045679
  Basis Set: (AUG-CC-PVTZ AUX)
    Blend: AUG-CC-PVTZ-RI
    Molecular point group: c1

    Geometry (in Angstrom), charge = 0, multiplicity = 1:

       Center              X                  Y                   Z               Mass
    ------------   -----------------  -----------------  -----------------  -----------------
         C            0.006933875455    -0.013111246504     0.380953656417    12.000000000000
         C           -1.306250124545    -0.615519246504    -0.077988343583    12.000000000000
         C            1.211324875455    -0.813181246504    -0.094148343583    12.000000000000
         O            0.032660775455     1.305848753496    -0.180253643583    15.994914619570
         H            0.015159875455     0.032560753496     1.481626656417     1.007825032230
         H           -1.429659124545    -1.626943246504     0.319039656417     1.007825032230
         H            1.214070875455    -0.856358246504    -1.186755343583     1.007825032230
         H            2.146151875455    -0.345998246504     0.234705656417     1.007825032230
         H            1.189614875455    -1.833430246504     0.301037656417     1.007825032230
         H            0.863090875455     1.729440753496     0.135362656417     1.007825032230
         H           -1.327584124545    -0.658699246504    -1.170490343583     1.007825032230
         H           -2.141497124545     0.002065753496     0.259881656417     1.007825032230

  Basis Set: AUG-CC-PVTZ
    Blend: AUG-CC-PVTZ
  Basis Set: (AUG-CC-PVTZ AUX)
    Blend: AUG-CC-PVTZ-JKFIT
	 Reference Energy          =    -193.1955103261045679 [Eh]
	 Singles Energy            =      -0.0000000000000000 [Eh]
	 Same-Spin Energy          =      -0.1918844553796841 [Eh]
	 Opposite-Spin Energy      =      -0.6733559526536602 [Eh]
	 Correlation Energy        =      -0.8652404080333442 [Eh]
	 Total Energy              =    -194.0607507341379119 [Eh]

	 ================> DF-SCS-MP2 Energies <==================
	-----------------------------------------------------------
	 SCS Same-Spin Scale       =       0.3333333333333333 [-]
	 SCS Opposite-Spin Scale   =       1.2000000000000000 [-]
	 SCS Same-Spin Energy      =      -0.0639614851265614 [Eh]
	 SCS Opposite-Spin Energy  =      -0.8080271431843923 [Eh]
	 SCS Correlation Energy    =      -0.8719886283109537 [Eh]
	 SCS Total Energy          =    -194.0674989544155267 [Eh]
	-----------------------------------------------------------

  Dipole Moment: [D]
     X:     1.1019      Y:    -0.7945      Z:     0.9693     Total:     1.6688

*** Psi4 exiting successfully. Buy a developer a beer!
