                               Psi4 1.3.2 release

  ==> Input File <==

--------------------------------------------------------------------------
#psi4
#
memory 32 gb

molecule  {
0 1
  C       -0.0008780     0.0364400     0.3700670
  C       -1.3140620    -0.5659680    -0.0888750
  C        1.2035130    -0.7636300    -0.1050350
  O        0.0233940     1.2723172    -0.1304978
  H        0.0073480     0.0821120     1.4707400
  H       -1.4374710    -1.5773920     0.3081530
  H        1.2062590    -0.8068070    -1.1976420
  H        2.1383400    -0.2964470     0.2238190
  H        1.1818030    -1.7838790     0.2901510
  H        0.8552790     1.7789920     0.1244760
  H       -1.3353960    -0.6091480    -1.1813770
  H       -2.1493090     0.0516170     0.2489950
units angstrom
no_reorient  #important for SAPT in psi4, default
symmetry c1  #important for SAPT in psi4, default
}

set PROPERTIES_ORIGIN ["COM"]
properties('MP2/aug-cc-pvtz', properties = ['dipole'])
--------------------------------------------------------------------------

    Molecular point group: c1
  Charge       = 0
  Multiplicity = 1
  Basis Set: AUG-CC-PVTZ
    Blend: AUG-CC-PVTZ
  Basis Set: (AUG-CC-PVTZ AUX)
    Blend: AUG-CC-PVTZ-JKFIT

    Orbital Energies [Eh]
    ---------------------

    Doubly Occupied:

       1A    -20.556157     2A    -11.269548     3A    -11.211661
       4A    -11.205953     5A     -1.385443     6A     -1.033611
       7A     -0.936883     8A     -0.803334     9A     -0.707203
      10A     -0.634654    11A     -0.610336    12A     -0.541574
      13A     -0.537104    14A     -0.530564    15A     -0.511193
      16A     -0.459530    17A     -0.424892

  @DF-RHF Final Energy:  -193.18952573731013

   => Energetics <=

    Nuclear Repulsion Energy =            137.0519059808307816
    One-Electron Energy =                -533.7635795752720469
    Two-Electron Energy =                 203.5221478571311309
    Total Energy =                       -193.1895257373101344
  Basis Set: (AUG-CC-PVTZ AUX)
    Blend: AUG-CC-PVTZ-RI
    Molecular point group: c1

    Geometry (in Angstrom), charge = 0, multiplicity = 1:

       Center              X                  Y                   Z               Mass
    ------------   -----------------  -----------------  -----------------  -----------------
         C            0.007321354046     0.009015914353     0.364802944690    12.000000000000
         C           -1.305862645954    -0.593392085647    -0.094139055310    12.000000000000
         C            1.211712354046    -0.791054085647    -0.110299055310    12.000000000000
         O            0.031593354046     1.244893114353    -0.135761855310    15.994914619570
         H            0.015547354046     0.054687914353     1.465475944690     1.007825032230
         H           -1.429271645954    -1.604816085647     0.302888944690     1.007825032230
         H            1.214458354046    -0.834231085647    -1.202906055310     1.007825032230
         H            2.146539354046    -0.323871085647     0.218554944690     1.007825032230
         H            1.190002354046    -1.811303085647     0.284886944690     1.007825032230
         H            0.863478354046     1.751567914353     0.119211944690     1.007825032230
         H           -1.327196645954    -0.636572085647    -1.186641055310     1.007825032230
         H           -2.141109645954     0.024192914353     0.243730944690     1.007825032230

  Basis Set: AUG-CC-PVTZ
    Blend: AUG-CC-PVTZ
  Basis Set: (AUG-CC-PVTZ AUX)
    Blend: AUG-CC-PVTZ-JKFIT
	 Reference Energy          =    -193.1895257373101344 [Eh]
	 Singles Energy            =      -0.0000000000000000 [Eh]
	 Same-Spin Energy          =      -0.1920667200937418 [Eh]
	 Opposite-Spin Energy      =      -0.6719234009855305 [Eh]
	 Correlation Energy        =      -0.8639901210792722 [Eh]
	 Total Energy              =    -194.0535158583894031 [Eh]

	 ================> DF-SCS-MP2 Energies <==================
	-----------------------------------------------------------
	 SCS Same-Spin Scale       =       0.3333333333333333 [-]
	 SCS Opposite-Spin Scale   =       1.2000000000000000 [-]
	 SCS Same-Spin Energy      =      -0.0640222400312472 [Eh]
	 SCS Opposite-Spin Energy  =      -0.8063080811826365 [Eh]
	 SCS Correlation Energy    =      -0.8703303212138838 [Eh]
	 SCS Total Energy          =    -194.0598560585240193 [Eh]
	-----------------------------------------------------------

  Dipole Moment: [D]
     X:     1.1262      Y:    -0.3554      Z:     0.7870     Total:     1.4192

*** Psi4 exiting successfully. Buy a developer a beer!
