                               Psi4 1.3.2 release

  ==> Input File <==

--------------------------------------------------------------------------
#psi4
#
memory 32 gb

molecule  {
0 1
  C       -0.0452982     0.0293725     0.3481369
  C       -1.3140620    -0.5659680    -0.0888750
  C        1.2035130    -0.7636300    -0.1050350
  O        0.0252140     1.3649880    -0.1680320
  H        0.0073480     0.0821120     1.4707400
  H       -1.4374710    -1.5773920     0.3081530
  H        1.2062590    -0.8068070    -1.1976420
  H        2.1383400    -0.2964470     0.2238190
  H        1.1818030    -1.7838790     0.2901510
  H        0.8552790     1.7789920     0.1244760
  H       -1.3353960    -0.6091480    -1.1813770
  H       -2.1493090     0.0516170     0.2489950
units angstrom
no_reorient  #important for SAPT in psi4, default
symmetry c1  #important for SAPT in psi4, default
}

set PROPERTIES_ORIGIN ["COM"]
properties('MP2/aug-cc-pvtz', properties = ['dipole'])
--------------------------------------------------------------------------

    Molecular point group: c1
  Charge       = 0
  Multiplicity = 1
  Basis Set: AUG-CC-PVTZ
    Blend: AUG-CC-PVTZ
  Basis Set: (AUG-CC-PVTZ AUX)
    Blend: AUG-CC-PVTZ-JKFIT

    Orbital Energies [Eh]
    ---------------------

    Doubly Occupied:

       1A    -20.552595     2A    -11.281225     3A    -11.217962
       4A    -11.210043     5A     -1.352091     6A     -1.047018
       7A     -0.940887     8A     -0.793903     9A     -0.693092
      10A     -0.627359    11A     -0.603987    12A     -0.546184
      13A     -0.536071    14A     -0.527904    15A     -0.509652
      16A     -0.479311    17A     -0.427744

  @DF-RHF Final Energy:  -193.19397422167438

   => Energetics <=

    Nuclear Repulsion Energy =            135.0197416870132088
    One-Electron Energy =                -529.7333733107647049
    Two-Electron Energy =                 201.5196574020771152
    Total Energy =                       -193.1939742216743809
  Basis Set: (AUG-CC-PVTZ AUX)
    Blend: AUG-CC-PVTZ-RI
    Molecular point group: c1

    Geometry (in Angstrom), charge = 0, multiplicity = 1:

       Center              X                  Y                   Z               Mass
    ------------   -----------------  -----------------  -----------------  -----------------
         C           -0.028708028311    -0.021320139742     0.357251020778    12.000000000000
         C           -1.297471828311    -0.616660639742    -0.079760879222    12.000000000000
         C            1.220103171689    -0.814322639742    -0.095920879222    12.000000000000
         O            0.041804171689     1.314295360258    -0.158917879222    15.994914619570
         H            0.023938171689     0.031419360258     1.479854120778     1.007825032230
         H           -1.420880828311    -1.628084639742     0.317267120778     1.007825032230
         H            1.222849171689    -0.857499639742    -1.188527879222     1.007825032230
         H            2.154930171689    -0.347139639742     0.232933120778     1.007825032230
         H            1.198393171689    -1.834571639742     0.299265120778     1.007825032230
         H            0.871869171689     1.728299360258     0.133590120778     1.007825032230
         H           -1.318805828311    -0.659840639742    -1.172262879222     1.007825032230
         H           -2.132718828311     0.000924360258     0.258109120778     1.007825032230

  Basis Set: AUG-CC-PVTZ
    Blend: AUG-CC-PVTZ
  Basis Set: (AUG-CC-PVTZ AUX)
    Blend: AUG-CC-PVTZ-JKFIT
	 Reference Energy          =    -193.1939742216743809 [Eh]
	 Singles Energy            =      -0.0000000000000000 [Eh]
	 Same-Spin Energy          =      -0.1918321801385594 [Eh]
	 Opposite-Spin Energy      =      -0.6729392500078561 [Eh]
	 Correlation Energy        =      -0.8647714301464156 [Eh]
	 Total Energy              =    -194.0587456518208000 [Eh]

	 ================> DF-SCS-MP2 Energies <==================
	-----------------------------------------------------------
	 SCS Same-Spin Scale       =       0.3333333333333333 [-]
	 SCS Opposite-Spin Scale   =       1.2000000000000000 [-]
	 SCS Same-Spin Energy      =      -0.0639440600461865 [Eh]
	 SCS Opposite-Spin Energy  =      -0.8075271000094274 [Eh]
	 SCS Correlation Energy    =      -0.8714711600556139 [Eh]
	 SCS Total Energy          =    -194.0654453817300009 [Eh]
	-----------------------------------------------------------

  Dipole Moment: [D]
     X:     1.0256      Y:    -0.8471      Z:     0.8989     Total:     1.6055

*** Psi4 exiting successfully. Buy a developer a beer!
