                               Psi4 1.3.2 release

  ==> Input File <==

--------------------------------------------------------------------------
#psi4
#
memory 32 gb

molecule  {
0 1
  C       -0.0008780     0.0364400     0.3700670
  C       -1.3140620    -0.5659680    -0.0888750
  C        1.2035130    -0.7636300    -0.1050350
  O        0.0288540     1.5503295    -0.2431005
  H        0.0073480     0.0821120     1.4707400
  H       -1.4374710    -1.5773920     0.3081530
  H        1.2062590    -0.8068070    -1.1976420
  H        2.1383400    -0.2964470     0.2238190
  H        1.1818030    -1.7838790     0.2901510
  H        0.8552790     1.7789920     0.1244760
  H       -1.3353960    -0.6091480    -1.1813770
  H       -2.1493090     0.0516170     0.2489950
units angstrom
no_reorient  #important for SAPT in psi4, default
symmetry c1  #important for SAPT in psi4, default
}

set PROPERTIES_ORIGIN ["COM"]
properties('MP2/aug-cc-pvtz', properties = ['dipole'])
--------------------------------------------------------------------------

    Molecular point group: c1
  Charge       = 0
  Multiplicity = 1
  Basis Set: AUG-CC-PVTZ
    Blend: AUG-CC-PVTZ
  Basis Set: (AUG-CC-PVTZ AUX)
    Blend: AUG-CC-PVTZ-JKFIT

    Orbital Energies [Eh]
    ---------------------

    Doubly Occupied:

       1A    -20.548272     2A    -11.300006     3A    -11.229097
       4A    -11.219158     5A     -1.310851     6A     -1.057194
       7A     -0.944345     8A     -0.792633     9A     -0.664635
      10A     -0.621143    11A     -0.601924    12A     -0.556096
      13A     -0.542411    14A     -0.509731    15A     -0.493817
      16A     -0.485636    17A     -0.452551

  @DF-RHF Final Energy:  -193.17224083229499

   => Energetics <=

    Nuclear Repulsion Energy =            130.9477917682074803
    One-Electron Energy =                -521.5810648673606238
    Two-Electron Energy =                 197.4610322668581546
    Total Energy =                       -193.1722408322949889
  Basis Set: (AUG-CC-PVTZ AUX)
    Blend: AUG-CC-PVTZ-RI
    Molecular point group: c1

    Geometry (in Angstrom), charge = 0, multiplicity = 1:

       Center              X                  Y                   Z               Mass
    ------------   -----------------  -----------------  -----------------  -----------------
         C            0.005867210730    -0.065026160328     0.394792040578    12.000000000000
         C           -1.307316789270    -0.667434160328    -0.064149959422    12.000000000000
         C            1.210258210730    -0.865096160328    -0.080309959422    12.000000000000
         O            0.035599210730     1.448863339672    -0.218375459422    15.994914619570
         H            0.014093210730    -0.019354160328     1.495465040578     1.007825032230
         H           -1.430725789270    -1.678858160328     0.332878040578     1.007825032230
         H            1.213004210730    -0.908273160328    -1.172916959422     1.007825032230
         H            2.145085210730    -0.397913160328     0.248544040578     1.007825032230
         H            1.188548210730    -1.885345160328     0.314876040578     1.007825032230
         H            0.862024210730     1.677525839672     0.149201040578     1.007825032230
         H           -1.328650789270    -0.710614160328    -1.156651959422     1.007825032230
         H           -2.142563789270    -0.049849160328     0.273720040578     1.007825032230

  Basis Set: AUG-CC-PVTZ
    Blend: AUG-CC-PVTZ
  Basis Set: (AUG-CC-PVTZ AUX)
    Blend: AUG-CC-PVTZ-JKFIT
	 Reference Energy          =    -193.1722408322949889 [Eh]
	 Singles Energy            =      -0.0000000000000000 [Eh]
	 Same-Spin Energy          =      -0.1922442772294647 [Eh]
	 Opposite-Spin Energy      =      -0.6774222766324444 [Eh]
	 Correlation Energy        =      -0.8696665538619091 [Eh]
	 Total Energy              =    -194.0419073861569075 [Eh]

	 ================> DF-SCS-MP2 Energies <==================
	-----------------------------------------------------------
	 SCS Same-Spin Scale       =       0.3333333333333333 [-]
	 SCS Opposite-Spin Scale   =       1.2000000000000000 [-]
	 SCS Same-Spin Energy      =      -0.0640814257431549 [Eh]
	 SCS Opposite-Spin Energy  =      -0.8129067319589333 [Eh]
	 SCS Correlation Energy    =      -0.8769881577020882 [Eh]
	 SCS Total Energy          =    -194.0492289899970899 [Eh]
	-----------------------------------------------------------

  Dipole Moment: [D]
     X:     1.0599      Y:    -1.6834      Z:     1.1429     Total:     2.2942

*** Psi4 exiting successfully. Buy a developer a beer!
