                               Psi4 1.3.2 release

  ==> Input File <==

--------------------------------------------------------------------------
#psi4
#
memory 32 gb

molecule  {
0 1
  C       -0.0008780     0.0364400     0.3700670
  C       -1.3140620    -0.5659680    -0.0888750
  C        1.2035130    -0.7636300    -0.1050350
  O        0.0252140     1.3649880    -0.1680320
  H        0.0073480     0.0821120     1.4707400
  H       -1.4374710    -1.5773920     0.3081530
  H        1.2062590    -0.8068070    -1.1976420
  H        2.1383400    -0.2964470     0.2238190
  H        1.1818030    -1.7838790     0.2901510
  H        0.7699348     1.7364257     0.0944014
  H       -1.3353960    -0.6091480    -1.1813770
  H       -2.1493090     0.0516170     0.2489950
units angstrom
no_reorient  #important for SAPT in psi4, default
symmetry c1  #important for SAPT in psi4, default
}

set PROPERTIES_ORIGIN ["COM"]
properties('MP2/aug-cc-pvtz', properties = ['dipole'])
--------------------------------------------------------------------------

    Molecular point group: c1
  Charge       = 0
  Multiplicity = 1
  Basis Set: AUG-CC-PVTZ
    Blend: AUG-CC-PVTZ
  Basis Set: (AUG-CC-PVTZ AUX)
    Blend: AUG-CC-PVTZ-JKFIT

    Orbital Energies [Eh]
    ---------------------

    Doubly Occupied:

       1A    -20.543784     2A    -11.280659     3A    -11.218501
       4A    -11.210634     5A     -1.378948     6A     -1.048238
       7A     -0.939473     8A     -0.804391     9A     -0.709544
      10A     -0.629887    11A     -0.605427    12A     -0.548406
      13A     -0.535777    14A     -0.528171    15A     -0.511618
      16A     -0.475575    17A     -0.439778

  @DF-RHF Final Energy:  -193.19167772507632

   => Energetics <=

    Nuclear Repulsion Energy =            135.4704436051386836
    One-Electron Energy =                -530.5066223990169192
    Two-Electron Energy =                 201.8445010688018897
    Total Energy =                       -193.1916777250763175
  Basis Set: (AUG-CC-PVTZ AUX)
    Blend: AUG-CC-PVTZ-RI
    Molecular point group: c1

    Geometry (in Angstrom), charge = 0, multiplicity = 1:

       Center              X                  Y                   Z               Mass
    ------------   -----------------  -----------------  -----------------  -----------------
         C            0.008268800450    -0.014950481093     0.375303982908    12.000000000000
         C           -1.304915199550    -0.617358481093    -0.083638017092    12.000000000000
         C            1.212659800450    -0.815020481093    -0.099798017092    12.000000000000
         O            0.034360800450     1.313597518907    -0.162795017092    15.994914619570
         H            0.016494800450     0.030721518907     1.475976982908     1.007825032230
         H           -1.428324199550    -1.628782481093     0.313389982908     1.007825032230
         H            1.215405800450    -0.858197481093    -1.192405017092     1.007825032230
         H            2.147486800450    -0.347837481093     0.229055982908     1.007825032230
         H            1.190949800450    -1.835269481093     0.295387982908     1.007825032230
         H            0.779081600450     1.685035218907     0.099638382908     1.007825032230
         H           -1.326249199550    -0.660538481093    -1.176140017092     1.007825032230
         H           -2.140162199550     0.000226518907     0.254231982908     1.007825032230

  Basis Set: AUG-CC-PVTZ
    Blend: AUG-CC-PVTZ
  Basis Set: (AUG-CC-PVTZ AUX)
    Blend: AUG-CC-PVTZ-JKFIT
	 Reference Energy          =    -193.1916777250763175 [Eh]
	 Singles Energy            =      -0.0000000000000000 [Eh]
	 Same-Spin Energy          =      -0.1904973177267961 [Eh]
	 Opposite-Spin Energy      =      -0.6699053821166228 [Eh]
	 Correlation Energy        =      -0.8604026998434189 [Eh]
	 Total Energy              =    -194.0520804249197226 [Eh]

	 ================> DF-SCS-MP2 Energies <==================
	-----------------------------------------------------------
	 SCS Same-Spin Scale       =       0.3333333333333333 [-]
	 SCS Opposite-Spin Scale   =       1.2000000000000000 [-]
	 SCS Same-Spin Energy      =      -0.0634991059089320 [Eh]
	 SCS Opposite-Spin Energy  =      -0.8038864585399473 [Eh]
	 SCS Correlation Energy    =      -0.8673855644488794 [Eh]
	 SCS Total Energy          =    -194.0590632895251986 [Eh]
	-----------------------------------------------------------

  Dipole Moment: [D]
     X:     1.0654      Y:    -0.8763      Z:     0.9096     Total:     1.6524

*** Psi4 exiting successfully. Buy a developer a beer!
