                               Psi4 1.3.2 release

  ==> Input File <==

--------------------------------------------------------------------------
#psi4
#
memory 32 gb

molecule  {
0 1
  C       -0.0008780     0.0364400     0.3700670
  C       -1.3140620    -0.5659680    -0.0888750
  C        1.2035130    -0.7636300    -0.1050350
  O        0.0270340     1.4576588    -0.2055662
  H        0.0073480     0.0821120     1.4707400
  H       -1.4374710    -1.5773920     0.3081530
  H        1.2062590    -0.8068070    -1.1976420
  H        2.1383400    -0.2964470     0.2238190
  H        1.1818030    -1.7838790     0.2901510
  H        0.8552790     1.7789920     0.1244760
  H       -1.3353960    -0.6091480    -1.1813770
  H       -2.1493090     0.0516170     0.2489950
units angstrom
no_reorient  #important for SAPT in psi4, default
symmetry c1  #important for SAPT in psi4, default
}

set PROPERTIES_ORIGIN ["COM"]
properties('MP2/aug-cc-pvtz', properties = ['dipole'])
--------------------------------------------------------------------------

    Molecular point group: c1
  Charge       = 0
  Multiplicity = 1
  Basis Set: AUG-CC-PVTZ
    Blend: AUG-CC-PVTZ
  Basis Set: (AUG-CC-PVTZ AUX)
    Blend: AUG-CC-PVTZ-JKFIT

    Orbital Energies [Eh]
    ---------------------

    Doubly Occupied:

       1A    -20.551394     2A    -11.289836     3A    -11.223559
       4A    -11.214753     5A     -1.329760     6A     -1.050201
       7A     -0.941213     8A     -0.792919     9A     -0.678925
      10A     -0.622653    11A     -0.601623    12A     -0.550877
      13A     -0.537912    14A     -0.515218    15A     -0.503888
      16A     -0.482486    17A     -0.446654

  @DF-RHF Final Energy:  -193.18872576989514

   => Energetics <=

    Nuclear Repulsion Energy =            132.8284550558300339
    One-Electron Energy =                -525.3666183159564298
    Two-Electron Energy =                 199.3494374902312529
    Total Energy =                       -193.1887257698951430
  Basis Set: (AUG-CC-PVTZ AUX)
    Blend: AUG-CC-PVTZ-RI
    Molecular point group: c1

    Geometry (in Angstrom), charge = 0, multiplicity = 1:

       Center              X                  Y                   Z               Mass
    ------------   -----------------  -----------------  -----------------  -----------------
         C            0.006351925169    -0.040345486522     0.384795657527    12.000000000000
         C           -1.306832074831    -0.642753486522    -0.074146342473    12.000000000000
         C            1.210742925169    -0.840415486522    -0.090306342473    12.000000000000
         O            0.034263925169     1.380873313478    -0.190837542473    15.994914619570
         H            0.014577925169     0.005326513478     1.485468657527     1.007825032230
         H           -1.430241074831    -1.654177486522     0.322881657527     1.007825032230
         H            1.213488925169    -0.883592486522    -1.182913342473     1.007825032230
         H            2.145569925169    -0.373232486522     0.238547657527     1.007825032230
         H            1.189032925169    -1.860664486522     0.304879657527     1.007825032230
         H            0.862508925169     1.702206513478     0.139204657527     1.007825032230
         H           -1.328166074831    -0.685933486522    -1.166648342473     1.007825032230
         H           -2.142079074831    -0.025168486522     0.263723657527     1.007825032230

  Basis Set: AUG-CC-PVTZ
    Blend: AUG-CC-PVTZ
  Basis Set: (AUG-CC-PVTZ AUX)
    Blend: AUG-CC-PVTZ-JKFIT
	 Reference Energy          =    -193.1887257698951430 [Eh]
	 Singles Energy            =      -0.0000000000000000 [Eh]
	 Same-Spin Energy          =      -0.1917766284555675 [Eh]
	 Opposite-Spin Energy      =      -0.6747639839123720 [Eh]
	 Correlation Energy        =      -0.8665406123679396 [Eh]
	 Total Energy              =    -194.0552663822630848 [Eh]

	 ================> DF-SCS-MP2 Energies <==================
	-----------------------------------------------------------
	 SCS Same-Spin Scale       =       0.3333333333333333 [-]
	 SCS Opposite-Spin Scale   =       1.2000000000000000 [-]
	 SCS Same-Spin Energy      =      -0.0639255428185225 [Eh]
	 SCS Opposite-Spin Energy  =      -0.8097167806948464 [Eh]
	 SCS Correlation Energy    =      -0.8736423235133689 [Eh]
	 SCS Total Energy          =    -194.0623680934085087 [Eh]
	-----------------------------------------------------------

  Dipole Moment: [D]
     X:     1.0890      Y:    -1.2682      Z:     1.0398     Total:     1.9686

*** Psi4 exiting successfully. Buy a developer a beer!
