                               Psi4 1.3.2 release

  ==> Input File <==

--------------------------------------------------------------------------
#psi4
#
memory 32 gb

molecule  {
0 1
  C       -0.0008780     0.0364400     0.3700670
  C       -1.3140620    -0.5659680    -0.0888750
  C        1.2035130    -0.7636300    -0.1050350
  O        0.0272337     1.4139237    -0.0261898
  H        0.0073480     0.0821120     1.4707400
  H       -1.4374710    -1.5773920     0.3081530
  H        1.2062590    -0.8068070    -1.1976420
  H        2.1383400    -0.2964470     0.2238190
  H        1.1818030    -1.7838790     0.2901510
  H        0.8552790     1.7789920     0.1244760
  H       -1.3353960    -0.6091480    -1.1813770
  H       -2.1493090     0.0516170     0.2489950
units angstrom
no_reorient  #important for SAPT in psi4, default
symmetry c1  #important for SAPT in psi4, default
}

set PROPERTIES_ORIGIN ["COM"]
properties('MP2/aug-cc-pvtz', properties = ['dipole'])
--------------------------------------------------------------------------

    Molecular point group: c1
  Charge       = 0
  Multiplicity = 1
  Basis Set: AUG-CC-PVTZ
    Blend: AUG-CC-PVTZ
  Basis Set: (AUG-CC-PVTZ AUX)
    Blend: AUG-CC-PVTZ-JKFIT

    Orbital Energies [Eh]
    ---------------------

    Doubly Occupied:

       1A    -20.546048     2A    -11.280034     3A    -11.220667
       4A    -11.212171     5A     -1.362774     6A     -1.046830
       7A     -0.940086     8A     -0.805292     9A     -0.693207
      10A     -0.633503    11A     -0.605175    12A     -0.546440
      13A     -0.535702    14A     -0.531614    15A     -0.511963
      16A     -0.473689    17A     -0.432664

  @DF-RHF Final Energy:  -193.19575763721102

   => Energetics <=

    Nuclear Repulsion Energy =            134.6804952262731945
    One-Electron Energy =                -528.9967876707387404
    Two-Electron Energy =                 201.1205348072545291
    Total Energy =                       -193.1957576372110168
  Basis Set: (AUG-CC-PVTZ AUX)
    Blend: AUG-CC-PVTZ-RI
    Molecular point group: c1

    Geometry (in Angstrom), charge = 0, multiplicity = 1:

       Center              X                  Y                   Z               Mass
    ------------   -----------------  -----------------  -----------------  -----------------
         C            0.006298739744    -0.028697665399     0.337022948173    12.000000000000
         C           -1.306885260256    -0.631105665399    -0.121919051827    12.000000000000
         C            1.210689739744    -0.828767665399    -0.138079051827    12.000000000000
         O            0.034410439744     1.348786034601    -0.059233851827    15.994914619570
         H            0.014524739744     0.016974334601     1.437695948173     1.007825032230
         H           -1.430294260256    -1.642529665399     0.275108948173     1.007825032230
         H            1.213435739744    -0.871944665399    -1.230686051827     1.007825032230
         H            2.145516739744    -0.361584665399     0.190774948173     1.007825032230
         H            1.188979739744    -1.849016665399     0.257106948173     1.007825032230
         H            0.862455739744     1.713854334601     0.091431948173     1.007825032230
         H           -1.328219260256    -0.674285665399    -1.214421051827     1.007825032230
         H           -2.142132260256    -0.013520665399     0.215950948173     1.007825032230

  Basis Set: AUG-CC-PVTZ
    Blend: AUG-CC-PVTZ
  Basis Set: (AUG-CC-PVTZ AUX)
    Blend: AUG-CC-PVTZ-JKFIT
	 Reference Energy          =    -193.1957576372110168 [Eh]
	 Singles Energy            =      -0.0000000000000000 [Eh]
	 Same-Spin Energy          =      -0.1908285941237690 [Eh]
	 Opposite-Spin Energy      =      -0.6708574683020383 [Eh]
	 Correlation Energy        =      -0.8616860624258074 [Eh]
	 Total Energy              =    -194.0574436996368206 [Eh]

	 ================> DF-SCS-MP2 Energies <==================
	-----------------------------------------------------------
	 SCS Same-Spin Scale       =       0.3333333333333333 [-]
	 SCS Opposite-Spin Scale   =       1.2000000000000000 [-]
	 SCS Same-Spin Energy      =      -0.0636095313745897 [Eh]
	 SCS Opposite-Spin Energy  =      -0.8050289619624459 [Eh]
	 SCS Correlation Energy    =      -0.8686384933370356 [Eh]
	 SCS Total Energy          =    -194.0643961305480616 [Eh]
	-----------------------------------------------------------

  Dipole Moment: [D]
     X:     1.1719      Y:    -0.9997      Z:     0.6168     Total:     1.6593

*** Psi4 exiting successfully. Buy a developer a beer!
