                               Psi4 1.3.2 release

  ==> Input File <==

--------------------------------------------------------------------------
#psi4
#
memory 32 gb

molecule  {
0 1
  C        0.0213474     0.0405814     0.3807878
  C       -1.3140620    -0.5659680    -0.0888750
  C        1.2035130    -0.7636300    -0.1050350
  O        0.0252140     1.3649880    -0.1680320
  H        0.0073480     0.0821120     1.4707400
  H       -1.4374710    -1.5773920     0.3081530
  H        1.2062590    -0.8068070    -1.1976420
  H        2.1383400    -0.2964470     0.2238190
  H        1.1818030    -1.7838790     0.2901510
  H        0.8552790     1.7789920     0.1244760
  H       -1.3353960    -0.6091480    -1.1813770
  H       -2.1493090     0.0516170     0.2489950
units angstrom
no_reorient  #important for SAPT in psi4, default
symmetry c1  #important for SAPT in psi4, default
}

set PROPERTIES_ORIGIN ["COM"]
properties('MP2/aug-cc-pvtz', properties = ['dipole'])
--------------------------------------------------------------------------

    Molecular point group: c1
  Charge       = 0
  Multiplicity = 1
  Basis Set: AUG-CC-PVTZ
    Blend: AUG-CC-PVTZ
  Basis Set: (AUG-CC-PVTZ AUX)
    Blend: AUG-CC-PVTZ-JKFIT

    Orbital Energies [Eh]
    ---------------------

    Doubly Occupied:

       1A    -20.554904     2A    -11.279056     3A    -11.217776
       4A    -11.210441     5A     -1.354169     6A     -1.041069
       7A     -0.937125     8A     -0.797654     9A     -0.693650
      10A     -0.626533    11A     -0.604034    12A     -0.546665
      13A     -0.533043    14A     -0.525696    15A     -0.510435
      16A     -0.467241    17A     -0.441746

  @DF-RHF Final Energy:  -193.19588686555298

   => Energetics <=

    Nuclear Repulsion Energy =            134.7672333262428026
    One-Electron Energy =                -529.2437683403718438
    Two-Electron Energy =                 201.2806481485760344
    Total Energy =                       -193.1958868655529784
  Basis Set: (AUG-CC-PVTZ AUX)
    Blend: AUG-CC-PVTZ-RI
    Molecular point group: c1

    Geometry (in Angstrom), charge = 0, multiplicity = 1:

       Center              X                  Y                   Z               Mass
    ------------   -----------------  -----------------  -----------------  -----------------
         C            0.024621216498    -0.012350872871     0.383377994492    12.000000000000
         C           -1.310788183502    -0.618900272871    -0.086284805508    12.000000000000
         C            1.206786816498    -0.816562272871    -0.102444805508    12.000000000000
         O            0.028487816498     1.312055727129    -0.165441805508    15.994914619570
         H            0.010621816498     0.029179727129     1.473330194492     1.007825032230
         H           -1.434197183502    -1.630324272871     0.310743194492     1.007825032230
         H            1.209532816498    -0.859739272871    -1.195051805508     1.007825032230
         H            2.141613816498    -0.349379272871     0.226409194492     1.007825032230
         H            1.185076816498    -1.836811272871     0.292741194492     1.007825032230
         H            0.858552816498     1.726059727129     0.127066194492     1.007825032230
         H           -1.332122183502    -0.662080272871    -1.178786805508     1.007825032230
         H           -2.146035183502    -0.001315272871     0.251585194492     1.007825032230

  Basis Set: AUG-CC-PVTZ
    Blend: AUG-CC-PVTZ
  Basis Set: (AUG-CC-PVTZ AUX)
    Blend: AUG-CC-PVTZ-JKFIT
	 Reference Energy          =    -193.1958868655529784 [Eh]
	 Singles Energy            =      -0.0000000000000000 [Eh]
	 Same-Spin Energy          =      -0.1916945781224659 [Eh]
	 Opposite-Spin Energy      =      -0.6729989918853864 [Eh]
	 Correlation Energy        =      -0.8646935700078522 [Eh]
	 Total Energy              =    -194.0605804355608370 [Eh]

	 ================> DF-SCS-MP2 Energies <==================
	-----------------------------------------------------------
	 SCS Same-Spin Scale       =       0.3333333333333333 [-]
	 SCS Opposite-Spin Scale   =       1.2000000000000000 [-]
	 SCS Same-Spin Energy      =      -0.0638981927074886 [Eh]
	 SCS Opposite-Spin Energy  =      -0.8075987902624636 [Eh]
	 SCS Correlation Energy    =      -0.8714969829699523 [Eh]
	 SCS Total Energy          =    -194.0673838485229226 [Eh]
	-----------------------------------------------------------

  Dipole Moment: [D]
     X:     1.1548      Y:    -0.8144      Z:     0.9332     Total:     1.6934

*** Psi4 exiting successfully. Buy a developer a beer!
