                               Psi4 1.3.2 release

  ==> Input File <==

--------------------------------------------------------------------------
#psi4
#
memory 32 gb

molecule  {
0 1
  C       -0.0896325     0.0239322     0.3255780
  C       -1.3140620    -0.5659680    -0.0888750
  C        1.2035130    -0.7636300    -0.1050350
  O        0.0252140     1.3649880    -0.1680320
  H        0.0073480     0.0821120     1.4707400
  H       -1.4374710    -1.5773920     0.3081530
  H        1.2062590    -0.8068070    -1.1976420
  H        2.1383400    -0.2964470     0.2238190
  H        1.1818030    -1.7838790     0.2901510
  H        0.8552790     1.7789920     0.1244760
  H       -1.3353960    -0.6091480    -1.1813770
  H       -2.1493090     0.0516170     0.2489950
units angstrom
no_reorient  #important for SAPT in psi4, default
symmetry c1  #important for SAPT in psi4, default
}

set PROPERTIES_ORIGIN ["COM"]
properties('MP2/aug-cc-pvtz', properties = ['dipole'])
--------------------------------------------------------------------------

    Molecular point group: c1
  Charge       = 0
  Multiplicity = 1
  Basis Set: AUG-CC-PVTZ
    Blend: AUG-CC-PVTZ
  Basis Set: (AUG-CC-PVTZ AUX)
    Blend: AUG-CC-PVTZ-JKFIT

    Orbital Energies [Eh]
    ---------------------

    Doubly Occupied:

       1A    -20.551384     2A    -11.283448     3A    -11.218222
       4A    -11.209577     5A     -1.351035     6A     -1.054273
       7A     -0.941852     8A     -0.791752     9A     -0.692623
      10A     -0.629621    11A     -0.604260    12A     -0.550461
      13A     -0.539034    14A     -0.529565    15A     -0.509439
      16A     -0.479692    17A     -0.416979

  @DF-RHF Final Energy:  -193.18516455351818

   => Energetics <=

    Nuclear Repulsion Energy =            135.2026964818318788
    One-Electron Energy =                -530.0692866058911932
    Two-Electron Energy =                 201.6814255705411369
    Total Energy =                       -193.1851645535181774
  Basis Set: (AUG-CC-PVTZ AUX)
    Blend: AUG-CC-PVTZ-RI
    Molecular point group: c1

    Geometry (in Angstrom), charge = 0, multiplicity = 1:

       Center              X                  Y                   Z               Mass
    ------------   -----------------  -----------------  -----------------  -----------------
         C           -0.064183959778    -0.025673421737     0.339199580012    12.000000000000
         C           -1.288613459778    -0.615573621737    -0.075253419988    12.000000000000
         C            1.228961540222    -0.813235621737    -0.091413419988    12.000000000000
         O            0.050662540222     1.315382378263    -0.154410419988    15.994914619570
         H            0.032796540222     0.032506378263     1.484361580012     1.007825032230
         H           -1.412022459778    -1.626997621737     0.321774580012     1.007825032230
         H            1.231707540222    -0.856412621737    -1.184020419988     1.007825032230
         H            2.163788540222    -0.346052621737     0.237440580012     1.007825032230
         H            1.207251540222    -1.833484621737     0.303772580012     1.007825032230
         H            0.880727540222     1.729386378263     0.138097580012     1.007825032230
         H           -1.309947459778    -0.658753621737    -1.167755419988     1.007825032230
         H           -2.123860459778     0.002011378263     0.262616580012     1.007825032230

  Basis Set: AUG-CC-PVTZ
    Blend: AUG-CC-PVTZ
  Basis Set: (AUG-CC-PVTZ AUX)
    Blend: AUG-CC-PVTZ-JKFIT
	 Reference Energy          =    -193.1851645535181774 [Eh]
	 Singles Energy            =      -0.0000000000000000 [Eh]
	 Same-Spin Energy          =      -0.1921977612011803 [Eh]
	 Opposite-Spin Energy      =      -0.6734069904014675 [Eh]
	 Correlation Energy        =      -0.8656047516026477 [Eh]
	 Total Energy              =    -194.0507693051208378 [Eh]

	 ================> DF-SCS-MP2 Energies <==================
	-----------------------------------------------------------
	 SCS Same-Spin Scale       =       0.3333333333333333 [-]
	 SCS Opposite-Spin Scale   =       1.2000000000000000 [-]
	 SCS Same-Spin Energy      =      -0.0640659204003934 [Eh]
	 SCS Opposite-Spin Energy  =      -0.8080883884817609 [Eh]
	 SCS Correlation Energy    =      -0.8721543088821543 [Eh]
	 SCS Total Energy          =    -194.0573188624003365 [Eh]
	-----------------------------------------------------------

  Dipole Moment: [D]
     X:     0.9329      Y:    -0.8654      Z:     0.8694     Total:     1.5411

*** Psi4 exiting successfully. Buy a developer a beer!
