                               Psi4 1.3.2 release

  ==> Input File <==

--------------------------------------------------------------------------
#psi4
#
memory 32 gb

molecule  {
0 1
  C       -0.0008780     0.0364400     0.3700670
  C       -1.2713117    -0.6975061    -0.0111111
  C        1.2035130    -0.7636300    -0.1050350
  O        0.0252140     1.3649880    -0.1680320
  H        0.0073480     0.0821120     1.4707400
  H       -1.4374710    -1.5773920     0.3081530
  H        1.2062590    -0.8068070    -1.1976420
  H        2.1383400    -0.2964470     0.2238190
  H        1.1818030    -1.7838790     0.2901510
  H        0.8552790     1.7789920     0.1244760
  H       -1.3353960    -0.6091480    -1.1813770
  H       -2.1493090     0.0516170     0.2489950
units angstrom
no_reorient  #important for SAPT in psi4, default
symmetry c1  #important for SAPT in psi4, default
}

set PROPERTIES_ORIGIN ["COM"]
properties('MP2/aug-cc-pvtz', properties = ['dipole'])
--------------------------------------------------------------------------

    Molecular point group: c1
  Charge       = 0
  Multiplicity = 1
  Basis Set: AUG-CC-PVTZ
    Blend: AUG-CC-PVTZ
  Basis Set: (AUG-CC-PVTZ AUX)
    Blend: AUG-CC-PVTZ-JKFIT

    Orbital Energies [Eh]
    ---------------------

    Doubly Occupied:

       1A    -20.558772     2A    -11.282407     3A    -11.216596
       4A    -11.215528     5A     -1.355560     6A     -1.047589
       7A     -0.938380     8A     -0.802971     9A     -0.698099
      10A     -0.621725    11A     -0.605241    12A     -0.580663
      13A     -0.541129    14A     -0.524184    15A     -0.486848
      16A     -0.461436    17A     -0.432053

  @DF-RHF Final Energy:  -193.16477716362567

   => Energetics <=

    Nuclear Repulsion Energy =            134.6738403458314792
    One-Electron Energy =                -528.9388734307517552
    Two-Electron Energy =                 201.1002559212946039
    Total Energy =                       -193.1647771636256721
  Basis Set: (AUG-CC-PVTZ AUX)
    Blend: AUG-CC-PVTZ-RI
    Molecular point group: c1

    Geometry (in Angstrom), charge = 0, multiplicity = 1:

       Center              X                  Y                   Z               Mass
    ------------   -----------------  -----------------  -----------------  -----------------
         C           -0.001705232314     0.010617640073     0.359261415435    12.000000000000
         C           -1.272138932314    -0.723328459927    -0.021916684565    12.000000000000
         C            1.202685767686    -0.789452359927    -0.115840584565    12.000000000000
         O            0.024386767686     1.339165640073    -0.178837584565    15.994914619570
         H            0.006520767686     0.056289640073     1.459934415435     1.007825032230
         H           -1.438298232314    -1.603214359927     0.297347415435     1.007825032230
         H            1.205431767686    -0.832629359927    -1.208447584565     1.007825032230
         H            2.137512767686    -0.322269359927     0.213013415435     1.007825032230
         H            1.180975767686    -1.809701359927     0.279345415435     1.007825032230
         H            0.854451767686     1.753169640073     0.113670415435     1.007825032230
         H           -1.336223232314    -0.634970359927    -1.192182584565     1.007825032230
         H           -2.150136232314     0.025794640073     0.238189415435     1.007825032230

  Basis Set: AUG-CC-PVTZ
    Blend: AUG-CC-PVTZ
  Basis Set: (AUG-CC-PVTZ AUX)
    Blend: AUG-CC-PVTZ-JKFIT
	 Reference Energy          =    -193.1647771636256721 [Eh]
	 Singles Energy            =      -0.0000000000000000 [Eh]
	 Same-Spin Energy          =      -0.1921267008001717 [Eh]
	 Opposite-Spin Energy      =      -0.6741430861836126 [Eh]
	 Correlation Energy        =      -0.8662697869837843 [Eh]
	 Total Energy              =    -194.0310469506094648 [Eh]

	 ================> DF-SCS-MP2 Energies <==================
	-----------------------------------------------------------
	 SCS Same-Spin Scale       =       0.3333333333333333 [-]
	 SCS Opposite-Spin Scale   =       1.2000000000000000 [-]
	 SCS Same-Spin Energy      =      -0.0640422336000572 [Eh]
	 SCS Opposite-Spin Energy  =      -0.8089717034203351 [Eh]
	 SCS Correlation Energy    =      -0.8730139370203923 [Eh]
	 SCS Total Energy          =    -194.0377911006460749 [Eh]
	-----------------------------------------------------------

  Dipole Moment: [D]
     X:     1.1317      Y:    -0.8198      Z:     0.9499     Total:     1.6898

*** Psi4 exiting successfully. Buy a developer a beer!
