                               Psi4 1.3.2 release

  ==> Input File <==

--------------------------------------------------------------------------
#psi4
#
memory 32 gb

molecule  {
0 1
  C       -0.0008780     0.0364400     0.3700670
  C       -1.3140620    -0.5659680    -0.0888750
  C        1.2035130    -0.7636300    -0.1050350
  O        0.0259202     1.3829470    -0.1213308
  H        0.0073480     0.0821120     1.4707400
  H       -1.4374710    -1.5773920     0.3081530
  H        1.2062590    -0.8068070    -1.1976420
  H        2.1383400    -0.2964470     0.2238190
  H        1.1818030    -1.7838790     0.2901510
  H        0.8552790     1.7789920     0.1244760
  H       -1.3353960    -0.6091480    -1.1813770
  H       -2.1493090     0.0516170     0.2489950
units angstrom
no_reorient  #important for SAPT in psi4, default
symmetry c1  #important for SAPT in psi4, default
}

set PROPERTIES_ORIGIN ["COM"]
properties('MP2/aug-cc-pvtz', properties = ['dipole'])
--------------------------------------------------------------------------

    Molecular point group: c1
  Charge       = 0
  Multiplicity = 1
  Basis Set: AUG-CC-PVTZ
    Blend: AUG-CC-PVTZ
  Basis Set: (AUG-CC-PVTZ AUX)
    Blend: AUG-CC-PVTZ-JKFIT

    Orbital Energies [Eh]
    ---------------------

    Doubly Occupied:

       1A    -20.551126     2A    -11.279802     3A    -11.218757
       4A    -11.210997     5A     -1.356763     6A     -1.044068
       7A     -0.939145     8A     -0.799210     9A     -0.694123
      10A     -0.628840    11A     -0.604443    12A     -0.546114
      13A     -0.534269    14A     -0.528282    15A     -0.510624
      16A     -0.473018    17A     -0.436245

  @DF-RHF Final Energy:  -193.19771338850433

   => Energetics <=

    Nuclear Repulsion Energy =            134.7938879315622955
    One-Electron Energy =                -529.2715536858089536
    Two-Electron Energy =                 201.2799523657423606
    Total Energy =                       -193.1977133885043258
  Basis Set: (AUG-CC-PVTZ AUX)
    Blend: AUG-CC-PVTZ-RI
    Molecular point group: c1

    Geometry (in Angstrom), charge = 0, multiplicity = 1:

       Center              X                  Y                   Z               Mass
    ------------   -----------------  -----------------  -----------------  -----------------
         C            0.006648559752    -0.020447745756     0.362361528614    12.000000000000
         C           -1.306535440248    -0.622855745756    -0.096580471386    12.000000000000
         C            1.211039559752    -0.820517745756    -0.112740471386    12.000000000000
         O            0.033446759752     1.326059254244    -0.129036271386    15.994914619570
         H            0.014874559752     0.025224254244     1.463034528614     1.007825032230
         H           -1.429944440248    -1.634279745756     0.300447528614     1.007825032230
         H            1.213785559752    -0.863694745756    -1.205347471386     1.007825032230
         H            2.145866559752    -0.353334745756     0.216113528614     1.007825032230
         H            1.189329559752    -1.840766745756     0.282445528614     1.007825032230
         H            0.862805559752     1.722104254244     0.116770528614     1.007825032230
         H           -1.327869440248    -0.666035745756    -1.189082471386     1.007825032230
         H           -2.141782440248    -0.005270745756     0.241289528614     1.007825032230

  Basis Set: AUG-CC-PVTZ
    Blend: AUG-CC-PVTZ
  Basis Set: (AUG-CC-PVTZ AUX)
    Blend: AUG-CC-PVTZ-JKFIT
	 Reference Energy          =    -193.1977133885043258 [Eh]
	 Singles Energy            =      -0.0000000000000000 [Eh]
	 Same-Spin Energy          =      -0.1913381788091105 [Eh]
	 Opposite-Spin Energy      =      -0.6720462986173567 [Eh]
	 Correlation Energy        =      -0.8633844774264672 [Eh]
	 Total Energy              =    -194.0610978659308046 [Eh]

	 ================> DF-SCS-MP2 Energies <==================
	-----------------------------------------------------------
	 SCS Same-Spin Scale       =       0.3333333333333333 [-]
	 SCS Opposite-Spin Scale   =       1.2000000000000000 [-]
	 SCS Same-Spin Energy      =      -0.0637793929363702 [Eh]
	 SCS Opposite-Spin Energy  =      -0.8064555583408279 [Eh]
	 SCS Correlation Energy    =      -0.8702349512771981 [Eh]
	 SCS Total Energy          =    -194.0679483397815375 [Eh]
	-----------------------------------------------------------

  Dipole Moment: [D]
     X:     1.1339      Y:    -0.8875      Z:     0.8261     Total:     1.6601

*** Psi4 exiting successfully. Buy a developer a beer!
