                               Psi4 1.4a3.dev225

  ==> Input File <==

--------------------------------------------------------------------------
#psi4
#
memory 32 gb

molecule  {
0 1
  C       -0.0009430     0.0362800     0.3701830
  C       -1.3145230    -0.5650620    -0.0890380
  C        1.2029820    -0.7643180    -0.1050550
  O        0.0261420     1.3650800    -0.1677110
  H        0.0074080     0.0820460     1.4708190
  H       -1.4389570    -1.5762170     0.3085700
  H        1.2054580    -0.8075300    -1.1976690
  H        2.1382080    -0.2978140     0.2236980
  H        1.1805850    -1.7845380     0.2901560
  H        0.8750008     1.7858282     0.1285613
  H       -1.3355770    -0.6086870    -1.1814120
  H       -2.1492510     0.0533470     0.2483910
units angstrom
no_reorient  #important for SAPT in psi4, default
symmetry c1  #important for SAPT in psi4, default
}

set PROPERTIES_ORIGIN ["COM"]
properties('MP2/aug-cc-pvtz', properties = ['dipole'])
--------------------------------------------------------------------------

    Molecular point group: c1
  Charge       = 0
  Multiplicity = 1
  Basis Set: AUG-CC-PVTZ
    Blend: AUG-CC-PVTZ
  Basis Set: (AUG-CC-PVTZ AUX)
    Blend: AUG-CC-PVTZ-JKFIT

    Orbital Energies [Eh]
    ---------------------

    Doubly Occupied:

       1A    -20.555884     2A    -11.279436     3A    -11.217706
       4A    -11.210344     5A     -1.349177     6A     -1.041451
       7A     -0.938549     8A     -0.795081     9A     -0.690177
      10A     -0.625748    11A     -0.603796    12A     -0.545334
      13A     -0.533327    14A     -0.525917    15A     -0.509671
      16A     -0.472228    17A     -0.436981

  @DF-RHF Final Energy:  -193.19504379519546

   => Energetics <=

    Nuclear Repulsion Energy =            134.7356977884551554
    One-Electron Energy =                -529.1998698609883149
    Two-Electron Energy =                 201.2691282773377282
    Total Energy =                       -193.1950437951954598
  Basis Set: (AUG-CC-PVTZ AUX)
    Blend: AUG-CC-PVTZ-RI
    Molecular point group: c1

    Geometry (in Angstrom), charge = 0, multiplicity = 1:

       Center              X                  Y                   Z               Mass
    ------------   -----------------  -----------------  -----------------  -----------------
         C            0.006466824267    -0.015984841612     0.374779441387    12.000000000000
         C           -1.307113175733    -0.617326841612    -0.084441558613    12.000000000000
         C            1.210391824267    -0.816582841612    -0.100458558613    12.000000000000
         O            0.033551824267     1.312815158388    -0.163114558613    15.994914619570
         H            0.014817824267     0.029781158388     1.475415441387     1.007825032230
         H           -1.431547175733    -1.628481841612     0.313166441387     1.007825032230
         H            1.212867824267    -0.859794841612    -1.193072558613     1.007825032230
         H            2.145617824267    -0.350078841612     0.228294441387     1.007825032230
         H            1.187994824267    -1.836802841612     0.294752441387     1.007825032230
         H            0.882410624267     1.733563358388     0.133157741387     1.007825032230
         H           -1.328167175733    -0.660951841612    -1.176815558613     1.007825032230
         H           -2.141841175733     0.001082158388     0.252987441387     1.007825032230

  Basis Set: AUG-CC-PVTZ
    Blend: AUG-CC-PVTZ
  Basis Set: (AUG-CC-PVTZ AUX)
    Blend: AUG-CC-PVTZ-JKFIT
	 Reference Energy          =    -193.1950437951954598 [Eh]
	 Singles Energy            =      -0.0000000000000000 [Eh]
	 Same-Spin Energy          =      -0.1919225395655321 [Eh]
	 Opposite-Spin Energy      =      -0.6735149602771818 [Eh]
	 Correlation Energy        =      -0.8654374998427139 [Eh]
	 Total Energy              =    -194.0604812950381870 [Eh]

	 ================> DF-SCS-MP2 Energies <==================
	-----------------------------------------------------------
	 SCS Same-Spin Scale       =       0.3333333333333333 [-]
	 SCS Opposite-Spin Scale   =       1.2000000000000000 [-]
	 SCS Same-Spin Energy      =      -0.0639741798551774 [Eh]
	 SCS Opposite-Spin Energy  =      -0.8082179523326182 [Eh]
	 SCS Correlation Energy    =      -0.8721921321877956 [Eh]
	 SCS Total Energy          =    -194.0672359273832512 [Eh]
	-----------------------------------------------------------

  Dipole Moment: [D]
     X:     1.1226      Y:    -0.8213      Z:     0.9222     Total:     1.6689

*** Psi4 exiting successfully. Buy a developer a beer!
