                               Psi4 1.3.2 release

  ==> Input File <==

--------------------------------------------------------------------------
#psi4
#
memory 32 gb

molecule  {
0 1
  C       -0.1338268     0.0201258     0.3024176
  C       -1.3140620    -0.5659680    -0.0888750
  C        1.2035130    -0.7636300    -0.1050350
  O        0.0252140     1.3649880    -0.1680320
  H        0.0073480     0.0821120     1.4707400
  H       -1.4374710    -1.5773920     0.3081530
  H        1.2062590    -0.8068070    -1.1976420
  H        2.1383400    -0.2964470     0.2238190
  H        1.1818030    -1.7838790     0.2901510
  H        0.8552790     1.7789920     0.1244760
  H       -1.3353960    -0.6091480    -1.1813770
  H       -2.1493090     0.0516170     0.2489950
units angstrom
no_reorient  #important for SAPT in psi4, default
symmetry c1  #important for SAPT in psi4, default
}

set PROPERTIES_ORIGIN ["COM"]
properties('MP2/aug-cc-pvtz', properties = ['dipole'])
--------------------------------------------------------------------------

    Molecular point group: c1
  Charge       = 0
  Multiplicity = 1
  Basis Set: AUG-CC-PVTZ
    Blend: AUG-CC-PVTZ
  Basis Set: (AUG-CC-PVTZ AUX)
    Blend: AUG-CC-PVTZ-JKFIT

    Orbital Energies [Eh]
    ---------------------

    Doubly Occupied:

       1A    -20.550425     2A    -11.286222     3A    -11.218513
       4A    -11.209046     5A     -1.350225     6A     -1.064239
       7A     -0.941549     8A     -0.789959     9A     -0.692221
      10A     -0.633103    11A     -0.605476    12A     -0.558723
      13A     -0.541096    14A     -0.530695    15A     -0.508577
      16A     -0.476026    17A     -0.405217

  @DF-RHF Final Energy:  -193.16963986834645

   => Energetics <=

    Nuclear Repulsion Energy =            135.4009138226059861
    One-Electron Energy =                -530.4184866528652265
    Two-Electron Energy =                 201.8479329619128180
    Total Energy =                       -193.1696398683464508
  Basis Set: (AUG-CC-PVTZ AUX)
    Blend: AUG-CC-PVTZ-RI
    Molecular point group: c1

    Geometry (in Angstrom), charge = 0, multiplicity = 1:

       Center              X                  Y                   Z               Mass
    ------------   -----------------  -----------------  -----------------  -----------------
         C           -0.099547864429    -0.028719270787     0.320666824039    12.000000000000
         C           -1.279783064429    -0.614813070787    -0.070625775961    12.000000000000
         C            1.237791935571    -0.812475070787    -0.086785775961    12.000000000000
         O            0.059492935571     1.316142929213    -0.149782775961    15.994914619570
         H            0.041626935571     0.033266929213     1.488989224039     1.007825032230
         H           -1.403192064429    -1.626237070787     0.326402224039     1.007825032230
         H            1.240537935571    -0.855652070787    -1.179392775961     1.007825032230
         H            2.172618935571    -0.345292070787     0.242068224039     1.007825032230
         H            1.216081935571    -1.832724070787     0.308400224039     1.007825032230
         H            0.889557935571     1.730146929213     0.142725224039     1.007825032230
         H           -1.301117064429    -0.657993070787    -1.163127775961     1.007825032230
         H           -2.115030064429     0.002771929213     0.267244224039     1.007825032230

  Basis Set: AUG-CC-PVTZ
    Blend: AUG-CC-PVTZ
  Basis Set: (AUG-CC-PVTZ AUX)
    Blend: AUG-CC-PVTZ-JKFIT
	 Reference Energy          =    -193.1696398683464508 [Eh]
	 Singles Energy            =      -0.0000000000000000 [Eh]
	 Same-Spin Energy          =      -0.1927936859676382 [Eh]
	 Opposite-Spin Energy      =      -0.6742897876019436 [Eh]
	 Correlation Energy        =      -0.8670834735695818 [Eh]
	 Total Energy              =    -194.0367233419160300 [Eh]

	 ================> DF-SCS-MP2 Energies <==================
	-----------------------------------------------------------
	 SCS Same-Spin Scale       =       0.3333333333333333 [-]
	 SCS Opposite-Spin Scale   =       1.2000000000000000 [-]
	 SCS Same-Spin Energy      =      -0.0642645619892127 [Eh]
	 SCS Opposite-Spin Energy  =      -0.8091477451223322 [Eh]
	 SCS Correlation Energy    =      -0.8734123071115449 [Eh]
	 SCS Total Energy          =    -194.0430521754580013 [Eh]
	-----------------------------------------------------------

  Dipole Moment: [D]
     X:     0.8334      Y:    -0.8811      Z:     0.8335     Total:     1.4716

*** Psi4 exiting successfully. Buy a developer a beer!
