                               Psi4 1.3.2 release

  ==> Input File <==

--------------------------------------------------------------------------
#psi4
#
memory 32 gb

molecule  {
0 1
  C       -0.0008780     0.0364400     0.3700670
  C       -1.3251335    -0.5205819    -0.1137195
  C        1.2035130    -0.7636300    -0.1050350
  O        0.0252140     1.3649880    -0.1680320
  H        0.0073480     0.0821120     1.4707400
  H       -1.4374710    -1.5773920     0.3081530
  H        1.2062590    -0.8068070    -1.1976420
  H        2.1383400    -0.2964470     0.2238190
  H        1.1818030    -1.7838790     0.2901510
  H        0.8552790     1.7789920     0.1244760
  H       -1.3353960    -0.6091480    -1.1813770
  H       -2.1493090     0.0516170     0.2489950
units angstrom
no_reorient  #important for SAPT in psi4, default
symmetry c1  #important for SAPT in psi4, default
}

set PROPERTIES_ORIGIN ["COM"]
properties('MP2/aug-cc-pvtz', properties = ['dipole'])
--------------------------------------------------------------------------

    Molecular point group: c1
  Charge       = 0
  Multiplicity = 1
  Basis Set: AUG-CC-PVTZ
    Blend: AUG-CC-PVTZ
  Basis Set: (AUG-CC-PVTZ AUX)
    Blend: AUG-CC-PVTZ-JKFIT

    Orbital Energies [Eh]
    ---------------------

    Doubly Occupied:

       1A    -20.552990     2A    -11.279691     3A    -11.218451
       4A    -11.210573     5A     -1.353335     6A     -1.041472
       7A     -0.939924     8A     -0.796519     9A     -0.692714
      10A     -0.629526    11A     -0.604689    12A     -0.549311
      13A     -0.533744    14A     -0.514710    15A     -0.510795
      16A     -0.475378    17A     -0.438323

  @DF-RHF Final Energy:  -193.19364767932009

   => Energetics <=

    Nuclear Repulsion Energy =            134.9352785478298529
    One-Electron Energy =                -529.5735603069342687
    Two-Electron Energy =                 201.4446340797843220
    Total Energy =                       -193.1936476793200939
  Basis Set: (AUG-CC-PVTZ AUX)
    Blend: AUG-CC-PVTZ-RI
    Molecular point group: c1

    Geometry (in Angstrom), charge = 0, multiplicity = 1:

       Center              X                  Y                   Z               Mass
    ------------   -----------------  -----------------  -----------------  -----------------
         C            0.009048819054    -0.024733313164     0.379763442575    12.000000000000
         C           -1.315206680946    -0.581755213164    -0.104023057425    12.000000000000
         C            1.213439819054    -0.824803313164    -0.095338557425    12.000000000000
         O            0.035140819054     1.303814686836    -0.158335557425    15.994914619570
         H            0.017274819054     0.020938686836     1.480436442575     1.007825032230
         H           -1.427544180946    -1.638565313164     0.317849442575     1.007825032230
         H            1.216185819054    -0.867980313164    -1.187945557425     1.007825032230
         H            2.148266819054    -0.357620313164     0.233515442575     1.007825032230
         H            1.191729819054    -1.845052313164     0.299847442575     1.007825032230
         H            0.865205819054     1.717818686836     0.134172442575     1.007825032230
         H           -1.325469180946    -0.670321313164    -1.171680557425     1.007825032230
         H           -2.139382180946    -0.009556313164     0.258691442575     1.007825032230

  Basis Set: AUG-CC-PVTZ
    Blend: AUG-CC-PVTZ
  Basis Set: (AUG-CC-PVTZ AUX)
    Blend: AUG-CC-PVTZ-JKFIT
	 Reference Energy          =    -193.1936476793200939 [Eh]
	 Singles Energy            =      -0.0000000000000000 [Eh]
	 Same-Spin Energy          =      -0.1917342685195761 [Eh]
	 Opposite-Spin Energy      =      -0.6730492533818178 [Eh]
	 Correlation Energy        =      -0.8647835219013940 [Eh]
	 Total Energy              =    -194.0584312012214809 [Eh]

	 ================> DF-SCS-MP2 Energies <==================
	-----------------------------------------------------------
	 SCS Same-Spin Scale       =       0.3333333333333333 [-]
	 SCS Opposite-Spin Scale   =       1.2000000000000000 [-]
	 SCS Same-Spin Energy      =      -0.0639114228398587 [Eh]
	 SCS Opposite-Spin Energy  =      -0.8076591040581813 [Eh]
	 SCS Correlation Energy    =      -0.8715705268980400 [Eh]
	 SCS Total Energy          =    -194.0652182062181339 [Eh]
	-----------------------------------------------------------

  Dipole Moment: [D]
     X:     1.1222      Y:    -0.8077      Z:     0.9110     Total:     1.6558

*** Psi4 exiting successfully. Buy a developer a beer!
