                               Psi4 1.3.2 release

  ==> Input File <==

--------------------------------------------------------------------------
#psi4
#
memory 32 gb

molecule  {
0 1
  C       -0.0008780     0.0364400     0.3700670
  C       -1.3140620    -0.5659680    -0.0888750
  C        1.2035130    -0.7636300    -0.1050350
  O        0.0252140     1.3649880    -0.1680320
  H        0.0073480     0.0821120     1.4707400
  H       -1.4374710    -1.5773920     0.3081530
  H        1.2062590    -0.8068070    -1.1976420
  H        2.1383400    -0.2964470     0.2238190
  H        1.1818030    -1.7838790     0.2901510
  H        0.9406232     1.8215583     0.1545506
  H       -1.3353960    -0.6091480    -1.1813770
  H       -2.1493090     0.0516170     0.2489950
units angstrom
no_reorient  #important for SAPT in psi4, default
symmetry c1  #important for SAPT in psi4, default
}

set PROPERTIES_ORIGIN ["COM"]
properties('MP2/aug-cc-pvtz', properties = ['dipole'])
--------------------------------------------------------------------------

    Molecular point group: c1
  Charge       = 0
  Multiplicity = 1
  Basis Set: AUG-CC-PVTZ
    Blend: AUG-CC-PVTZ
  Basis Set: (AUG-CC-PVTZ AUX)
    Blend: AUG-CC-PVTZ-JKFIT

    Orbital Energies [Eh]
    ---------------------

    Doubly Occupied:

       1A    -20.562636     2A    -11.278803     3A    -11.217171
       4A    -11.210365     5A     -1.335316     6A     -1.037935
       7A     -0.938008     8A     -0.790871     9A     -0.678232
      10A     -0.622205    11A     -0.602812    12A     -0.543556
      13A     -0.531159    14A     -0.524763    15A     -0.508579
      16A     -0.469429    17A     -0.435589

  @DF-RHF Final Energy:  -193.18324333099969

   => Energetics <=

    Nuclear Repulsion Energy =            134.3229119485083913
    One-Electron Energy =                -528.4374544504316873
    Two-Electron Energy =                 200.9312991709236371
    Total Energy =                       -193.1832433309996873
  Basis Set: (AUG-CC-PVTZ AUX)
    Blend: AUG-CC-PVTZ-RI
    Molecular point group: c1

    Geometry (in Angstrom), charge = 0, multiplicity = 1:

       Center              X                  Y                   Z               Mass
    ------------   -----------------  -----------------  -----------------  -----------------
         C            0.005404478765    -0.016379091076     0.374294619308    12.000000000000
         C           -1.307779521235    -0.618787091076    -0.084647380692    12.000000000000
         C            1.209795478765    -0.816449091076    -0.100807380692    12.000000000000
         O            0.031496478765     1.312168908924    -0.163804380692    15.994914619570
         H            0.013630478765     0.029292908924     1.474967619308     1.007825032230
         H           -1.431188521235    -1.630211091076     0.312380619308     1.007825032230
         H            1.212541478765    -0.859626091076    -1.193414380692     1.007825032230
         H            2.144622478765    -0.349266091076     0.228046619308     1.007825032230
         H            1.188085478765    -1.836698091076     0.294378619308     1.007825032230
         H            0.946905678765     1.768739208924     0.158778219308     1.007825032230
         H           -1.329113521235    -0.661967091076    -1.177149380692     1.007825032230
         H           -2.143026521235    -0.001202091076     0.253222619308     1.007825032230

  Basis Set: AUG-CC-PVTZ
    Blend: AUG-CC-PVTZ
  Basis Set: (AUG-CC-PVTZ AUX)
    Blend: AUG-CC-PVTZ-JKFIT
	 Reference Energy          =    -193.1832433309996873 [Eh]
	 Singles Energy            =      -0.0000000000000000 [Eh]
	 Same-Spin Energy          =      -0.1928201200502395 [Eh]
	 Opposite-Spin Energy      =      -0.6761375538756185 [Eh]
	 Correlation Energy        =      -0.8689576739258580 [Eh]
	 Total Energy              =    -194.0522010049255357 [Eh]

	 ================> DF-SCS-MP2 Energies <==================
	-----------------------------------------------------------
	 SCS Same-Spin Scale       =       0.3333333333333333 [-]
	 SCS Opposite-Spin Scale   =       1.2000000000000000 [-]
	 SCS Same-Spin Energy      =      -0.0642733733500798 [Eh]
	 SCS Opposite-Spin Energy  =      -0.8113650646507421 [Eh]
	 SCS Correlation Energy    =      -0.8756384380008220 [Eh]
	 SCS Total Energy          =    -194.0588817690005214 [Eh]
	-----------------------------------------------------------

  Dipole Moment: [D]
     X:     1.1519      Y:    -0.7891      Z:     0.9363     Total:     1.6812

*** Psi4 exiting successfully. Buy a developer a beer!
