                               Psi4 1.3.2 release

  ==> Input File <==

--------------------------------------------------------------------------
#psi4
#
memory 32 gb

molecule  {
0 1
  C       -0.0008780     0.0364400     0.3700670
  C       -1.3140620    -0.5659680    -0.0888750
  C        1.2035130    -0.7636300    -0.1050350
  O        0.0255711     1.3741713    -0.1447598
  H        0.0073480     0.0821120     1.4707400
  H       -1.4374710    -1.5773920     0.3081530
  H        1.2062590    -0.8068070    -1.1976420
  H        2.1383400    -0.2964470     0.2238190
  H        1.1818030    -1.7838790     0.2901510
  H        0.8552790     1.7789920     0.1244760
  H       -1.3353960    -0.6091480    -1.1813770
  H       -2.1493090     0.0516170     0.2489950
units angstrom
no_reorient  #important for SAPT in psi4, default
symmetry c1  #important for SAPT in psi4, default
}

set PROPERTIES_ORIGIN ["COM"]
properties('MP2/aug-cc-pvtz', properties = ['dipole'])
--------------------------------------------------------------------------

    Molecular point group: c1
  Charge       = 0
  Multiplicity = 1
  Basis Set: AUG-CC-PVTZ
    Blend: AUG-CC-PVTZ
  Basis Set: (AUG-CC-PVTZ AUX)
    Blend: AUG-CC-PVTZ-JKFIT

    Orbital Energies [Eh]
    ---------------------

    Doubly Occupied:

       1A    -20.552571     2A    -11.279710     3A    -11.218278
       4A    -11.210681     5A     -1.355101     6A     -1.043270
       7A     -0.938901     8A     -0.797748     9A     -0.693900
      10A     -0.627644    11A     -0.604244    12A     -0.545983
      13A     -0.534037    14A     -0.527282    15A     -0.510286
      16A     -0.472899    17A     -0.436872

  @DF-RHF Final Energy:  -193.19738111570504

   => Energetics <=

    Nuclear Repulsion Energy =            134.8213521301844082
    One-Electron Energy =                -529.3386526663832683
    Two-Electron Energy =                 201.3199194204937896
    Total Energy =                       -193.1973811157050420
  Basis Set: (AUG-CC-PVTZ AUX)
    Blend: AUG-CC-PVTZ-RI
    Molecular point group: c1

    Geometry (in Angstrom), charge = 0, multiplicity = 1:

       Center              X                  Y                   Z               Mass
    ------------   -----------------  -----------------  -----------------  -----------------
         C            0.006741534374    -0.018110543285     0.368601294868    12.000000000000
         C           -1.306442465626    -0.620518543285    -0.090340705132    12.000000000000
         C            1.211132534374    -0.818180543285    -0.106500705132    12.000000000000
         O            0.033190634374     1.319620756715    -0.146225505132    15.994914619570
         H            0.014967534374     0.027561456715     1.469274294868     1.007825032230
         H           -1.429851465626    -1.631942543285     0.306687294868     1.007825032230
         H            1.213878534374    -0.861357543285    -1.199107705132     1.007825032230
         H            2.145959534374    -0.350997543285     0.222353294868     1.007825032230
         H            1.189422534374    -1.838429543285     0.288685294868     1.007825032230
         H            0.862898534374     1.724441456715     0.123010294868     1.007825032230
         H           -1.327776465626    -0.663698543285    -1.182842705132     1.007825032230
         H           -2.141689465626    -0.002933543285     0.247529294868     1.007825032230

  Basis Set: AUG-CC-PVTZ
    Blend: AUG-CC-PVTZ
  Basis Set: (AUG-CC-PVTZ AUX)
    Blend: AUG-CC-PVTZ-JKFIT
	 Reference Energy          =    -193.1973811157050420 [Eh]
	 Singles Energy            =      -0.0000000000000000 [Eh]
	 Same-Spin Energy          =      -0.1915051476080930 [Eh]
	 Opposite-Spin Energy      =      -0.6724429381244623 [Eh]
	 Correlation Energy        =      -0.8639480857325553 [Eh]
	 Total Energy              =    -194.0613292014375872 [Eh]

	 ================> DF-SCS-MP2 Energies <==================
	-----------------------------------------------------------
	 SCS Same-Spin Scale       =       0.3333333333333333 [-]
	 SCS Opposite-Spin Scale   =       1.2000000000000000 [-]
	 SCS Same-Spin Energy      =      -0.0638350492026977 [Eh]
	 SCS Opposite-Spin Energy  =      -0.8069315257493548 [Eh]
	 SCS Correlation Energy    =      -0.8707665749520525 [Eh]
	 SCS Total Energy          =    -194.0681476906570992 [Eh]
	-----------------------------------------------------------

  Dipole Moment: [D]
     X:     1.1236      Y:    -0.8571      Z:     0.8752     Total:     1.6622

*** Psi4 exiting successfully. Buy a developer a beer!
