                               Psi4 1.3.2 release

  ==> Input File <==

--------------------------------------------------------------------------
#psi4
#
memory 32 gb

molecule  {
0 1
  C       -0.0008780     0.0364400     0.3700670
  C       -1.3079254    -0.5883893    -0.0762412
  C        1.2035130    -0.7636300    -0.1050350
  O        0.0252140     1.3649880    -0.1680320
  H        0.0073480     0.0821120     1.4707400
  H       -1.4374710    -1.5773920     0.3081530
  H        1.2062590    -0.8068070    -1.1976420
  H        2.1383400    -0.2964470     0.2238190
  H        1.1818030    -1.7838790     0.2901510
  H        0.8552790     1.7789920     0.1244760
  H       -1.3353960    -0.6091480    -1.1813770
  H       -2.1493090     0.0516170     0.2489950
units angstrom
no_reorient  #important for SAPT in psi4, default
symmetry c1  #important for SAPT in psi4, default
}

set PROPERTIES_ORIGIN ["COM"]
properties('MP2/aug-cc-pvtz', properties = ['dipole'])
--------------------------------------------------------------------------

    Molecular point group: c1
  Charge       = 0
  Multiplicity = 1
  Basis Set: AUG-CC-PVTZ
    Blend: AUG-CC-PVTZ
  Basis Set: (AUG-CC-PVTZ AUX)
    Blend: AUG-CC-PVTZ-JKFIT

    Orbital Energies [Eh]
    ---------------------

    Doubly Occupied:

       1A    -20.554703     2A    -11.279756     3A    -11.217519
       4A    -11.210628     5A     -1.353571     6A     -1.043057
       7A     -0.938209     8A     -0.796621     9A     -0.694093
      10A     -0.625207    11A     -0.603706    12A     -0.545956
      13A     -0.539394    14A     -0.527153    15A     -0.506921
      16A     -0.471188    17A     -0.436848

  @DF-RHF Final Energy:  -193.19587921849958

   => Energetics <=

    Nuclear Repulsion Energy =            134.8104140190422129
    One-Electron Energy =                -529.3235260454562194
    Two-Electron Energy =                 201.3172328079143938
    Total Energy =                       -193.1958792184995843
  Basis Set: (AUG-CC-PVTZ AUX)
    Blend: AUG-CC-PVTZ-RI
    Molecular point group: c1

    Geometry (in Angstrom), charge = 0, multiplicity = 1:

       Center              X                  Y                   Z               Mass
    ------------   -----------------  -----------------  -----------------  -----------------
         C            0.005610494967    -0.011184820496     0.372274960894    12.000000000000
         C           -1.301436905033    -0.636014120496    -0.074033239106    12.000000000000
         C            1.210001494967    -0.811254820496    -0.102827039106    12.000000000000
         O            0.031702494967     1.317363179504    -0.165824039106    15.994914619570
         H            0.013836494967     0.034487179504     1.472947960894     1.007825032230
         H           -1.430982505033    -1.625016820496     0.310360960894     1.007825032230
         H            1.212747494967    -0.854431820496    -1.195434039106     1.007825032230
         H            2.144828494967    -0.344071820496     0.226026960894     1.007825032230
         H            1.188291494967    -1.831503820496     0.292358960894     1.007825032230
         H            0.861767494967     1.731367179504     0.126683960894     1.007825032230
         H           -1.328907505033    -0.656772820496    -1.179169039106     1.007825032230
         H           -2.142820505033     0.003992179504     0.251202960894     1.007825032230

  Basis Set: AUG-CC-PVTZ
    Blend: AUG-CC-PVTZ
  Basis Set: (AUG-CC-PVTZ AUX)
    Blend: AUG-CC-PVTZ-JKFIT
	 Reference Energy          =    -193.1958792184995843 [Eh]
	 Singles Energy            =      -0.0000000000000000 [Eh]
	 Same-Spin Energy          =      -0.1916985441699498 [Eh]
	 Opposite-Spin Energy      =      -0.6728987917444411 [Eh]
	 Correlation Energy        =      -0.8645973359143909 [Eh]
	 Total Energy              =    -194.0604765544139809 [Eh]

	 ================> DF-SCS-MP2 Energies <==================
	-----------------------------------------------------------
	 SCS Same-Spin Scale       =       0.3333333333333333 [-]
	 SCS Opposite-Spin Scale   =       1.2000000000000000 [-]
	 SCS Same-Spin Energy      =      -0.0638995147233166 [Eh]
	 SCS Opposite-Spin Energy  =      -0.8074785500933294 [Eh]
	 SCS Correlation Energy    =      -0.8713780648166459 [Eh]
	 SCS Total Energy          =    -194.0672572833162235 [Eh]
	-----------------------------------------------------------

  Dipole Moment: [D]
     X:     1.1109      Y:    -0.8314      Z:     0.9283     Total:     1.6695

*** Psi4 exiting successfully. Buy a developer a beer!
