                               Psi4 1.3.2 release

  ==> Input File <==

--------------------------------------------------------------------------
#psi4
#
memory 32 gb

molecule  {
0 1
  C        0.1323567     0.0673100     0.4318209
  C       -1.3140620    -0.5659680    -0.0888750
  C        1.2035130    -0.7636300    -0.1050350
  O        0.0252140     1.3649880    -0.1680320
  H        0.0073480     0.0821120     1.4707400
  H       -1.4374710    -1.5773920     0.3081530
  H        1.2062590    -0.8068070    -1.1976420
  H        2.1383400    -0.2964470     0.2238190
  H        1.1818030    -1.7838790     0.2901510
  H        0.8552790     1.7789920     0.1244760
  H       -1.3353960    -0.6091480    -1.1813770
  H       -2.1493090     0.0516170     0.2489950
units angstrom
no_reorient  #important for SAPT in psi4, default
symmetry c1  #important for SAPT in psi4, default
}

set PROPERTIES_ORIGIN ["COM"]
properties('MP2/aug-cc-pvtz', properties = ['dipole'])
--------------------------------------------------------------------------

    Molecular point group: c1
  Charge       = 0
  Multiplicity = 1
  Basis Set: AUG-CC-PVTZ
    Blend: AUG-CC-PVTZ
  Basis Set: (AUG-CC-PVTZ AUX)
    Blend: AUG-CC-PVTZ-JKFIT

    Orbital Energies [Eh]
    ---------------------

    Doubly Occupied:

       1A    -20.560127     2A    -11.279070     3A    -11.218456
       4A    -11.209886     5A     -1.359106     6A     -1.041138
       7A     -0.926912     8A     -0.804612     9A     -0.693711
      10A     -0.632245    11A     -0.602658    12A     -0.557395
      13A     -0.529954    14A     -0.524590    15A     -0.513866
      16A     -0.460212    17A     -0.426671

  @DF-RHF Final Energy:  -193.17414249986984

   => Energetics <=

    Nuclear Repulsion Energy =            134.3735096389603711
    One-Electron Energy =                -528.4140853235335271
    Two-Electron Energy =                 200.8664331847032827
    Total Energy =                       -193.1741424998698449
  Basis Set: (AUG-CC-PVTZ AUX)
    Blend: AUG-CC-PVTZ-RI
    Molecular point group: c1

    Geometry (in Angstrom), charge = 0, multiplicity = 1:

       Center              X                  Y                   Z               Mass
    ------------   -----------------  -----------------  -----------------  -----------------
         C            0.113449918404     0.009037126529     0.424214248997    12.000000000000
         C           -1.332968781596    -0.624240873471    -0.096481651003    12.000000000000
         C            1.184606218404    -0.821902873471    -0.112641651003    12.000000000000
         O            0.006307218404     1.306715126529    -0.175638651003    15.994914619570
         H           -0.011558781596     0.023839126529     1.463133348997     1.007825032230
         H           -1.456377781596    -1.635664873471     0.300546348997     1.007825032230
         H            1.187352218404    -0.865079873471    -1.205248651003     1.007825032230
         H            2.119433218404    -0.354719873471     0.216212348997     1.007825032230
         H            1.162896218404    -1.842151873471     0.282544348997     1.007825032230
         H            0.836372218404     1.720719126529     0.116869348997     1.007825032230
         H           -1.354302781596    -0.667420873471    -1.188983651003     1.007825032230
         H           -2.168215781596    -0.006655873471     0.241388348997     1.007825032230

  Basis Set: AUG-CC-PVTZ
    Blend: AUG-CC-PVTZ
  Basis Set: (AUG-CC-PVTZ AUX)
    Blend: AUG-CC-PVTZ-JKFIT
	 Reference Energy          =    -193.1741424998698449 [Eh]
	 Singles Energy            =      -0.0000000000000000 [Eh]
	 Same-Spin Energy          =      -0.1924738578092883 [Eh]
	 Opposite-Spin Energy      =      -0.6750145383913907 [Eh]
	 Correlation Energy        =      -0.8674883962006790 [Eh]
	 Total Energy              =    -194.0416308960705294 [Eh]

	 ================> DF-SCS-MP2 Energies <==================
	-----------------------------------------------------------
	 SCS Same-Spin Scale       =       0.3333333333333333 [-]
	 SCS Opposite-Spin Scale   =       1.2000000000000000 [-]
	 SCS Same-Spin Energy      =      -0.0641579526030961 [Eh]
	 SCS Opposite-Spin Energy  =      -0.8100174460696689 [Eh]
	 SCS Correlation Energy    =      -0.8741753986727649 [Eh]
	 SCS Total Energy          =    -194.0483178985426207 [Eh]
	-----------------------------------------------------------

  Dipole Moment: [D]
     X:     1.3506      Y:    -0.7415      Z:     0.9688     Total:     1.8200

*** Psi4 exiting successfully. Buy a developer a beer!
