                               Psi4 1.3.2 release

  ==> Input File <==

--------------------------------------------------------------------------
#psi4
#
memory 32 gb

molecule  {
0 1
  C       -0.0008780     0.0364400     0.3700670
  C       -1.3140620    -0.5659680    -0.0888750
  C        1.2035130    -0.7636300    -0.1050350
  O        0.0244760     1.3454103    -0.2140776
  H        0.0073480     0.0821120     1.4707400
  H       -1.4374710    -1.5773920     0.3081530
  H        1.2062590    -0.8068070    -1.1976420
  H        2.1383400    -0.2964470     0.2238190
  H        1.1818030    -1.7838790     0.2901510
  H        0.8552790     1.7789920     0.1244760
  H       -1.3353960    -0.6091480    -1.1813770
  H       -2.1493090     0.0516170     0.2489950
units angstrom
no_reorient  #important for SAPT in psi4, default
symmetry c1  #important for SAPT in psi4, default
}

set PROPERTIES_ORIGIN ["COM"]
properties('MP2/aug-cc-pvtz', properties = ['dipole'])
--------------------------------------------------------------------------

    Molecular point group: c1
  Charge       = 0
  Multiplicity = 1
  Basis Set: AUG-CC-PVTZ
    Blend: AUG-CC-PVTZ
  Basis Set: (AUG-CC-PVTZ AUX)
    Blend: AUG-CC-PVTZ-JKFIT

    Orbital Energies [Eh]
    ---------------------

    Doubly Occupied:

       1A    -20.557184     2A    -11.279414     3A    -11.216854
       4A    -11.209710     5A     -1.349986     6A     -1.040690
       7A     -0.938179     8A     -0.793777     9A     -0.692185
      10A     -0.624046    11A     -0.603605    12A     -0.545456
      13A     -0.533385    14A     -0.524271    15A     -0.509258
      16A     -0.472527    17A     -0.438090

  @DF-RHF Final Energy:  -193.19392740201744

   => Energetics <=

    Nuclear Repulsion Energy =            134.9063414496413600
    One-Electron Energy =                -529.5433011237441860
    Two-Electron Energy =                 201.4430322720854178
    Total Energy =                       -193.1939274020174366
  Basis Set: (AUG-CC-PVTZ AUX)
    Blend: AUG-CC-PVTZ-RI
    Molecular point group: c1

    Geometry (in Angstrom), charge = 0, multiplicity = 1:

       Center              X                  Y                   Z               Mass
    ------------   -----------------  -----------------  -----------------  -----------------
         C            0.007033188649    -0.010450723522     0.387062469874    12.000000000000
         C           -1.306150811351    -0.612858723522    -0.071879530126    12.000000000000
         C            1.211424188649    -0.810520723522    -0.088039530126    12.000000000000
         O            0.032387188649     1.298519576478    -0.197082130126    15.994914619570
         H            0.015259188649     0.035221276478     1.487735469874     1.007825032230
         H           -1.429559811351    -1.624282723522     0.325148469874     1.007825032230
         H            1.214170188649    -0.853697723522    -1.180646530126     1.007825032230
         H            2.146251188649    -0.343337723522     0.240814469874     1.007825032230
         H            1.189714188649    -1.830769723522     0.307146469874     1.007825032230
         H            0.863190188649     1.732101276478     0.141471469874     1.007825032230
         H           -1.327484811351    -0.656038723522    -1.164381530126     1.007825032230
         H           -2.141397811351     0.004726276478     0.265990469874     1.007825032230

  Basis Set: AUG-CC-PVTZ
    Blend: AUG-CC-PVTZ
  Basis Set: (AUG-CC-PVTZ AUX)
    Blend: AUG-CC-PVTZ-JKFIT
	 Reference Energy          =    -193.1939274020174366 [Eh]
	 Singles Energy            =      -0.0000000000000000 [Eh]
	 Same-Spin Energy          =      -0.1920960156275676 [Eh]
	 Opposite-Spin Energy      =      -0.6738721941677590 [Eh]
	 Correlation Energy        =      -0.8659682097953266 [Eh]
	 Total Energy              =    -194.0598956118127774 [Eh]

	 ================> DF-SCS-MP2 Energies <==================
	-----------------------------------------------------------
	 SCS Same-Spin Scale       =       0.3333333333333333 [-]
	 SCS Opposite-Spin Scale   =       1.2000000000000000 [-]
	 SCS Same-Spin Energy      =      -0.0640320052091892 [Eh]
	 SCS Opposite-Spin Energy  =      -0.8086466330013108 [Eh]
	 SCS Correlation Energy    =      -0.8726786382105000 [Eh]
	 SCS Total Energy          =    -194.0666060402279243 [Eh]
	-----------------------------------------------------------

  Dipole Moment: [D]
     X:     1.0906      Y:    -0.7625      Z:     1.0143     Total:     1.6732

*** Psi4 exiting successfully. Buy a developer a beer!
