                               Psi4 1.3.2 release

  ==> Input File <==

--------------------------------------------------------------------------
#psi4
#
memory 32 gb

molecule  {
0 1
  C       -0.0008780     0.0364400     0.3700670
  C       -1.3140620    -0.5659680    -0.0888750
  C        1.2035130    -0.7636300    -0.1050350
  O        0.0252140     1.3649880    -0.1680320
  H        0.0073480     0.0821120     1.4707400
  H       -1.4374710    -1.5773920     0.3081530
  H        1.2062590    -0.8068070    -1.1976420
  H        2.1383400    -0.2964470     0.2238190
  H        1.1818030    -1.7838790     0.2901510
  H        0.6845907     1.6938593     0.0643269
  H       -1.3353960    -0.6091480    -1.1813770
  H       -2.1493090     0.0516170     0.2489950
units angstrom
no_reorient  #important for SAPT in psi4, default
symmetry c1  #important for SAPT in psi4, default
}

set PROPERTIES_ORIGIN ["COM"]
properties('MP2/aug-cc-pvtz', properties = ['dipole'])
--------------------------------------------------------------------------

    Molecular point group: c1
  Charge       = 0
  Multiplicity = 1
  Basis Set: AUG-CC-PVTZ
    Blend: AUG-CC-PVTZ
  Basis Set: (AUG-CC-PVTZ AUX)
    Blend: AUG-CC-PVTZ-JKFIT

    Orbital Energies [Eh]
    ---------------------

    Doubly Occupied:

       1A    -20.531730     2A    -11.281900     3A    -11.219250
       4A    -11.211150     5A     -1.414100     6A     -1.055276
       7A     -0.940411     8A     -0.815425     9A     -0.723869
      10A     -0.632837    11A     -0.606964    12A     -0.551039
      13A     -0.537369    14A     -0.530388    15A     -0.513598
      16A     -0.478017    17A     -0.442674

  @DF-RHF Final Energy:  -193.15041713641943

   => Energetics <=

    Nuclear Repulsion Energy =            136.2228055541715719
    One-Electron Energy =                -531.7744476277314334
    Two-Electron Energy =                 202.4012249371403982
    Total Energy =                       -193.1504171364194349
  Basis Set: (AUG-CC-PVTZ AUX)
    Blend: AUG-CC-PVTZ-RI
    Molecular point group: c1

    Geometry (in Angstrom), charge = 0, multiplicity = 1:

       Center              X                  Y                   Z               Mass
    ------------   -----------------  -----------------  -----------------  -----------------
         C            0.009700959615    -0.014236174423     0.375808663030    12.000000000000
         C           -1.303483040385    -0.616644174423    -0.083133336970    12.000000000000
         C            1.214091959615    -0.814306174423    -0.099293336970    12.000000000000
         O            0.035792959615     1.314311825577    -0.162290336970    15.994914619570
         H            0.017926959615     0.031435825577     1.476481663030     1.007825032230
         H           -1.426892040385    -1.628068174423     0.313894663030     1.007825032230
         H            1.216837959615    -0.857483174423    -1.191900336970     1.007825032230
         H            2.148918959615    -0.347123174423     0.229560663030     1.007825032230
         H            1.192381959615    -1.834555174423     0.295892663030     1.007825032230
         H            0.695169659615     1.643183125577     0.070068563030     1.007825032230
         H           -1.324817040385    -0.659824174423    -1.175635336970     1.007825032230
         H           -2.138730040385     0.000940825577     0.254736663030     1.007825032230

  Basis Set: AUG-CC-PVTZ
    Blend: AUG-CC-PVTZ
  Basis Set: (AUG-CC-PVTZ AUX)
    Blend: AUG-CC-PVTZ-JKFIT
	 Reference Energy          =    -193.1504171364194349 [Eh]
	 Singles Energy            =      -0.0000000000000000 [Eh]
	 Same-Spin Energy          =      -0.1893509618581044 [Eh]
	 Opposite-Spin Energy      =      -0.6672969380595475 [Eh]
	 Correlation Energy        =      -0.8566478999176519 [Eh]
	 Total Energy              =    -194.0070650363370817 [Eh]

	 ================> DF-SCS-MP2 Energies <==================
	-----------------------------------------------------------
	 SCS Same-Spin Scale       =       0.3333333333333333 [-]
	 SCS Opposite-Spin Scale   =       1.2000000000000000 [-]
	 SCS Same-Spin Energy      =      -0.0631169872860348 [Eh]
	 SCS Opposite-Spin Energy  =      -0.8007563256714569 [Eh]
	 SCS Correlation Energy    =      -0.8638733129574917 [Eh]
	 SCS Total Energy          =    -194.0142904493769151 [Eh]
	-----------------------------------------------------------

  Dipole Moment: [D]
     X:     1.0124      Y:    -0.9383      Z:     0.8976     Total:     1.6465

*** Psi4 exiting successfully. Buy a developer a beer!
