                               Psi4 1.3.2 release

  ==> Input File <==

--------------------------------------------------------------------------
#psi4
#
memory 32 gb

molecule  {
0 1
  C       -0.0230955     0.0327033     0.3591823
  C       -1.3140620    -0.5659680    -0.0888750
  C        1.2035130    -0.7636300    -0.1050350
  O        0.0252140     1.3649880    -0.1680320
  H        0.0073480     0.0821120     1.4707400
  H       -1.4374710    -1.5773920     0.3081530
  H        1.2062590    -0.8068070    -1.1976420
  H        2.1383400    -0.2964470     0.2238190
  H        1.1818030    -1.7838790     0.2901510
  H        0.8552790     1.7789920     0.1244760
  H       -1.3353960    -0.6091480    -1.1813770
  H       -2.1493090     0.0516170     0.2489950
units angstrom
no_reorient  #important for SAPT in psi4, default
symmetry c1  #important for SAPT in psi4, default
}

set PROPERTIES_ORIGIN ["COM"]
properties('MP2/aug-cc-pvtz', properties = ['dipole'])
--------------------------------------------------------------------------

    Molecular point group: c1
  Charge       = 0
  Multiplicity = 1
  Basis Set: AUG-CC-PVTZ
    Blend: AUG-CC-PVTZ
  Basis Set: (AUG-CC-PVTZ AUX)
    Blend: AUG-CC-PVTZ-JKFIT

    Orbital Energies [Eh]
    ---------------------

    Doubly Occupied:

       1A    -20.553298     2A    -11.280339     3A    -11.217865
       4A    -11.210224     5A     -1.352715     6A     -1.044407
       7A     -0.939923     8A     -0.795093     9A     -0.693309
      10A     -0.626723    11A     -0.604005    12A     -0.545626
      13A     -0.534794    14A     -0.527020    15A     -0.509707
      16A     -0.476876    17A     -0.432713

  @DF-RHF Final Energy:  -193.19604314540089

   => Energetics <=

    Nuclear Repulsion Energy =            134.9330756407400429
    One-Electron Energy =                -529.5689658979235901
    Two-Electron Energy =                 201.4398471117826261
    Total Energy =                       -193.1960431454008926
  Basis Set: (AUG-CC-PVTZ AUX)
    Blend: AUG-CC-PVTZ-RI
    Molecular point group: c1

    Geometry (in Angstrom), charge = 0, multiplicity = 1:

       Center              X                  Y                   Z               Mass
    ------------   -----------------  -----------------  -----------------  -----------------
         C           -0.010941615769    -0.018654861785     0.366089456333    12.000000000000
         C           -1.301908115769    -0.617326161785    -0.081967843667    12.000000000000
         C            1.215666884231    -0.814988161785    -0.098127843667    12.000000000000
         O            0.037367884231     1.313629838215    -0.161124843667    15.994914619570
         H            0.019501884231     0.030753838215     1.477647156333     1.007825032230
         H           -1.425317115769    -1.628750161785     0.315060156333     1.007825032230
         H            1.218412884231    -0.858165161785    -1.190734843667     1.007825032230
         H            2.150493884231    -0.347805161785     0.230726156333     1.007825032230
         H            1.193956884231    -1.835237161785     0.297058156333     1.007825032230
         H            0.867432884231     1.727633838215     0.131383156333     1.007825032230
         H           -1.323242115769    -0.660506161785    -1.174469843667     1.007825032230
         H           -2.137155115769     0.000258838215     0.255902156333     1.007825032230

  Basis Set: AUG-CC-PVTZ
    Blend: AUG-CC-PVTZ
  Basis Set: (AUG-CC-PVTZ AUX)
    Blend: AUG-CC-PVTZ-JKFIT
	 Reference Energy          =    -193.1960431454008926 [Eh]
	 Singles Energy            =      -0.0000000000000000 [Eh]
	 Same-Spin Energy          =      -0.1917328022861602 [Eh]
	 Opposite-Spin Energy      =      -0.6728590336393452 [Eh]
	 Correlation Energy        =      -0.8645918359255054 [Eh]
	 Total Energy              =    -194.0606349813263876 [Eh]

	 ================> DF-SCS-MP2 Energies <==================
	-----------------------------------------------------------
	 SCS Same-Spin Scale       =       0.3333333333333333 [-]
	 SCS Opposite-Spin Scale   =       1.2000000000000000 [-]
	 SCS Same-Spin Energy      =      -0.0639109340953867 [Eh]
	 SCS Opposite-Spin Energy  =      -0.8074308403672142 [Eh]
	 SCS Correlation Energy    =      -0.8713417744626010 [Eh]
	 SCS Total Energy          =    -194.0673849198634855 [Eh]
	-----------------------------------------------------------

  Dipole Moment: [D]
     X:     1.0698      Y:    -0.8370      Z:     0.9116     Total:     1.6359

*** Psi4 exiting successfully. Buy a developer a beer!
