                               Psi4 1.4a3.dev225

  ==> Input File <==

--------------------------------------------------------------------------
#psi4
#
memory 32 gb

molecule  {
0 1
  C       -0.0009430     0.0362800     0.3701830
  C       -1.3145230    -0.5650620    -0.0890380
  C        1.2029820    -0.7643180    -0.1050550
  O        0.0261420     1.3650800    -0.1677110
  H        0.0074080     0.0820460     1.4708190
  H       -1.4389570    -1.5762170     0.3085700
  H        1.2054580    -0.8075300    -1.1976690
  H        2.1382080    -0.2978140     0.2236980
  H        1.1805850    -1.7845380     0.2901560
  H        0.8151411     1.7561580     0.1076688
  H       -1.3355770    -0.6086870    -1.1814120
  H       -2.1492510     0.0533470     0.2483910
units angstrom
no_reorient  #important for SAPT in psi4, default
symmetry c1  #important for SAPT in psi4, default
}

set PROPERTIES_ORIGIN ["COM"]
properties('MP2/aug-cc-pvtz', properties = ['dipole'])
--------------------------------------------------------------------------

    Molecular point group: c1
  Charge       = 0
  Multiplicity = 1
  Basis Set: AUG-CC-PVTZ
    Blend: AUG-CC-PVTZ
  Basis Set: (AUG-CC-PVTZ AUX)
    Blend: AUG-CC-PVTZ-JKFIT

    Orbital Energies [Eh]
    ---------------------

    Doubly Occupied:

       1A    -20.549128     2A    -11.280114     3A    -11.218181
       4A    -11.210471     5A     -1.365031     6A     -1.045188
       7A     -0.939082     8A     -0.800017     9A     -0.701466
      10A     -0.628330    11A     -0.604726    12A     -0.547078
      13A     -0.534849    14A     -0.527157    15A     -0.510765
      16A     -0.474294    17A     -0.438516

  @DF-RHF Final Energy:  -193.19732075506124

   => Energetics <=

    Nuclear Repulsion Energy =            135.1444823523360697
    One-Electron Energy =                -529.9348218481359254
    Two-Electron Energy =                 201.5930187407386143
    Total Energy =                       -193.1973207550612415
  Basis Set: (AUG-CC-PVTZ AUX)
    Blend: AUG-CC-PVTZ-RI
    Molecular point group: c1

    Geometry (in Angstrom), charge = 0, multiplicity = 1:

       Center              X                  Y                   Z               Mass
    ------------   -----------------  -----------------  -----------------  -----------------
         C            0.007471329768    -0.015486946048     0.375130038386    12.000000000000
         C           -1.306108670232    -0.616828946048    -0.084090961614    12.000000000000
         C            1.211396329768    -0.816084946048    -0.100107961614    12.000000000000
         O            0.034556329768     1.313313053952    -0.162763961614    15.994914619570
         H            0.015822329768     0.030279053952     1.475766038386     1.007825032230
         H           -1.430542670232    -1.627983946048     0.313517038386     1.007825032230
         H            1.213872329768    -0.859296946048    -1.192721961614     1.007825032230
         H            2.146622329768    -0.349580946048     0.228645038386     1.007825032230
         H            1.188999329768    -1.836304946048     0.295103038386     1.007825032230
         H            0.823555429768     1.704391053952     0.112615838386     1.007825032230
         H           -1.327162670232    -0.660453946048    -1.176464961614     1.007825032230
         H           -2.140836670232     0.001580053952     0.253338038386     1.007825032230

  Basis Set: AUG-CC-PVTZ
    Blend: AUG-CC-PVTZ
  Basis Set: (AUG-CC-PVTZ AUX)
    Blend: AUG-CC-PVTZ-JKFIT
	 Reference Energy          =    -193.1973207550612415 [Eh]
	 Singles Energy            =      -0.0000000000000000 [Eh]
	 Same-Spin Energy          =      -0.1910959184811402 [Eh]
	 Opposite-Spin Energy      =      -0.6713583733814193 [Eh]
	 Correlation Energy        =      -0.8624542918625595 [Eh]
	 Total Energy              =    -194.0597750469237894 [Eh]

	 ================> DF-SCS-MP2 Energies <==================
	-----------------------------------------------------------
	 SCS Same-Spin Scale       =       0.3333333333333333 [-]
	 SCS Opposite-Spin Scale   =       1.2000000000000000 [-]
	 SCS Same-Spin Energy      =      -0.0636986394937134 [Eh]
	 SCS Opposite-Spin Energy  =      -0.8056300480577032 [Eh]
	 SCS Correlation Energy    =      -0.8693286875514166 [Eh]
	 SCS Total Energy          =    -194.0666494426126576 [Eh]
	-----------------------------------------------------------

  Dipole Moment: [D]
     X:     1.0911      Y:    -0.8532      Z:     0.9129     Total:     1.6589

*** Psi4 exiting successfully. Buy a developer a beer!
