                               Psi4 1.3.2 release

  ==> Input File <==

--------------------------------------------------------------------------
#psi4
#
memory 32 gb

molecule  {
0 1
  C       -0.0008780     0.0364400     0.3700670
  C       -1.3013906    -0.6106202    -0.0634714
  C        1.2035130    -0.7636300    -0.1050350
  O        0.0252140     1.3649880    -0.1680320
  H        0.0073480     0.0821120     1.4707400
  H       -1.4374710    -1.5773920     0.3081530
  H        1.2062590    -0.8068070    -1.1976420
  H        2.1383400    -0.2964470     0.2238190
  H        1.1818030    -1.7838790     0.2901510
  H        0.8552790     1.7789920     0.1244760
  H       -1.3353960    -0.6091480    -1.1813770
  H       -2.1493090     0.0516170     0.2489950
units angstrom
no_reorient  #important for SAPT in psi4, default
symmetry c1  #important for SAPT in psi4, default
}

set PROPERTIES_ORIGIN ["COM"]
properties('MP2/aug-cc-pvtz', properties = ['dipole'])
--------------------------------------------------------------------------

    Molecular point group: c1
  Charge       = 0
  Multiplicity = 1
  Basis Set: AUG-CC-PVTZ
    Blend: AUG-CC-PVTZ
  Basis Set: (AUG-CC-PVTZ AUX)
    Blend: AUG-CC-PVTZ-JKFIT

    Orbital Energies [Eh]
    ---------------------

    Doubly Occupied:

       1A    -20.555401     2A    -11.280025     3A    -11.217268
       4A    -11.211140     5A     -1.353817     6A     -1.043770
       7A     -0.937902     8A     -0.797184     9A     -0.694795
      10A     -0.624164    11A     -0.603409    12A     -0.551306
      13A     -0.541757    14A     -0.526455    15A     -0.503320
      16A     -0.469458    17A     -0.436225

  @DF-RHF Final Energy:  -193.19343079593114

   => Energetics <=

    Nuclear Repulsion Energy =            134.7751842351210030
    One-Electron Energy =                -529.2424391149692156
    Two-Electron Energy =                 201.2738240839170771
    Total Energy =                       -193.1934307959311354
  Basis Set: (AUG-CC-PVTZ AUX)
    Blend: AUG-CC-PVTZ-RI
    Molecular point group: c1

    Geometry (in Angstrom), charge = 0, multiplicity = 1:

       Center              X                  Y                   Z               Mass
    ------------   -----------------  -----------------  -----------------  -----------------
         C            0.004304786595    -0.006742898439     0.369723446727    12.000000000000
         C           -1.296207813405    -0.653803098439    -0.063814953273    12.000000000000
         C            1.208695786595    -0.806812898439    -0.105378553273    12.000000000000
         O            0.030396786595     1.321805101561    -0.168375553273    15.994914619570
         H            0.012530786595     0.038929101561     1.470396446727     1.007825032230
         H           -1.432288213405    -1.620574898439     0.307809446727     1.007825032230
         H            1.211441786595    -0.849989898439    -1.197985553273     1.007825032230
         H            2.143522786595    -0.339629898439     0.223475446727     1.007825032230
         H            1.186985786595    -1.827061898439     0.289807446727     1.007825032230
         H            0.860461786595     1.735809101561     0.124132446727     1.007825032230
         H           -1.330213213405    -0.652330898439    -1.181720553273     1.007825032230
         H           -2.144126213405     0.008434101561     0.248651446727     1.007825032230

  Basis Set: AUG-CC-PVTZ
    Blend: AUG-CC-PVTZ
  Basis Set: (AUG-CC-PVTZ AUX)
    Blend: AUG-CC-PVTZ-JKFIT
	 Reference Energy          =    -193.1934307959311354 [Eh]
	 Singles Energy            =      -0.0000000000000000 [Eh]
	 Same-Spin Energy          =      -0.1917336707152375 [Eh]
	 Opposite-Spin Energy      =      -0.6729903123677652 [Eh]
	 Correlation Energy        =      -0.8647239830830027 [Eh]
	 Total Energy              =    -194.0581547790141315 [Eh]

	 ================> DF-SCS-MP2 Energies <==================
	-----------------------------------------------------------
	 SCS Same-Spin Scale       =       0.3333333333333333 [-]
	 SCS Opposite-Spin Scale   =       1.2000000000000000 [-]
	 SCS Same-Spin Energy      =      -0.0639112235717458 [Eh]
	 SCS Opposite-Spin Energy  =      -0.8075883748413182 [Eh]
	 SCS Correlation Energy    =      -0.8714995984130640 [Eh]
	 SCS Total Energy          =    -194.0649303943442021 [Eh]
	-----------------------------------------------------------

  Dipole Moment: [D]
     X:     1.1110      Y:    -0.8341      Z:     0.9332     Total:     1.6736

*** Psi4 exiting successfully. Buy a developer a beer!
