                               Psi4 1.3.2 release

  ==> Input File <==

--------------------------------------------------------------------------
#psi4
#
memory 32 gb

molecule  {
0 1
  C       -0.0008780     0.0364400     0.3700670
  C       -1.3140620    -0.5659680    -0.0888750
  C        1.2035130    -0.7636300    -0.1050350
  O        0.0229084     1.3014964    -0.3039786
  H        0.0073480     0.0821120     1.4707400
  H       -1.4374710    -1.5773920     0.3081530
  H        1.2062590    -0.8068070    -1.1976420
  H        2.1383400    -0.2964470     0.2238190
  H        1.1818030    -1.7838790     0.2901510
  H        0.8552790     1.7789920     0.1244760
  H       -1.3353960    -0.6091480    -1.1813770
  H       -2.1493090     0.0516170     0.2489950
units angstrom
no_reorient  #important for SAPT in psi4, default
symmetry c1  #important for SAPT in psi4, default
}

set PROPERTIES_ORIGIN ["COM"]
properties('MP2/aug-cc-pvtz', properties = ['dipole'])
--------------------------------------------------------------------------

    Molecular point group: c1
  Charge       = 0
  Multiplicity = 1
  Basis Set: AUG-CC-PVTZ
    Blend: AUG-CC-PVTZ
  Basis Set: (AUG-CC-PVTZ AUX)
    Blend: AUG-CC-PVTZ-JKFIT

    Orbital Energies [Eh]
    ---------------------

    Doubly Occupied:

       1A    -20.563694     2A    -11.279092     3A    -11.215018
       4A    -11.208434     5A     -1.343412     6A     -1.036982
       7A     -0.937296     8A     -0.789849     9A     -0.687863
      10A     -0.619399    11A     -0.602644    12A     -0.544444
      13A     -0.532483    14A     -0.520684    15A     -0.507813
      16A     -0.471412    17A     -0.438327

  @DF-RHF Final Energy:  -193.18299915632247

   => Energetics <=

    Nuclear Repulsion Energy =            135.0357786225868892
    One-Electron Energy =                -529.8398618137451876
    Two-Electron Energy =                 201.6210840348358033
    Total Energy =                       -193.1829991563224667
  Basis Set: (AUG-CC-PVTZ AUX)
    Blend: AUG-CC-PVTZ-RI
    Molecular point group: c1

    Geometry (in Angstrom), charge = 0, multiplicity = 1:

       Center              X                  Y                   Z               Mass
    ------------   -----------------  -----------------  -----------------  -----------------
         C            0.007450682250     0.001244716800     0.411005498855    12.000000000000
         C           -1.305733317750    -0.601163283200    -0.047936501145    12.000000000000
         C            1.211841682250    -0.798825283200    -0.064096501145    12.000000000000
         O            0.031237082250     1.266301116800    -0.263040101145    15.994914619570
         H            0.015676682250     0.046916716800     1.511678498855     1.007825032230
         H           -1.429142317750    -1.612587283200     0.349091498855     1.007825032230
         H            1.214587682250    -0.842002283200    -1.156703501145     1.007825032230
         H            2.146668682250    -0.331642283200     0.264757498855     1.007825032230
         H            1.190131682250    -1.819074283200     0.331089498855     1.007825032230
         H            0.863607682250     1.743796716800     0.165414498855     1.007825032230
         H           -1.327067317750    -0.644343283200    -1.140438501145     1.007825032230
         H           -2.140980317750     0.016421716800     0.289933498855     1.007825032230

  Basis Set: AUG-CC-PVTZ
    Blend: AUG-CC-PVTZ
  Basis Set: (AUG-CC-PVTZ AUX)
    Blend: AUG-CC-PVTZ-JKFIT
	 Reference Energy          =    -193.1829991563224667 [Eh]
	 Singles Energy            =      -0.0000000000000000 [Eh]
	 Same-Spin Energy          =      -0.1930777265030418 [Eh]
	 Opposite-Spin Energy      =      -0.6763314466549037 [Eh]
	 Correlation Energy        =      -0.8694091731579455 [Eh]
	 Total Energy              =    -194.0524083294804143 [Eh]

	 ================> DF-SCS-MP2 Energies <==================
	-----------------------------------------------------------
	 SCS Same-Spin Scale       =       0.3333333333333333 [-]
	 SCS Opposite-Spin Scale   =       1.2000000000000000 [-]
	 SCS Same-Spin Energy      =      -0.0643592421676806 [Eh]
	 SCS Opposite-Spin Energy  =      -0.8115977359858845 [Eh]
	 SCS Correlation Energy    =      -0.8759569781535651 [Eh]
	 SCS Total Energy          =    -194.0589561344760341 [Eh]
	-----------------------------------------------------------

  Dipole Moment: [D]
     X:     1.0427      Y:    -0.6326      Z:     1.1803     Total:     1.6972

*** Psi4 exiting successfully. Buy a developer a beer!
