                               Psi4 1.3.2 release

  ==> Input File <==

--------------------------------------------------------------------------
#psi4
#
memory 32 gb

molecule  {
0 1
  C        0.0435740     0.0451261     0.3913415
  C       -1.3140620    -0.5659680    -0.0888750
  C        1.2035130    -0.7636300    -0.1050350
  O        0.0252140     1.3649880    -0.1680320
  H        0.0073480     0.0821120     1.4707400
  H       -1.4374710    -1.5773920     0.3081530
  H        1.2062590    -0.8068070    -1.1976420
  H        2.1383400    -0.2964470     0.2238190
  H        1.1818030    -1.7838790     0.2901510
  H        0.8552790     1.7789920     0.1244760
  H       -1.3353960    -0.6091480    -1.1813770
  H       -2.1493090     0.0516170     0.2489950
units angstrom
no_reorient  #important for SAPT in psi4, default
symmetry c1  #important for SAPT in psi4, default
}

set PROPERTIES_ORIGIN ["COM"]
properties('MP2/aug-cc-pvtz', properties = ['dipole'])
--------------------------------------------------------------------------

    Molecular point group: c1
  Charge       = 0
  Multiplicity = 1
  Basis Set: AUG-CC-PVTZ
    Blend: AUG-CC-PVTZ
  Basis Set: (AUG-CC-PVTZ AUX)
    Blend: AUG-CC-PVTZ-JKFIT

    Orbital Energies [Eh]
    ---------------------

    Doubly Occupied:

       1A    -20.555809     2A    -11.278677     3A    -11.217798
       4A    -11.210462     5A     -1.355003     6A     -1.040244
       7A     -0.935364     8A     -0.799004     9A     -0.693760
      10A     -0.626997    11A     -0.603953    12A     -0.548046
      13A     -0.532365    14A     -0.525268    15A     -0.511123
      16A     -0.460634    17A     -0.445716

  @DF-RHF Final Energy:  -193.19381718906686

   => Energetics <=

    Nuclear Repulsion Energy =            134.6871151937472746
    One-Electron Energy =                -529.0814178252394413
    Two-Electron Energy =                 201.2004854424253040
    Total Energy =                       -193.1938171890668627
  Basis Set: (AUG-CC-PVTZ AUX)
    Blend: AUG-CC-PVTZ-RI
    Molecular point group: c1

    Geometry (in Angstrom), charge = 0, multiplicity = 1:

       Center              X                  Y                   Z               Mass
    ------------   -----------------  -----------------  -----------------  -----------------
         C            0.042406753617    -0.008714242413     0.391822975870    12.000000000000
         C           -1.315229246383    -0.619808342413    -0.088393524130    12.000000000000
         C            1.202345753617    -0.817470342413    -0.104553524130    12.000000000000
         O            0.024046753617     1.311147657587    -0.167550524130    15.994914619570
         H            0.006180753617     0.028271657587     1.471221475870     1.007825032230
         H           -1.438638246383    -1.631232342413     0.308634475870     1.007825032230
         H            1.205091753617    -0.860647342413    -1.197160524130     1.007825032230
         H            2.137172753617    -0.350287342413     0.224300475870     1.007825032230
         H            1.180635753617    -1.837719342413     0.290632475870     1.007825032230
         H            0.854111753617     1.725151657587     0.124957475870     1.007825032230
         H           -1.336563246383    -0.662988342413    -1.180895524130     1.007825032230
         H           -2.150476246383    -0.002223342413     0.249476475870     1.007825032230

  Basis Set: AUG-CC-PVTZ
    Blend: AUG-CC-PVTZ
  Basis Set: (AUG-CC-PVTZ AUX)
    Blend: AUG-CC-PVTZ-JKFIT
	 Reference Energy          =    -193.1938171890668627 [Eh]
	 Singles Energy            =      -0.0000000000000000 [Eh]
	 Same-Spin Energy          =      -0.1917531477140020 [Eh]
	 Opposite-Spin Energy      =      -0.6732156523168684 [Eh]
	 Correlation Energy        =      -0.8649688000308704 [Eh]
	 Total Energy              =    -194.0587859890977427 [Eh]

	 ================> DF-SCS-MP2 Energies <==================
	-----------------------------------------------------------
	 SCS Same-Spin Scale       =       0.3333333333333333 [-]
	 SCS Opposite-Spin Scale   =       1.2000000000000000 [-]
	 SCS Same-Spin Energy      =      -0.0639177159046673 [Eh]
	 SCS Opposite-Spin Energy  =      -0.8078587827802420 [Eh]
	 SCS Correlation Energy    =      -0.8717764986849094 [Eh]
	 SCS Total Energy          =    -194.0655936877517718 [Eh]
	-----------------------------------------------------------

  Dipole Moment: [D]
     X:     1.1957      Y:    -0.8017      Z:     0.9423     Total:     1.7206

*** Psi4 exiting successfully. Buy a developer a beer!
