                               Psi4 1.3.2 release

  ==> Input File <==

--------------------------------------------------------------------------
#psi4
#
memory 32 gb

molecule  {
0 1
  C       -0.0008780     0.0364400     0.3700670
  C       -1.3140620    -0.5659680    -0.0888750
  C        1.2035130    -0.7636300    -0.1050350
  O        0.0265937     1.3992656    -0.0740308
  H        0.0073480     0.0821120     1.4707400
  H       -1.4374710    -1.5773920     0.3081530
  H        1.2062590    -0.8068070    -1.1976420
  H        2.1383400    -0.2964470     0.2238190
  H        1.1818030    -1.7838790     0.2901510
  H        0.8552790     1.7789920     0.1244760
  H       -1.3353960    -0.6091480    -1.1813770
  H       -2.1493090     0.0516170     0.2489950
units angstrom
no_reorient  #important for SAPT in psi4, default
symmetry c1  #important for SAPT in psi4, default
}

set PROPERTIES_ORIGIN ["COM"]
properties('MP2/aug-cc-pvtz', properties = ['dipole'])
--------------------------------------------------------------------------

    Molecular point group: c1
  Charge       = 0
  Multiplicity = 1
  Basis Set: AUG-CC-PVTZ
    Blend: AUG-CC-PVTZ
  Basis Set: (AUG-CC-PVTZ AUX)
    Blend: AUG-CC-PVTZ-JKFIT

    Orbital Energies [Eh]
    ---------------------

    Doubly Occupied:

       1A    -20.548429     2A    -11.279953     3A    -11.219716
       4A    -11.211606     5A     -1.359929     6A     -1.045544
       7A     -0.939625     8A     -0.802241     9A     -0.694025
      10A     -0.631203    11A     -0.604822    12A     -0.546314
      13A     -0.534827    14A     -0.530153    15A     -0.511295
      16A     -0.473305    17A     -0.434660

  @DF-RHF Final Energy:  -193.19731927494328

   => Energetics <=

    Nuclear Repulsion Energy =            134.7384910156631292
    One-Electron Energy =                -529.1363282122637202
    Two-Electron Energy =                 201.2005179216572799
    Total Energy =                       -193.1973192749432826
  Basis Set: (AUG-CC-PVTZ AUX)
    Blend: AUG-CC-PVTZ-RI
    Molecular point group: c1

    Geometry (in Angstrom), charge = 0, multiplicity = 1:

       Center              X                  Y                   Z               Mass
    ------------   -----------------  -----------------  -----------------  -----------------
         C            0.006469188777    -0.024793823250     0.349764279742    12.000000000000
         C           -1.306714811223    -0.627201823250    -0.109177720257    12.000000000000
         C            1.210860188777    -0.824863823250    -0.125337720258    12.000000000000
         O            0.033940888777     1.338031776750    -0.094333520257    15.994914619570
         H            0.014695188777     0.020878176750     1.450437279743     1.007825032230
         H           -1.430123811223    -1.638625823250     0.287850279742     1.007825032230
         H            1.213606188777    -0.868040823250    -1.217944720258     1.007825032230
         H            2.145687188777    -0.357680823250     0.203516279743     1.007825032230
         H            1.189150188777    -1.845112823250     0.269848279742     1.007825032230
         H            0.862626188777     1.717758176750     0.104173279742     1.007825032230
         H           -1.328048811223    -0.670381823250    -1.201679720257     1.007825032230
         H           -2.141961811223    -0.009616823250     0.228692279743     1.007825032230

  Basis Set: AUG-CC-PVTZ
    Blend: AUG-CC-PVTZ
  Basis Set: (AUG-CC-PVTZ AUX)
    Blend: AUG-CC-PVTZ-JKFIT
	 Reference Energy          =    -193.1973192749432826 [Eh]
	 Singles Energy            =      -0.0000000000000000 [Eh]
	 Same-Spin Energy          =      -0.1910512335087652 [Eh]
	 Opposite-Spin Energy      =      -0.6713726413658935 [Eh]
	 Correlation Energy        =      -0.8624238748746587 [Eh]
	 Total Energy              =    -194.0597431498179333 [Eh]

	 ================> DF-SCS-MP2 Energies <==================
	-----------------------------------------------------------
	 SCS Same-Spin Scale       =       0.3333333333333333 [-]
	 SCS Opposite-Spin Scale   =       1.2000000000000000 [-]
	 SCS Same-Spin Energy      =      -0.0636837445029217 [Eh]
	 SCS Opposite-Spin Energy  =      -0.8056471696390721 [Eh]
	 SCS Correlation Energy    =      -0.8693309141419938 [Eh]
	 SCS Total Energy          =    -194.0666501890852658 [Eh]
	-----------------------------------------------------------

  Dipole Moment: [D]
     X:     1.1537      Y:    -0.9457      Z:     0.7240     Total:     1.6582

*** Psi4 exiting successfully. Buy a developer a beer!
