                               Psi4 1.4a3.dev225

  ==> Input File <==

--------------------------------------------------------------------------
#psi4
#
memory 32 gb

molecule  {
0 1
  C       -0.0009430     0.0362800     0.3701830
  C       -1.3145230    -0.5650620    -0.0890380
  C        1.2029820    -0.7643180    -0.1050550
  O        0.0261420     1.3650800    -0.1677110
  H        0.0074080     0.0820460     1.4708190
  H       -1.4389570    -1.5762170     0.3085700
  H        1.2054580    -0.8075300    -1.1976690
  H        2.1382080    -0.2978140     0.2236980
  H        1.1805850    -1.7845380     0.2901560
  H        0.9006549     1.7985440     0.1375152
  H       -1.3355770    -0.6086870    -1.1814120
  H       -2.1492510     0.0533470     0.2483910
units angstrom
no_reorient  #important for SAPT in psi4, default
symmetry c1  #important for SAPT in psi4, default
}

set PROPERTIES_ORIGIN ["COM"]
properties('MP2/aug-cc-pvtz', properties = ['dipole'])
--------------------------------------------------------------------------

    Molecular point group: c1
  Charge       = 0
  Multiplicity = 1
  Basis Set: AUG-CC-PVTZ
    Blend: AUG-CC-PVTZ
  Basis Set: (AUG-CC-PVTZ AUX)
    Blend: AUG-CC-PVTZ-JKFIT

    Orbital Energies [Eh]
    ---------------------

    Doubly Occupied:

       1A    -20.558523     2A    -11.279181     3A    -11.217514
       4A    -11.210332     5A     -1.343476     6A     -1.040045
       7A     -0.938346     8A     -0.793345     9A     -0.685487
      10A     -0.624516    11A     -0.603422    12A     -0.544635
      13A     -0.532565    14A     -0.525446    15A     -0.509247
      16A     -0.471255    17A     -0.436412

  @DF-RHF Final Energy:  -193.19150539044887

   => Energetics <=

    Nuclear Repulsion Energy =            134.5744010819952905
    One-Electron Energy =                -528.9043158501464177
    Two-Electron Energy =                 201.1384093777022599
    Total Energy =                       -193.1915053904488673
  Basis Set: (AUG-CC-PVTZ AUX)
    Blend: AUG-CC-PVTZ-RI
    Molecular point group: c1

    Geometry (in Angstrom), charge = 0, multiplicity = 1:

       Center              X                  Y                   Z               Mass
    ------------   -----------------  -----------------  -----------------  -----------------
         C            0.006036322868    -0.016198225425     0.374629186010    12.000000000000
         C           -1.307543677132    -0.617540225425    -0.084591813990    12.000000000000
         C            1.209961322868    -0.816796225425    -0.100608813990    12.000000000000
         O            0.033121322868     1.312601774575    -0.163264813990    15.994914619570
         H            0.014387322868     0.029567774575     1.475265186010     1.007825032230
         H           -1.431977677132    -1.628695225425     0.313016186010     1.007825032230
         H            1.212437322868    -0.860008225425    -1.193222813990     1.007825032230
         H            2.145187322868    -0.350292225425     0.228144186010     1.007825032230
         H            1.187564322868    -1.837016225425     0.294602186010     1.007825032230
         H            0.907634222868     1.746065774575     0.141961386010     1.007825032230
         H           -1.328597677132    -0.661165225425    -1.176965813990     1.007825032230
         H           -2.142271677132     0.000868774575     0.252837186010     1.007825032230

  Basis Set: AUG-CC-PVTZ
    Blend: AUG-CC-PVTZ
  Basis Set: (AUG-CC-PVTZ AUX)
    Blend: AUG-CC-PVTZ-JKFIT
	 Reference Energy          =    -193.1915053904488673 [Eh]
	 Singles Energy            =      -0.0000000000000000 [Eh]
	 Same-Spin Energy          =      -0.1922667820438521 [Eh]
	 Opposite-Spin Energy      =      -0.6744809238695522 [Eh]
	 Correlation Energy        =      -0.8667477059134042 [Eh]
	 Total Energy              =    -194.0582530963622787 [Eh]

	 ================> DF-SCS-MP2 Energies <==================
	-----------------------------------------------------------
	 SCS Same-Spin Scale       =       0.3333333333333333 [-]
	 SCS Opposite-Spin Scale   =       1.2000000000000000 [-]
	 SCS Same-Spin Energy      =      -0.0640889273479507 [Eh]
	 SCS Opposite-Spin Energy  =      -0.8093771086434626 [Eh]
	 SCS Correlation Energy    =      -0.8734660359914133 [Eh]
	 SCS Total Energy          =    -194.0649714264402803 [Eh]
	-----------------------------------------------------------

  Dipole Moment: [D]
     X:     1.1348      Y:    -0.8096      Z:     0.9262     Total:     1.6737

*** Psi4 exiting successfully. Buy a developer a beer!
