                               Psi4 1.3.2 release

  ==> Input File <==

--------------------------------------------------------------------------
#psi4
#
memory 32 gb

molecule  {
0 1
  C       -0.0000730    -0.0001100    -0.3769120
  C       -0.0083416     1.3568026     0.0653639
  C        1.2621130    -0.7181570     0.0963290
  C       -1.2531000    -0.7336160     0.0963310
  H        0.0001270     0.0001580    -1.4755210
  H       -0.0092500     1.4957160     1.1912990
  H        0.8735630     1.9915400    -0.2617730
  H       -0.8981180     1.9803230    -0.2618970
  H        1.3008650    -0.7388270     1.1912450
  H        2.1645300    -0.2131340    -0.2626890
  H        1.2876640    -1.7526070    -0.2608010
  H       -1.2910520    -0.7567680     1.1912960
  H       -1.2667340    -1.7676670    -0.2625410
  H       -2.1617050    -0.2387050    -0.2612260
units angstrom
no_reorient  #important for SAPT in psi4, default
symmetry c1  #important for SAPT in psi4, default
}

set PROPERTIES_ORIGIN ["COM"]
properties('MP2/aug-cc-pvtz', properties = ['dipole'])
--------------------------------------------------------------------------

    Molecular point group: c1
  Charge       = 0
  Multiplicity = 1
  Basis Set: AUG-CC-PVTZ
    Blend: AUG-CC-PVTZ
  Basis Set: (AUG-CC-PVTZ AUX)
    Blend: AUG-CC-PVTZ-JKFIT

    Orbital Energies [Eh]
    ---------------------

    Doubly Occupied:

       1A    -11.218155     2A    -11.214749     3A    -11.209113
       4A    -11.209081     5A     -1.096049     6A     -0.926909
       7A     -0.923879     8A     -0.765939     9A     -0.636920
      10A     -0.595263    11A     -0.588799    12A     -0.532266
      13A     -0.521722    14A     -0.500971    15A     -0.483572
      16A     -0.451919    17A     -0.449604

  @DF-RHF Final Energy:  -157.34477714313564

   => Energetics <=

    Nuclear Repulsion Energy =            136.0405504164341437
    One-Electron Energy =                -480.1208344756954602
    Two-Electron Energy =                 186.7355069161256722
    Total Energy =                       -157.3447771431356443
  Basis Set: (AUG-CC-PVTZ AUX)
    Blend: AUG-CC-PVTZ-RI
    Molecular point group: c1

    Geometry (in Angstrom), charge = 0, multiplicity = 1:

       Center              X                  Y                   Z               Mass
    ------------   -----------------  -----------------  -----------------  -----------------
         C           -0.000194731271     0.019534799331    -0.361499374178    12.000000000000
         C           -0.008463331271     1.376447399331     0.080776525822    12.000000000000
         C            1.261991268729    -0.698512200669     0.111741625822    12.000000000000
         C           -1.253221731271    -0.713971200669     0.111743625822    12.000000000000
         H            0.000005268729     0.019802799331    -1.460108374178     1.007825032230
         H           -0.009371731271     1.515360799331     1.206711625822     1.007825032230
         H            0.873441268729     2.011184799331    -0.246360374178     1.007825032230
         H           -0.898239731271     1.999967799331    -0.246484374178     1.007825032230
         H            1.300743268729    -0.719182200669     1.206657625822     1.007825032230
         H            2.164408268729    -0.193489200669    -0.247276374178     1.007825032230
         H            1.287542268729    -1.732962200669    -0.245388374178     1.007825032230
         H           -1.291173731271    -0.737123200669     1.206708625822     1.007825032230
         H           -1.266855731271    -1.748022200669    -0.247128374178     1.007825032230
         H           -2.161826731271    -0.219060200669    -0.245813374178     1.007825032230

  Basis Set: AUG-CC-PVTZ
    Blend: AUG-CC-PVTZ
  Basis Set: (AUG-CC-PVTZ AUX)
    Blend: AUG-CC-PVTZ-JKFIT
	 Reference Energy          =    -157.3447771431356443 [Eh]
	 Singles Energy            =      -0.0000000000000000 [Eh]
	 Same-Spin Energy          =      -0.1675383207326975 [Eh]
	 Opposite-Spin Energy      =      -0.6421420652739676 [Eh]
	 Correlation Energy        =      -0.8096803860066650 [Eh]
	 Total Energy              =    -158.1544575291423200 [Eh]

	 ================> DF-SCS-MP2 Energies <==================
	-----------------------------------------------------------
	 SCS Same-Spin Scale       =       0.3333333333333333 [-]
	 SCS Opposite-Spin Scale   =       1.2000000000000000 [-]
	 SCS Same-Spin Energy      =      -0.0558461069108992 [Eh]
	 SCS Opposite-Spin Energy  =      -0.7705704783287610 [Eh]
	 SCS Correlation Energy    =      -0.8264165852396602 [Eh]
	 SCS Total Energy          =    -158.1711937283753002 [Eh]
	-----------------------------------------------------------

  Dipole Moment: [D]
     X:    -0.0000      Y:    -0.0145      Z:    -0.1438     Total:     0.1445

*** Psi4 exiting successfully. Buy a developer a beer!
