                               Psi4 1.4a3.dev225

  ==> Input File <==

--------------------------------------------------------------------------
#psi4
#
memory 32 gb

molecule  {
0 1
  C       -0.0000280    -0.0000010    -0.3767930
  C        0.2513640     1.4301660     0.0962860
  C        1.1128890    -0.9327640     0.0962290
  C       -1.3642330    -0.4974010     0.0964060
  H       -0.0001026    -0.0000030    -1.4553930
  H        0.2590560     1.4736460     1.1912410
  H        1.2162880     1.8028580    -0.2619280
  H       -0.5286700     2.1095640    -0.2618470
  H        1.1468010    -0.9611080     1.1911810
  H        2.0912440    -0.5969440    -0.2620190
  H        0.9531640    -1.9547810    -0.2619140
  H       -1.4056140    -0.5125330     1.1913650
  H       -1.5626250    -1.5126120    -0.2617590
  H       -2.1694990     0.1519130    -0.2616900
units angstrom
no_reorient  #important for SAPT in psi4, default
symmetry c1  #important for SAPT in psi4, default
}

set PROPERTIES_ORIGIN ["COM"]
properties('MP2/aug-cc-pvtz', properties = ['dipole'])
--------------------------------------------------------------------------

    Molecular point group: c1
  Charge       = 0
  Multiplicity = 1
  Basis Set: AUG-CC-PVTZ
    Blend: AUG-CC-PVTZ
  Basis Set: (AUG-CC-PVTZ AUX)
    Blend: AUG-CC-PVTZ-JKFIT

    Orbital Energies [Eh]
    ---------------------

    Doubly Occupied:

       1A    -11.220257     2A    -11.208206     3A    -11.208206
       4A    -11.208167     5A     -1.081176     6A     -0.924928
       7A     -0.924928     8A     -0.767240     9A     -0.631311
      10A     -0.588629    11A     -0.588629    12A     -0.531699
      13A     -0.531699    14A     -0.508455    15A     -0.461310
      16A     -0.461310    17A     -0.460168

  @DF-RHF Final Energy:  -157.35651593202661

   => Energetics <=

    Nuclear Repulsion Energy =            134.8361328155468755
    One-Electron Energy =                -477.7726574908478483
    Two-Electron Energy =                 185.5800087432743624
    Total Energy =                       -157.3565159320266105
  Basis Set: (AUG-CC-PVTZ AUX)
    Blend: AUG-CC-PVTZ-RI
    Molecular point group: c1

    Geometry (in Angstrom), charge = 0, multiplicity = 1:

       Center              X                  Y                   Z               Mass
    ------------   -----------------  -----------------  -----------------  -----------------
         C           -0.000027082820    -0.000001000000    -0.368133220305    12.000000000000
         C            0.251364917180     1.430166000000     0.104945779695    12.000000000000
         C            1.112889917180    -0.932764000000     0.104888779695    12.000000000000
         C           -1.364232082820    -0.497401000000     0.105065779695    12.000000000000
         H           -0.000101682820    -0.000003000000    -1.446733220305     1.007825032230
         H            0.259056917180     1.473646000000     1.199900779695     1.007825032230
         H            1.216288917180     1.802858000000    -0.253268220305     1.007825032230
         H           -0.528669082820     2.109564000000    -0.253187220305     1.007825032230
         H            1.146801917180    -0.961108000000     1.199840779695     1.007825032230
         H            2.091244917180    -0.596944000000    -0.253359220305     1.007825032230
         H            0.953164917180    -1.954781000000    -0.253254220305     1.007825032230
         H           -1.405613082820    -0.512533000000     1.200024779695     1.007825032230
         H           -1.562624082820    -1.512612000000    -0.253099220305     1.007825032230
         H           -2.169498082820     0.151913000000    -0.253030220305     1.007825032230

  Basis Set: AUG-CC-PVTZ
    Blend: AUG-CC-PVTZ
  Basis Set: (AUG-CC-PVTZ AUX)
    Blend: AUG-CC-PVTZ-JKFIT
	 Reference Energy          =    -157.3565159320266105 [Eh]
	 Singles Energy            =      -0.0000000000000000 [Eh]
	 Same-Spin Energy          =      -0.1664557366188332 [Eh]
	 Opposite-Spin Energy      =      -0.6407477802567514 [Eh]
	 Correlation Energy        =      -0.8072035168755846 [Eh]
	 Total Energy              =    -158.1637194489021851 [Eh]

	 ================> DF-SCS-MP2 Energies <==================
	-----------------------------------------------------------
	 SCS Same-Spin Scale       =       0.3333333333333333 [-]
	 SCS Opposite-Spin Scale   =       1.2000000000000000 [-]
	 SCS Same-Spin Energy      =      -0.0554852455396111 [Eh]
	 SCS Opposite-Spin Energy  =      -0.7688973363081016 [Eh]
	 SCS Correlation Energy    =      -0.8243825818477127 [Eh]
	 SCS Total Energy          =    -158.1808985138743253 [Eh]
	-----------------------------------------------------------

  Dipole Moment: [D]
     X:    -0.0000      Y:    -0.0000      Z:    -0.1538     Total:     0.1538

*** Psi4 exiting successfully. Buy a developer a beer!
