                               Psi4 1.4a3.dev225

  ==> Input File <==

--------------------------------------------------------------------------
#psi4
#
memory 32 gb

molecule  {
0 1
  C       -0.0000280    -0.0000010    -0.3767930
  C        0.2513640     1.4301660     0.0962860
  C        1.1128890    -0.9327640     0.0962290
  C       -1.3642330    -0.4974010     0.0964060
  H       -0.0001040    -0.0000030    -1.4753930
  H        0.2587050     1.4716621     1.1412816
  H        1.2162880     1.8028580    -0.2619280
  H       -0.5286700     2.1095640    -0.2618470
  H        1.1468010    -0.9611080     1.1911810
  H        2.0912440    -0.5969440    -0.2620190
  H        0.9531640    -1.9547810    -0.2619140
  H       -1.4056140    -0.5125330     1.1913650
  H       -1.5626250    -1.5126120    -0.2617590
  H       -2.1694990     0.1519130    -0.2616900
units angstrom
no_reorient  #important for SAPT in psi4, default
symmetry c1  #important for SAPT in psi4, default
}

set PROPERTIES_ORIGIN ["COM"]
properties('MP2/aug-cc-pvtz', properties = ['dipole'])
--------------------------------------------------------------------------

    Molecular point group: c1
  Charge       = 0
  Multiplicity = 1
  Basis Set: AUG-CC-PVTZ
    Blend: AUG-CC-PVTZ
  Basis Set: (AUG-CC-PVTZ AUX)
    Blend: AUG-CC-PVTZ-JKFIT

    Orbital Energies [Eh]
    ---------------------

    Doubly Occupied:

       1A    -11.222241     2A    -11.208342     3A    -11.208318
       4A    -11.202037     5A     -1.081116     6A     -0.928958
       7A     -0.925014     8A     -0.766216     9A     -0.631161
      10A     -0.589504    11A     -0.588274    12A     -0.539278
      13A     -0.531804    14A     -0.508207    15A     -0.461275
      16A     -0.461003    17A     -0.458752

  @DF-RHF Final Energy:  -157.35545615430090

   => Energetics <=

    Nuclear Repulsion Energy =            134.9462028448878357
    One-Electron Energy =                -477.9803155550479801
    Two-Electron Energy =                 185.6786565558592201
    Total Energy =                       -157.3554561543008958
  Basis Set: (AUG-CC-PVTZ AUX)
    Blend: AUG-CC-PVTZ-RI
    Molecular point group: c1

    Geometry (in Angstrom), charge = 0, multiplicity = 1:

       Center              X                  Y                   Z               Mass
    ------------   -----------------  -----------------  -----------------  -----------------
         C           -0.000020967664     0.000033426383    -0.366919223083    12.000000000000
         C            0.251371032336     1.430200426383     0.106159776917    12.000000000000
         C            1.112896032336    -0.932729573617     0.106102776917    12.000000000000
         C           -1.364225967664    -0.497366573617     0.106279776917    12.000000000000
         H           -0.000096967664     0.000031426383    -1.465519223083     1.007825032230
         H            0.258712032336     1.471696526383     1.151155376917     1.007825032230
         H            1.216295032336     1.802892426383    -0.252054223083     1.007825032230
         H           -0.528662967664     2.109598426383    -0.251973223083     1.007825032230
         H            1.146808032336    -0.961073573617     1.201054776917     1.007825032230
         H            2.091251032336    -0.596909573617    -0.252145223083     1.007825032230
         H            0.953171032336    -1.954746573617    -0.252040223083     1.007825032230
         H           -1.405606967664    -0.512498573617     1.201238776917     1.007825032230
         H           -1.562617967664    -1.512577573617    -0.251885223083     1.007825032230
         H           -2.169491967664     0.151947426383    -0.251816223083     1.007825032230

  Basis Set: AUG-CC-PVTZ
    Blend: AUG-CC-PVTZ
  Basis Set: (AUG-CC-PVTZ AUX)
    Blend: AUG-CC-PVTZ-JKFIT
	 Reference Energy          =    -157.3554561543008958 [Eh]
	 Singles Energy            =      -0.0000000000000000 [Eh]
	 Same-Spin Energy          =      -0.1664638000520078 [Eh]
	 Opposite-Spin Energy      =      -0.6406026989247373 [Eh]
	 Correlation Energy        =      -0.8070664989767451 [Eh]
	 Total Energy              =    -158.1625226532776480 [Eh]

	 ================> DF-SCS-MP2 Energies <==================
	-----------------------------------------------------------
	 SCS Same-Spin Scale       =       0.3333333333333333 [-]
	 SCS Opposite-Spin Scale   =       1.2000000000000000 [-]
	 SCS Same-Spin Energy      =      -0.0554879333506693 [Eh]
	 SCS Opposite-Spin Energy  =      -0.7687232387096847 [Eh]
	 SCS Correlation Energy    =      -0.8242111720603540 [Eh]
	 SCS Total Energy          =    -158.1796673263612547 [Eh]
	-----------------------------------------------------------

  Dipole Moment: [D]
     X:     0.0015      Y:     0.0085      Z:    -0.1066     Total:     0.1070

*** Psi4 exiting successfully. Buy a developer a beer!
