                               Psi4 1.4a3.dev225

  ==> Input File <==

--------------------------------------------------------------------------
#psi4
#
memory 32 gb

molecule  {
0 1
  C       -0.0000280    -0.0000010    -0.3767930
  C        0.2546562     1.4488951     0.1024813
  C        1.1128890    -0.9327640     0.0962290
  C       -1.3642330    -0.4974010     0.0964060
  H       -0.0001040    -0.0000030    -1.4753930
  H        0.2590560     1.4736460     1.1912410
  H        1.2162880     1.8028580    -0.2619280
  H       -0.5286700     2.1095640    -0.2618470
  H        1.1468010    -0.9611080     1.1911810
  H        2.0912440    -0.5969440    -0.2620190
  H        0.9531640    -1.9547810    -0.2619140
  H       -1.4056140    -0.5125330     1.1913650
  H       -1.5626250    -1.5126120    -0.2617590
  H       -2.1694990     0.1519130    -0.2616900
units angstrom
no_reorient  #important for SAPT in psi4, default
symmetry c1  #important for SAPT in psi4, default
}

set PROPERTIES_ORIGIN ["COM"]
properties('MP2/aug-cc-pvtz', properties = ['dipole'])
--------------------------------------------------------------------------

    Molecular point group: c1
  Charge       = 0
  Multiplicity = 1
  Basis Set: AUG-CC-PVTZ
    Blend: AUG-CC-PVTZ
  Basis Set: (AUG-CC-PVTZ AUX)
    Blend: AUG-CC-PVTZ-JKFIT

    Orbital Energies [Eh]
    ---------------------

    Doubly Occupied:

       1A    -11.223738     2A    -11.208373     3A    -11.208351
       4A    -11.207456     5A     -1.078028     6A     -0.925536
       7A     -0.924846     8A     -0.764088     9A     -0.629601
      10A     -0.589221    11A     -0.587677    12A     -0.534361
      13A     -0.531858    14A     -0.510380    15A     -0.462766
      16A     -0.459889    17A     -0.455476

  @DF-RHF Final Energy:  -157.35634146146305

   => Energetics <=

    Nuclear Repulsion Energy =            134.4976618005139812
    One-Electron Energy =                -477.1047153931826301
    Two-Electron Energy =                 185.2507121312056029
    Total Energy =                       -157.3563414614630460
  Basis Set: (AUG-CC-PVTZ AUX)
    Blend: AUG-CC-PVTZ-RI
    Molecular point group: c1

    Geometry (in Angstrom), charge = 0, multiplicity = 1:

       Center              X                  Y                   Z               Mass
    ------------   -----------------  -----------------  -----------------  -----------------
         C           -0.000707285629    -0.003870765338    -0.369066221886    12.000000000000
         C            0.253976914371     1.445025334662     0.110208078114    12.000000000000
         C            1.112209714371    -0.936633765338     0.103955778114    12.000000000000
         C           -1.364912285629    -0.501270765338     0.104132778114    12.000000000000
         H           -0.000783285629    -0.003872765338    -1.467666221886     1.007825032230
         H            0.258376714371     1.469776234662     1.198967778114     1.007825032230
         H            1.215608714371     1.798988234662    -0.254201221886     1.007825032230
         H           -0.529349285629     2.105694234662    -0.254120221886     1.007825032230
         H            1.146121714371    -0.964977765338     1.198907778114     1.007825032230
         H            2.090564714371    -0.600813765338    -0.254292221886     1.007825032230
         H            0.952484714371    -1.958650765338    -0.254187221886     1.007825032230
         H           -1.406293285629    -0.516402765338     1.199091778114     1.007825032230
         H           -1.563304285629    -1.516481765338    -0.254032221886     1.007825032230
         H           -2.170178285629     0.148043234662    -0.253963221886     1.007825032230

  Basis Set: AUG-CC-PVTZ
    Blend: AUG-CC-PVTZ
  Basis Set: (AUG-CC-PVTZ AUX)
    Blend: AUG-CC-PVTZ-JKFIT
	 Reference Energy          =    -157.3563414614630460 [Eh]
	 Singles Energy            =      -0.0000000000000000 [Eh]
	 Same-Spin Energy          =      -0.1663283962974952 [Eh]
	 Opposite-Spin Energy      =      -0.6407663488221601 [Eh]
	 Correlation Energy        =      -0.8070947451196553 [Eh]
	 Total Energy              =    -158.1634362065827020 [Eh]

	 ================> DF-SCS-MP2 Energies <==================
	-----------------------------------------------------------
	 SCS Same-Spin Scale       =       0.3333333333333333 [-]
	 SCS Opposite-Spin Scale   =       1.2000000000000000 [-]
	 SCS Same-Spin Energy      =      -0.0554427987658317 [Eh]
	 SCS Opposite-Spin Energy  =      -0.7689196185865921 [Eh]
	 SCS Correlation Energy    =      -0.8243624173524238 [Eh]
	 SCS Total Energy          =    -158.1807038788154784 [Eh]
	-----------------------------------------------------------

  Dipole Moment: [D]
     X:    -0.0005      Y:    -0.0027      Z:    -0.1379     Total:     0.1379

*** Psi4 exiting successfully. Buy a developer a beer!
