                               Psi4 1.3.2 release

  ==> Input File <==

--------------------------------------------------------------------------
#psi4
#
memory 32 gb

molecule  {
0 1
  C       -0.0000730    -0.0001100    -0.3769120
  C       -0.0089210     1.4518780     0.0963530
  C        1.2691038    -0.7221242     0.0709136
  C       -1.2531000    -0.7336160     0.0963310
  H        0.0001270     0.0001580    -1.4755210
  H       -0.0092500     1.4957160     1.1912990
  H        0.8735630     1.9915400    -0.2617730
  H       -0.8981180     1.9803230    -0.2618970
  H        1.3008650    -0.7388270     1.1912450
  H        2.1645300    -0.2131340    -0.2626890
  H        1.2876640    -1.7526070    -0.2608010
  H       -1.2910520    -0.7567680     1.1912960
  H       -1.2667340    -1.7676670    -0.2625410
  H       -2.1617050    -0.2387050    -0.2612260
units angstrom
no_reorient  #important for SAPT in psi4, default
symmetry c1  #important for SAPT in psi4, default
}

set PROPERTIES_ORIGIN ["COM"]
properties('MP2/aug-cc-pvtz', properties = ['dipole'])
--------------------------------------------------------------------------

    Molecular point group: c1
  Charge       = 0
  Multiplicity = 1
  Basis Set: AUG-CC-PVTZ
    Blend: AUG-CC-PVTZ
  Basis Set: (AUG-CC-PVTZ AUX)
    Blend: AUG-CC-PVTZ-JKFIT

    Orbital Energies [Eh]
    ---------------------

    Doubly Occupied:

       1A    -11.222911     2A    -11.208659     3A    -11.208646
       4A    -11.208610     5A     -1.080339     6A     -0.925681
       7A     -0.925183     8A     -0.764134     9A     -0.630002
      10A     -0.592222    11A     -0.588809    12A     -0.531956
      13A     -0.526035    14A     -0.511588    15A     -0.463776
      16A     -0.463018    17A     -0.454166

  @DF-RHF Final Energy:  -157.35576217325129

   => Energetics <=

    Nuclear Repulsion Energy =            134.6944063394930708
    One-Electron Energy =                -477.4888686945632230
    Two-Electron Energy =                 185.4387001818188594
    Total Energy =                       -157.3557621732512928
  Basis Set: (AUG-CC-PVTZ AUX)
    Blend: AUG-CC-PVTZ-RI
    Molecular point group: c1

    Geometry (in Angstrom), charge = 0, multiplicity = 1:

       Center              X                  Y                   Z               Mass
    ------------   -----------------  -----------------  -----------------  -----------------
         C           -0.001519440600     0.000710223970    -0.362650999780    12.000000000000
         C           -0.010367440600     1.452698223970     0.110614000220    12.000000000000
         C            1.267657359400    -0.721303976030     0.085174600220    12.000000000000
         C           -1.254546440600    -0.732795776030     0.110592000220    12.000000000000
         H           -0.001319440600     0.000978223970    -1.461259999780     1.007825032230
         H           -0.010696440600     1.496536223970     1.205560000220     1.007825032230
         H            0.872116559400     1.992360223970    -0.247511999780     1.007825032230
         H           -0.899564440600     1.981143223970    -0.247635999780     1.007825032230
         H            1.299418559400    -0.738006776030     1.205506000220     1.007825032230
         H            2.163083559400    -0.212313776030    -0.248427999780     1.007825032230
         H            1.286217559400    -1.751786776030    -0.246539999780     1.007825032230
         H           -1.292498440600    -0.755947776030     1.205557000220     1.007825032230
         H           -1.268180440600    -1.766846776030    -0.248279999780     1.007825032230
         H           -2.163151440600    -0.237884776030    -0.246964999780     1.007825032230

  Basis Set: AUG-CC-PVTZ
    Blend: AUG-CC-PVTZ
  Basis Set: (AUG-CC-PVTZ AUX)
    Blend: AUG-CC-PVTZ-JKFIT
	 Reference Energy          =    -157.3557621732512928 [Eh]
	 Singles Energy            =      -0.0000000000000000 [Eh]
	 Same-Spin Energy          =      -0.1664576454129147 [Eh]
	 Opposite-Spin Energy      =      -0.6408738062520316 [Eh]
	 Correlation Energy        =      -0.8073314516649462 [Eh]
	 Total Energy              =    -158.1630936249162289 [Eh]

	 ================> DF-SCS-MP2 Energies <==================
	-----------------------------------------------------------
	 SCS Same-Spin Scale       =       0.3333333333333333 [-]
	 SCS Opposite-Spin Scale   =       1.2000000000000000 [-]
	 SCS Same-Spin Energy      =      -0.0554858818043049 [Eh]
	 SCS Opposite-Spin Energy  =      -0.7690485675024379 [Eh]
	 SCS Correlation Energy    =      -0.8245344493067428 [Eh]
	 SCS Total Energy          =    -158.1802966225580462 [Eh]
	-----------------------------------------------------------

  Dipole Moment: [D]
     X:    -0.0007      Y:     0.0001      Z:    -0.1515     Total:     0.1515

*** Psi4 exiting successfully. Buy a developer a beer!
