                               Psi4 1.3.2 release

  ==> Input File <==

--------------------------------------------------------------------------
#psi4
#
memory 32 gb

molecule  {
0 1
  C       -0.0000730    -0.0001100    -0.3769120
  C       -0.0089210     1.4518780     0.0963530
  C        1.2621130    -0.7181570     0.0963290
  C       -1.2531000    -0.7336160     0.0963310
  H        0.0001270     0.0001580    -1.4755210
  H       -0.0092800     1.4997165     1.2912189
  H        0.8735630     1.9915400    -0.2617730
  H       -0.8981180     1.9803230    -0.2618970
  H        1.3008650    -0.7388270     1.1912450
  H        2.1645300    -0.2131340    -0.2626890
  H        1.2876640    -1.7526070    -0.2608010
  H       -1.2910520    -0.7567680     1.1912960
  H       -1.2667340    -1.7676670    -0.2625410
  H       -2.1617050    -0.2387050    -0.2612260
units angstrom
no_reorient  #important for SAPT in psi4, default
symmetry c1  #important for SAPT in psi4, default
}

set PROPERTIES_ORIGIN ["COM"]
properties('MP2/aug-cc-pvtz', properties = ['dipole'])
--------------------------------------------------------------------------

    Molecular point group: c1
  Charge       = 0
  Multiplicity = 1
  Basis Set: AUG-CC-PVTZ
    Blend: AUG-CC-PVTZ
  Basis Set: (AUG-CC-PVTZ AUX)
    Blend: AUG-CC-PVTZ-JKFIT

    Orbital Energies [Eh]
    ---------------------

    Doubly Occupied:

       1A    -11.224337     2A    -11.220691     3A    -11.208678
       4A    -11.208655     5A     -1.079976     6A     -0.925394
       7A     -0.919492     8A     -0.761750     9A     -0.629707
      10A     -0.590111    11A     -0.588077    12A     -0.531975
      13A     -0.517032    14A     -0.509504    15A     -0.462964
      16A     -0.462368    17A     -0.454784

  @DF-RHF Final Energy:  -157.35019751290659

   => Energetics <=

    Nuclear Repulsion Energy =            134.3778477076163256
    One-Electron Energy =                -476.8651033531917278
    Two-Electron Energy =                 185.1370581326687841
    Total Energy =                       -157.3501975129065897
  Basis Set: (AUG-CC-PVTZ AUX)
    Blend: AUG-CC-PVTZ-RI
    Molecular point group: c1

    Geometry (in Angstrom), charge = 0, multiplicity = 1:

       Center              X                  Y                   Z               Mass
    ------------   -----------------  -----------------  -----------------  -----------------
         C           -0.000074496335    -0.000178890350    -0.369636171926    12.000000000000
         C           -0.008922496335     1.451809109650     0.103628828074    12.000000000000
         C            1.262111503665    -0.718225890350     0.103604828074    12.000000000000
         C           -1.253101496335    -0.733684890350     0.103606828074    12.000000000000
         H            0.000125503665     0.000089109650    -1.468245171926     1.007825032230
         H           -0.009281496335     1.499647609650     1.298494728074     1.007825032230
         H            0.873561503665     1.991471109650    -0.254497171926     1.007825032230
         H           -0.898119496335     1.980254109650    -0.254621171926     1.007825032230
         H            1.300863503665    -0.738895890350     1.198520828074     1.007825032230
         H            2.164528503665    -0.213202890350    -0.255413171926     1.007825032230
         H            1.287662503665    -1.752675890350    -0.253525171926     1.007825032230
         H           -1.291053496335    -0.756836890350     1.198571828074     1.007825032230
         H           -1.266735496335    -1.767735890350    -0.255265171926     1.007825032230
         H           -2.161706496335    -0.238773890350    -0.253950171926     1.007825032230

  Basis Set: AUG-CC-PVTZ
    Blend: AUG-CC-PVTZ
  Basis Set: (AUG-CC-PVTZ AUX)
    Blend: AUG-CC-PVTZ-JKFIT
	 Reference Energy          =    -157.3501975129065897 [Eh]
	 Singles Energy            =      -0.0000000000000000 [Eh]
	 Same-Spin Energy          =      -0.1664371306770789 [Eh]
	 Opposite-Spin Energy      =      -0.6415296251236255 [Eh]
	 Correlation Energy        =      -0.8079667558007044 [Eh]
	 Total Energy              =    -158.1581642687072815 [Eh]

	 ================> DF-SCS-MP2 Energies <==================
	-----------------------------------------------------------
	 SCS Same-Spin Scale       =       0.3333333333333333 [-]
	 SCS Opposite-Spin Scale   =       1.2000000000000000 [-]
	 SCS Same-Spin Energy      =      -0.0554790435590263 [Eh]
	 SCS Opposite-Spin Energy  =      -0.7698355501483506 [Eh]
	 SCS Correlation Energy    =      -0.8253145937073769 [Eh]
	 SCS Total Energy          =    -158.1755121066139793 [Eh]
	-----------------------------------------------------------

  Dipole Moment: [D]
     X:     0.0000      Y:    -0.0206      Z:    -0.2112     Total:     0.2122

*** Psi4 exiting successfully. Buy a developer a beer!
