                               Psi4 1.4a3.dev225

  ==> Input File <==

--------------------------------------------------------------------------
#psi4
#
memory 32 gb

molecule  {
0 1
  C       -0.0000280    -0.0000010    -0.3767930
  C        0.2513640     1.4301660     0.0962860
  C        1.1128890    -0.9327640     0.0962290
  C       -1.3642330    -0.4974010     0.0964060
  H       -0.0001075    -0.0000031    -1.5253930
  H        0.2590560     1.4736460     1.1912410
  H        1.2162880     1.8028580    -0.2619280
  H       -0.5286700     2.1095640    -0.2618470
  H        1.1468010    -0.9611080     1.1911810
  H        2.0912440    -0.5969440    -0.2620190
  H        0.9531640    -1.9547810    -0.2619140
  H       -1.4056140    -0.5125330     1.1913650
  H       -1.5626250    -1.5126120    -0.2617590
  H       -2.1694990     0.1519130    -0.2616900
units angstrom
no_reorient  #important for SAPT in psi4, default
symmetry c1  #important for SAPT in psi4, default
}

set PROPERTIES_ORIGIN ["COM"]
properties('MP2/aug-cc-pvtz', properties = ['dipole'])
--------------------------------------------------------------------------

    Molecular point group: c1
  Charge       = 0
  Multiplicity = 1
  Basis Set: AUG-CC-PVTZ
    Blend: AUG-CC-PVTZ
  Basis Set: (AUG-CC-PVTZ AUX)
    Blend: AUG-CC-PVTZ-JKFIT

    Orbital Energies [Eh]
    ---------------------

    Doubly Occupied:

       1A    -11.229271     2A    -11.209042     3A    -11.209042
       4A    -11.209012     5A     -1.079195     6A     -0.925616
       7A     -0.925616     8A     -0.758225     9A     -0.628476
      10A     -0.589261    11A     -0.589260    12A     -0.532228
      13A     -0.532228    14A     -0.508926    15A     -0.462325
      16A     -0.462325    17A     -0.451665

  @DF-RHF Final Energy:  -157.35447270834518

   => Energetics <=

    Nuclear Repulsion Energy =            134.5226030248884967
    One-Electron Energy =                -477.1507220155837103
    Two-Electron Energy =                 185.2736462823500290
    Total Energy =                       -157.3544727083451846
  Basis Set: (AUG-CC-PVTZ AUX)
    Blend: AUG-CC-PVTZ-RI
    Molecular point group: c1

    Geometry (in Angstrom), charge = 0, multiplicity = 1:

       Center              X                  Y                   Z               Mass
    ------------   -----------------  -----------------  -----------------  -----------------
         C           -0.000026997791    -0.000000998265    -0.366918518556    12.000000000000
         C            0.251365002209     1.430166001735     0.106160481444    12.000000000000
         C            1.112890002209    -0.932763998265     0.106103481444    12.000000000000
         C           -1.364231997791    -0.497400998265     0.106280481444    12.000000000000
         H           -0.000106497791    -0.000003098265    -1.515518518556     1.007825032230
         H            0.259057002209     1.473646001735     1.201115481444     1.007825032230
         H            1.216289002209     1.802858001735    -0.252053518556     1.007825032230
         H           -0.528668997791     2.109564001735    -0.251972518556     1.007825032230
         H            1.146802002209    -0.961107998265     1.201055481444     1.007825032230
         H            2.091245002209    -0.596943998265    -0.252144518556     1.007825032230
         H            0.953165002209    -1.954780998265    -0.252039518556     1.007825032230
         H           -1.405612997791    -0.512532998265     1.201239481444     1.007825032230
         H           -1.562623997791    -1.512611998265    -0.251884518556     1.007825032230
         H           -2.169497997791     0.151913001735    -0.251815518556     1.007825032230

  Basis Set: AUG-CC-PVTZ
    Blend: AUG-CC-PVTZ
  Basis Set: (AUG-CC-PVTZ AUX)
    Blend: AUG-CC-PVTZ-JKFIT
	 Reference Energy          =    -157.3544727083451846 [Eh]
	 Singles Energy            =      -0.0000000000000000 [Eh]
	 Same-Spin Energy          =      -0.1664446553072983 [Eh]
	 Opposite-Spin Energy      =      -0.6411778375168231 [Eh]
	 Correlation Energy        =      -0.8076224928241214 [Eh]
	 Total Energy              =    -158.1620952011693078 [Eh]

	 ================> DF-SCS-MP2 Energies <==================
	-----------------------------------------------------------
	 SCS Same-Spin Scale       =       0.3333333333333333 [-]
	 SCS Opposite-Spin Scale   =       1.2000000000000000 [-]
	 SCS Same-Spin Energy      =      -0.0554815517690994 [Eh]
	 SCS Opposite-Spin Energy  =      -0.7694134050201877 [Eh]
	 SCS Correlation Energy    =      -0.8248949567892871 [Eh]
	 SCS Total Energy          =    -158.1793676651344640 [Eh]
	-----------------------------------------------------------

  Dipole Moment: [D]
     X:    -0.0000      Y:    -0.0000      Z:    -0.0928     Total:     0.0928

*** Psi4 exiting successfully. Buy a developer a beer!
