                               Psi4 1.4a3.dev225

  ==> Input File <==

--------------------------------------------------------------------------
#psi4
#
memory 32 gb

molecule  {
0 1
  C       -0.0000280    -0.0000010    -0.3767930
  C        0.2513640     1.4301660     0.0962860
  C        1.1128890    -0.9327640     0.0962290
  C       -1.3642330    -0.4974010     0.0964060
  H       -0.0001054    -0.0000030    -1.4953930
  H        0.2590560     1.4736460     1.1912410
  H        1.2162880     1.8028580    -0.2619280
  H       -0.5286700     2.1095640    -0.2618470
  H        1.1468010    -0.9611080     1.1911810
  H        2.0912440    -0.5969440    -0.2620190
  H        0.9531640    -1.9547810    -0.2619140
  H       -1.4056140    -0.5125330     1.1913650
  H       -1.5626250    -1.5126120    -0.2617590
  H       -2.1694990     0.1519130    -0.2616900
units angstrom
no_reorient  #important for SAPT in psi4, default
symmetry c1  #important for SAPT in psi4, default
}

set PROPERTIES_ORIGIN ["COM"]
properties('MP2/aug-cc-pvtz', properties = ['dipole'])
--------------------------------------------------------------------------

    Molecular point group: c1
  Charge       = 0
  Multiplicity = 1
  Basis Set: AUG-CC-PVTZ
    Blend: AUG-CC-PVTZ
  Basis Set: (AUG-CC-PVTZ AUX)
    Blend: AUG-CC-PVTZ-JKFIT

    Orbital Energies [Eh]
    ---------------------

    Doubly Occupied:

       1A    -11.225445     2A    -11.208665     3A    -11.208665
       4A    -11.208633     5A     -1.079941     6A     -0.925305
       7A     -0.925305     8A     -0.761842     9A     -0.629701
      10A     -0.588972    11A     -0.588972    12A     -0.531987
      13A     -0.531987    14A     -0.508711    15A     -0.461867
      16A     -0.461867    17A     -0.455375

  @DF-RHF Final Energy:  -157.35598570687227

   => Energetics <=

    Nuclear Repulsion Energy =            134.6538510639486788
    One-Electron Energy =                -477.4131954079661000
    Two-Electron Energy =                 185.4033586371451747
    Total Energy =                       -157.3559857068722749
  Basis Set: (AUG-CC-PVTZ AUX)
    Blend: AUG-CC-PVTZ-RI
    Molecular point group: c1

    Geometry (in Angstrom), charge = 0, multiplicity = 1:

       Center              X                  Y                   Z               Mass
    ------------   -----------------  -----------------  -----------------  -----------------
         C           -0.000027034232    -0.000001000000    -0.367439105020    12.000000000000
         C            0.251364965768     1.430166000000     0.105639894980    12.000000000000
         C            1.112889965768    -0.932764000000     0.105582894980    12.000000000000
         C           -1.364232034232    -0.497401000000     0.105759894980    12.000000000000
         H           -0.000104434232    -0.000003000000    -1.486039105020     1.007825032230
         H            0.259056965768     1.473646000000     1.200594894980     1.007825032230
         H            1.216288965768     1.802858000000    -0.252574105020     1.007825032230
         H           -0.528669034232     2.109564000000    -0.252493105020     1.007825032230
         H            1.146801965768    -0.961108000000     1.200534894980     1.007825032230
         H            2.091244965768    -0.596944000000    -0.252665105020     1.007825032230
         H            0.953164965768    -1.954781000000    -0.252560105020     1.007825032230
         H           -1.405613034232    -0.512533000000     1.200718894980     1.007825032230
         H           -1.562624034232    -1.512612000000    -0.252405105020     1.007825032230
         H           -2.169498034232     0.151913000000    -0.252336105020     1.007825032230

  Basis Set: AUG-CC-PVTZ
    Blend: AUG-CC-PVTZ
  Basis Set: (AUG-CC-PVTZ AUX)
    Blend: AUG-CC-PVTZ-JKFIT
	 Reference Energy          =    -157.3559857068722749 [Eh]
	 Singles Energy            =      -0.0000000000000000 [Eh]
	 Same-Spin Energy          =      -0.1664490337218027 [Eh]
	 Opposite-Spin Energy      =      -0.6409809605545214 [Eh]
	 Correlation Energy        =      -0.8074299942763241 [Eh]
	 Total Energy              =    -158.1634157011486082 [Eh]

	 ================> DF-SCS-MP2 Energies <==================
	-----------------------------------------------------------
	 SCS Same-Spin Scale       =       0.3333333333333333 [-]
	 SCS Opposite-Spin Scale   =       1.2000000000000000 [-]
	 SCS Same-Spin Energy      =      -0.0554830112406009 [Eh]
	 SCS Opposite-Spin Energy  =      -0.7691771526654256 [Eh]
	 SCS Correlation Energy    =      -0.8246601639060266 [Eh]
	 SCS Total Energy          =    -158.1806458707783065 [Eh]
	-----------------------------------------------------------

  Dipole Moment: [D]
     X:    -0.0000      Y:    -0.0000      Z:    -0.1205     Total:     0.1205

*** Psi4 exiting successfully. Buy a developer a beer!
