                               Psi4 1.4a3.dev225

  ==> Input File <==

--------------------------------------------------------------------------
#psi4
#
memory 32 gb

molecule  {
0 1
  C       -0.0000280    -0.0000010    -0.3767930
  C        0.2513640     1.4301660     0.0962860
  C        1.1128890    -0.9327640     0.0962290
  C       -1.3642330    -0.4974010     0.0964060
  H       -0.0001040    -0.0000030    -1.4753930
  H        0.2594070     1.4756299     1.2412004
  H        1.2162880     1.8028580    -0.2619280
  H       -0.5286700     2.1095640    -0.2618470
  H        1.1468010    -0.9611080     1.1911810
  H        2.0912440    -0.5969440    -0.2620190
  H        0.9531640    -1.9547810    -0.2619140
  H       -1.4056140    -0.5125330     1.1913650
  H       -1.5626250    -1.5126120    -0.2617590
  H       -2.1694990     0.1519130    -0.2616900
units angstrom
no_reorient  #important for SAPT in psi4, default
symmetry c1  #important for SAPT in psi4, default
}

set PROPERTIES_ORIGIN ["COM"]
properties('MP2/aug-cc-pvtz', properties = ['dipole'])
--------------------------------------------------------------------------

    Molecular point group: c1
  Charge       = 0
  Multiplicity = 1
  Basis Set: AUG-CC-PVTZ
    Blend: AUG-CC-PVTZ
  Basis Set: (AUG-CC-PVTZ AUX)
    Blend: AUG-CC-PVTZ-JKFIT

    Orbital Energies [Eh]
    ---------------------

    Doubly Occupied:

       1A    -11.223559     2A    -11.214656     3A    -11.208541
       4A    -11.208518     5A     -1.080149     6A     -0.925232
       7A     -0.921985     8A     -0.762968     9A     -0.630030
      10A     -0.589405    11A     -0.588338    12A     -0.531889
      13A     -0.524329    14A     -0.509015    15A     -0.462257
      16A     -0.461935    17A     -0.456498

  @DF-RHF Final Energy:  -157.35447828303833

   => Energetics <=

    Nuclear Repulsion Energy =            134.5542314403876674
    One-Electron Energy =                -477.2188112956714008
    Two-Electron Energy =                 185.3101015722453724
    Total Energy =                       -157.3544782830383326
  Basis Set: (AUG-CC-PVTZ AUX)
    Blend: AUG-CC-PVTZ-RI
    Molecular point group: c1

    Geometry (in Angstrom), charge = 0, multiplicity = 1:

       Center              X                  Y                   Z               Mass
    ------------   -----------------  -----------------  -----------------  -----------------
         C           -0.000033149387    -0.000035426383    -0.368653102242    12.000000000000
         C            0.251358850613     1.430131573617     0.104425897758    12.000000000000
         C            1.112883850613    -0.932798426383     0.104368897758    12.000000000000
         C           -1.364238149387    -0.497435426383     0.104545897758    12.000000000000
         H           -0.000109149387    -0.000037426383    -1.467253102242     1.007825032230
         H            0.259401850613     1.475595473617     1.249340297758     1.007825032230
         H            1.216282850613     1.802823573617    -0.253788102242     1.007825032230
         H           -0.528675149387     2.109529573617    -0.253707102242     1.007825032230
         H            1.146795850613    -0.961142426383     1.199320897758     1.007825032230
         H            2.091238850613    -0.596978426383    -0.253879102242     1.007825032230
         H            0.953158850613    -1.954815426383    -0.253774102242     1.007825032230
         H           -1.405619149387    -0.512567426383     1.199504897758     1.007825032230
         H           -1.562630149387    -1.512646426383    -0.253619102242     1.007825032230
         H           -2.169504149387     0.151878573617    -0.253550102242     1.007825032230

  Basis Set: AUG-CC-PVTZ
    Blend: AUG-CC-PVTZ
  Basis Set: (AUG-CC-PVTZ AUX)
    Blend: AUG-CC-PVTZ-JKFIT
	 Reference Energy          =    -157.3544782830383326 [Eh]
	 Singles Energy            =      -0.0000000000000000 [Eh]
	 Same-Spin Energy          =      -0.1664443262009655 [Eh]
	 Opposite-Spin Energy      =      -0.6411733116215914 [Eh]
	 Correlation Energy        =      -0.8076176378225569 [Eh]
	 Total Energy              =    -158.1620959208608781 [Eh]

	 ================> DF-SCS-MP2 Energies <==================
	-----------------------------------------------------------
	 SCS Same-Spin Scale       =       0.3333333333333333 [-]
	 SCS Opposite-Spin Scale   =       1.2000000000000000 [-]
	 SCS Same-Spin Energy      =      -0.0554814420669885 [Eh]
	 SCS Opposite-Spin Energy  =      -0.7694079739459097 [Eh]
	 SCS Correlation Energy    =      -0.8248894160128981 [Eh]
	 SCS Total Energy          =    -158.1793676990512267 [Eh]
	-----------------------------------------------------------

  Dipole Moment: [D]
     X:    -0.0017      Y:    -0.0095      Z:    -0.1726     Total:     0.1729

*** Psi4 exiting successfully. Buy a developer a beer!
