                               Psi4 1.3.2 release

  ==> Input File <==

--------------------------------------------------------------------------
#psi4
#
memory 32 gb

molecule  {
0 1
  C       -0.0000730    -0.0001100    -0.3769120
  C       -0.0089210     1.4518780     0.0963530
  C        1.2621130    -0.7181570     0.0963290
  C       -1.2531000    -0.7336160     0.0963310
  H        0.0001270     0.0001580    -1.4755210
  H       -0.0092200     1.4917155     1.0913791
  H        0.8735630     1.9915400    -0.2617730
  H       -0.8981180     1.9803230    -0.2618970
  H        1.3008650    -0.7388270     1.1912450
  H        2.1645300    -0.2131340    -0.2626890
  H        1.2876640    -1.7526070    -0.2608010
  H       -1.2910520    -0.7567680     1.1912960
  H       -1.2667340    -1.7676670    -0.2625410
  H       -2.1617050    -0.2387050    -0.2612260
units angstrom
no_reorient  #important for SAPT in psi4, default
symmetry c1  #important for SAPT in psi4, default
}

set PROPERTIES_ORIGIN ["COM"]
properties('MP2/aug-cc-pvtz', properties = ['dipole'])
--------------------------------------------------------------------------

    Molecular point group: c1
  Charge       = 0
  Multiplicity = 1
  Basis Set: AUG-CC-PVTZ
    Blend: AUG-CC-PVTZ
  Basis Set: (AUG-CC-PVTZ AUX)
    Blend: AUG-CC-PVTZ-JKFIT

    Orbital Energies [Eh]
    ---------------------

    Doubly Occupied:

       1A    -11.221693     2A    -11.208275     3A    -11.208250
       4A    -11.195549     5A     -1.081977     6A     -0.933575
       7A     -0.924952     8A     -0.768237     9A     -0.632021
      10A     -0.590522    11A     -0.587847    12A     -0.546368
      13A     -0.531801    14A     -0.507890    15A     -0.461049
      16A     -0.460524    17A     -0.459441

  @DF-RHF Final Energy:  -157.35040551220072

   => Energetics <=

    Nuclear Repulsion Energy =            135.1650634348609117
    One-Electron Energy =                -478.3909975901519260
    Two-Electron Energy =                 185.8755286430903197
    Total Energy =                       -157.3504055122007230
  Basis Set: (AUG-CC-PVTZ AUX)
    Blend: AUG-CC-PVTZ-RI
    Molecular point group: c1

    Geometry (in Angstrom), charge = 0, multiplicity = 1:

       Center              X                  Y                   Z               Mass
    ------------   -----------------  -----------------  -----------------  -----------------
         C           -0.000075537508    -0.000040049940    -0.366168375432    12.000000000000
         C           -0.008923537508     1.451947950060     0.107096624568    12.000000000000
         C            1.262110462492    -0.718087049940     0.107072624568    12.000000000000
         C           -1.253102537508    -0.733546049940     0.107074624568    12.000000000000
         H            0.000124462492     0.000227950060    -1.464777375432     1.007825032230
         H           -0.009222537508     1.491785450060     1.102122724568     1.007825032230
         H            0.873560462492     1.991609950060    -0.251029375432     1.007825032230
         H           -0.898120537508     1.980392950060    -0.251153375432     1.007825032230
         H            1.300862462492    -0.738757049940     1.201988624568     1.007825032230
         H            2.164527462492    -0.213064049940    -0.251945375432     1.007825032230
         H            1.287661462492    -1.752537049940    -0.250057375432     1.007825032230
         H           -1.291054537508    -0.756698049940     1.202039624568     1.007825032230
         H           -1.266736537508    -1.767597049940    -0.251797375432     1.007825032230
         H           -2.161707537508    -0.238635049940    -0.250482375432     1.007825032230

  Basis Set: AUG-CC-PVTZ
    Blend: AUG-CC-PVTZ
  Basis Set: (AUG-CC-PVTZ AUX)
    Blend: AUG-CC-PVTZ-JKFIT
	 Reference Energy          =    -157.3504055122007230 [Eh]
	 Singles Energy            =      -0.0000000000000000 [Eh]
	 Same-Spin Energy          =      -0.1664850240704074 [Eh]
	 Opposite-Spin Energy      =      -0.6404189844178581 [Eh]
	 Correlation Energy        =      -0.8069040084882655 [Eh]
	 Total Energy              =    -158.1573095206889832 [Eh]

	 ================> DF-SCS-MP2 Energies <==================
	-----------------------------------------------------------
	 SCS Same-Spin Scale       =       0.3333333333333333 [-]
	 SCS Opposite-Spin Scale   =       1.2000000000000000 [-]
	 SCS Same-Spin Energy      =      -0.0554950080234691 [Eh]
	 SCS Opposite-Spin Energy  =      -0.7685027813014297 [Eh]
	 SCS Correlation Energy    =      -0.8239977893248989 [Eh]
	 SCS Total Energy          =    -158.1744033015256150 [Eh]
	-----------------------------------------------------------

  Dipole Moment: [D]
     X:    -0.0002      Y:     0.0160      Z:    -0.0795     Total:     0.0811

*** Psi4 exiting successfully. Buy a developer a beer!
