                               Psi4 1.3.2 release

  ==> Input File <==

--------------------------------------------------------------------------
#psi4
#
memory 32 gb

molecule  {
0 1
  C       -0.0000730    -0.0001100    -0.3769120
  C       -0.0324293     1.4554186     0.0843001
  C        1.2621130    -0.7181570     0.0963290
  C       -1.2531000    -0.7336160     0.0963310
  H        0.0001270     0.0001580    -1.4755210
  H       -0.0092500     1.4957160     1.1912990
  H        0.8735630     1.9915400    -0.2617730
  H       -0.8981180     1.9803230    -0.2618970
  H        1.3008650    -0.7388270     1.1912450
  H        2.1645300    -0.2131340    -0.2626890
  H        1.2876640    -1.7526070    -0.2608010
  H       -1.2910520    -0.7567680     1.1912960
  H       -1.2667340    -1.7676670    -0.2625410
  H       -2.1617050    -0.2387050    -0.2612260
units angstrom
no_reorient  #important for SAPT in psi4, default
symmetry c1  #important for SAPT in psi4, default
}

set PROPERTIES_ORIGIN ["COM"]
properties('MP2/aug-cc-pvtz', properties = ['dipole'])
--------------------------------------------------------------------------

    Molecular point group: c1
  Charge       = 0
  Multiplicity = 1
  Basis Set: AUG-CC-PVTZ
    Blend: AUG-CC-PVTZ
  Basis Set: (AUG-CC-PVTZ AUX)
    Blend: AUG-CC-PVTZ-JKFIT

    Orbital Energies [Eh]
    ---------------------

    Doubly Occupied:

       1A    -11.222914     2A    -11.208933     3A    -11.208568
       4A    -11.208152     5A     -1.080469     6A     -0.926159
       7A     -0.924439     8A     -0.764344     9A     -0.630590
      10A     -0.590703    11A     -0.588466    12A     -0.531977
      13A     -0.529299    14A     -0.509698    15A     -0.465322
      16A     -0.459271    17A     -0.456144

  @DF-RHF Final Energy:  -157.35570121636948

   => Energetics <=

    Nuclear Repulsion Energy =            134.7226695357622077
    One-Electron Energy =                -477.5458461243670740
    Two-Electron Energy =                 185.4674753722353557
    Total Energy =                       -157.3557012163694822
  Basis Set: (AUG-CC-PVTZ AUX)
    Blend: AUG-CC-PVTZ-RI
    Molecular point group: c1

    Geometry (in Angstrom), charge = 0, multiplicity = 1:

       Center              X                  Y                   Z               Mass
    ------------   -----------------  -----------------  -----------------  -----------------
         C            0.004782216181    -0.000841021108    -0.365411930062    12.000000000000
         C           -0.027574083819     1.454687578892     0.095800169938    12.000000000000
         C            1.266968216181    -0.718888021108     0.107829069938    12.000000000000
         C           -1.248244783819    -0.734347021108     0.107831069938    12.000000000000
         H            0.004982216181    -0.000573021108    -1.464020930062     1.007825032230
         H           -0.004394783819     1.494984978892     1.202799069938     1.007825032230
         H            0.878418216181     1.990808978892    -0.250272930062     1.007825032230
         H           -0.893262783819     1.979591978892    -0.250396930062     1.007825032230
         H            1.305720216181    -0.739558021108     1.202745069938     1.007825032230
         H            2.169385216181    -0.213865021108    -0.251188930062     1.007825032230
         H            1.292519216181    -1.753338021108    -0.249300930062     1.007825032230
         H           -1.286196783819    -0.757499021108     1.202796069938     1.007825032230
         H           -1.261878783819    -1.768398021108    -0.251040930062     1.007825032230
         H           -2.156849783819    -0.239436021108    -0.249725930062     1.007825032230

  Basis Set: AUG-CC-PVTZ
    Blend: AUG-CC-PVTZ
  Basis Set: (AUG-CC-PVTZ AUX)
    Blend: AUG-CC-PVTZ-JKFIT
	 Reference Energy          =    -157.3557012163694822 [Eh]
	 Singles Energy            =      -0.0000000000000000 [Eh]
	 Same-Spin Energy          =      -0.1664619400254388 [Eh]
	 Opposite-Spin Energy      =      -0.6408871558051206 [Eh]
	 Correlation Energy        =      -0.8073490958305594 [Eh]
	 Total Energy              =    -158.1630503122000277 [Eh]

	 ================> DF-SCS-MP2 Energies <==================
	-----------------------------------------------------------
	 SCS Same-Spin Scale       =       0.3333333333333333 [-]
	 SCS Opposite-Spin Scale   =       1.2000000000000000 [-]
	 SCS Same-Spin Energy      =      -0.0554873133418129 [Eh]
	 SCS Opposite-Spin Energy  =      -0.7690645869661447 [Eh]
	 SCS Correlation Energy    =      -0.8245519003079576 [Eh]
	 SCS Total Energy          =    -158.1802531166774486 [Eh]
	-----------------------------------------------------------

  Dipole Moment: [D]
     X:    -0.0044      Y:    -0.0017      Z:    -0.1437     Total:     0.1438

*** Psi4 exiting successfully. Buy a developer a beer!
