                               Psi4 1.3.2 release

  ==> Input File <==

--------------------------------------------------------------------------
#psi4
#
memory 32 gb

molecule  {
0 1
  C       -0.0000730    -0.0001100    -0.3769120
  C        0.0850677     1.4333053     0.1430868
  C        1.2621130    -0.7181570     0.0963290
  C       -1.2531000    -0.7336160     0.0963310
  H        0.0001270     0.0001580    -1.4755210
  H       -0.0092500     1.4957160     1.1912990
  H        0.8735630     1.9915400    -0.2617730
  H       -0.8981180     1.9803230    -0.2618970
  H        1.3008650    -0.7388270     1.1912450
  H        2.1645300    -0.2131340    -0.2626890
  H        1.2876640    -1.7526070    -0.2608010
  H       -1.2910520    -0.7567680     1.1912960
  H       -1.2667340    -1.7676670    -0.2625410
  H       -2.1617050    -0.2387050    -0.2612260
units angstrom
no_reorient  #important for SAPT in psi4, default
symmetry c1  #important for SAPT in psi4, default
}

set PROPERTIES_ORIGIN ["COM"]
properties('MP2/aug-cc-pvtz', properties = ['dipole'])
--------------------------------------------------------------------------

    Molecular point group: c1
  Charge       = 0
  Multiplicity = 1
  Basis Set: AUG-CC-PVTZ
    Blend: AUG-CC-PVTZ
  Basis Set: (AUG-CC-PVTZ AUX)
    Blend: AUG-CC-PVTZ-JKFIT

    Orbital Energies [Eh]
    ---------------------

    Doubly Occupied:

       1A    -11.223791     2A    -11.210254     3A    -11.209817
       4A    -11.206996     5A     -1.081765     6A     -0.928707
       7A     -0.922184     8A     -0.766470     9A     -0.635456
      10A     -0.590318    11A     -0.584750    12A     -0.543397
      13A     -0.531922    14A     -0.500591    15A     -0.469814
      16A     -0.463433    17A     -0.441482

  @DF-RHF Final Energy:  -157.34532665106056

   => Energetics <=

    Nuclear Repulsion Energy =            134.8632349804482260
    One-Electron Energy =                -477.7948270845013212
    Two-Electron Energy =                 185.5862654529925351
    Total Energy =                       -157.3453266510605602
  Basis Set: (AUG-CC-PVTZ AUX)
    Blend: AUG-CC-PVTZ-RI
    Molecular point group: c1

    Geometry (in Angstrom), charge = 0, multiplicity = 1:

       Center              X                  Y                   Z               Mass
    ------------   -----------------  -----------------  -----------------  -----------------
         C           -0.019494754839     0.003727980170    -0.377558308372    12.000000000000
         C            0.065645945161     1.437143280170     0.142440491628    12.000000000000
         C            1.242691245161    -0.714319019830     0.095682691628    12.000000000000
         C           -1.272521754839    -0.729778019830     0.095684691628    12.000000000000
         H           -0.019294754839     0.003995980170    -1.476167308372     1.007825032230
         H           -0.028671754839     1.499553980170     1.190652691628     1.007825032230
         H            0.854141245161     1.995377980170    -0.262419308372     1.007825032230
         H           -0.917539754839     1.984160980170    -0.262543308372     1.007825032230
         H            1.281443245161    -0.734989019830     1.190598691628     1.007825032230
         H            2.145108245161    -0.209296019830    -0.263335308372     1.007825032230
         H            1.268242245161    -1.748769019830    -0.261447308372     1.007825032230
         H           -1.310473754839    -0.752930019830     1.190649691628     1.007825032230
         H           -1.286155754839    -1.763829019830    -0.263187308372     1.007825032230
         H           -2.181126754839    -0.234867019830    -0.261872308372     1.007825032230

  Basis Set: AUG-CC-PVTZ
    Blend: AUG-CC-PVTZ
  Basis Set: (AUG-CC-PVTZ AUX)
    Blend: AUG-CC-PVTZ-JKFIT
	 Reference Energy          =    -157.3453266510605602 [Eh]
	 Singles Energy            =      -0.0000000000000000 [Eh]
	 Same-Spin Energy          =      -0.1666532201367858 [Eh]
	 Opposite-Spin Energy      =      -0.6414689897688384 [Eh]
	 Correlation Energy        =      -0.8081222099056242 [Eh]
	 Total Energy              =    -158.1534488609661935 [Eh]

	 ================> DF-SCS-MP2 Energies <==================
	-----------------------------------------------------------
	 SCS Same-Spin Scale       =       0.3333333333333333 [-]
	 SCS Opposite-Spin Scale   =       1.2000000000000000 [-]
	 SCS Same-Spin Energy      =      -0.0555510733789286 [Eh]
	 SCS Opposite-Spin Energy  =      -0.7697627877226060 [Eh]
	 SCS Correlation Energy    =      -0.8253138611015346 [Eh]
	 SCS Total Energy          =    -158.1706405121620946 [Eh]
	-----------------------------------------------------------

  Dipole Moment: [D]
     X:     0.0301      Y:    -0.0248      Z:    -0.1130     Total:     0.1196

*** Psi4 exiting successfully. Buy a developer a beer!
