                               Psi4 1.4a3.dev225

  ==> Input File <==

--------------------------------------------------------------------------
#psi4
#
memory 32 gb

molecule  {
0 1
  C       -0.0000280    -0.0000010    -0.3767930
  C        0.2513640     1.4301660     0.0962860
  C        1.1128890    -0.9327640     0.0962290
  C       -1.3642330    -0.4974010     0.0964060
  H       -0.0001005    -0.0000029    -1.4253930
  H        0.2590560     1.4736460     1.1912410
  H        1.2162880     1.8028580    -0.2619280
  H       -0.5286700     2.1095640    -0.2618470
  H        1.1468010    -0.9611080     1.1911810
  H        2.0912440    -0.5969440    -0.2620190
  H        0.9531640    -1.9547810    -0.2619140
  H       -1.4056140    -0.5125330     1.1913650
  H       -1.5626250    -1.5126120    -0.2617590
  H       -2.1694990     0.1519130    -0.2616900
units angstrom
no_reorient  #important for SAPT in psi4, default
symmetry c1  #important for SAPT in psi4, default
}

set PROPERTIES_ORIGIN ["COM"]
properties('MP2/aug-cc-pvtz', properties = ['dipole'])
--------------------------------------------------------------------------

    Molecular point group: c1
  Charge       = 0
  Multiplicity = 1
  Basis Set: AUG-CC-PVTZ
    Blend: AUG-CC-PVTZ
  Basis Set: (AUG-CC-PVTZ AUX)
    Blend: AUG-CC-PVTZ-JKFIT

    Orbital Energies [Eh]
    ---------------------

    Doubly Occupied:

       1A    -11.216316     2A    -11.207893     3A    -11.207893
       4A    -11.207845     5A     -1.082299     6A     -0.924674
       7A     -0.924674     8A     -0.771728     9A     -0.632487
      10A     -0.588402    11A     -0.588402    12A     -0.531507
      13A     -0.531507    14A     -0.508285    15A     -0.463643
      16A     -0.460934    17A     -0.460934

  @DF-RHF Final Energy:  -157.35556115460122

   => Energetics <=

    Nuclear Repulsion Energy =            134.9787492961307862
    One-Electron Energy =                -478.0497713238282245
    Two-Electron Energy =                 185.7154608730962195
    Total Energy =                       -157.3555611546012187
  Basis Set: (AUG-CC-PVTZ AUX)
    Blend: AUG-CC-PVTZ-RI
    Molecular point group: c1

    Geometry (in Angstrom), charge = 0, multiplicity = 1:

       Center              X                  Y                   Z               Mass
    ------------   -----------------  -----------------  -----------------  -----------------
         C           -0.000027119261    -0.000001001735    -0.368653806769    12.000000000000
         C            0.251364880739     1.430165998265     0.104425193231    12.000000000000
         C            1.112889880739    -0.932764001735     0.104368193231    12.000000000000
         C           -1.364232119261    -0.497401001735     0.104545193231    12.000000000000
         H           -0.000099619261    -0.000002901735    -1.417253806769     1.007825032230
         H            0.259056880739     1.473645998265     1.199380193231     1.007825032230
         H            1.216288880739     1.802857998265    -0.253788806769     1.007825032230
         H           -0.528669119261     2.109563998265    -0.253707806769     1.007825032230
         H            1.146801880739    -0.961108001735     1.199320193231     1.007825032230
         H            2.091244880739    -0.596944001735    -0.253879806769     1.007825032230
         H            0.953164880739    -1.954781001735    -0.253774806769     1.007825032230
         H           -1.405613119261    -0.512533001735     1.199504193231     1.007825032230
         H           -1.562624119261    -1.512612001735    -0.253619806769     1.007825032230
         H           -2.169498119261     0.151912998265    -0.253550806769     1.007825032230

  Basis Set: AUG-CC-PVTZ
    Blend: AUG-CC-PVTZ
  Basis Set: (AUG-CC-PVTZ AUX)
    Blend: AUG-CC-PVTZ-JKFIT
	 Reference Energy          =    -157.3555611546012187 [Eh]
	 Singles Energy            =      -0.0000000000000000 [Eh]
	 Same-Spin Energy          =      -0.1664626653696644 [Eh]
	 Opposite-Spin Energy      =      -0.6405998345881236 [Eh]
	 Correlation Energy        =      -0.8070624999577880 [Eh]
	 Total Energy              =    -158.1626236545590132 [Eh]

	 ================> DF-SCS-MP2 Energies <==================
	-----------------------------------------------------------
	 SCS Same-Spin Scale       =       0.3333333333333333 [-]
	 SCS Opposite-Spin Scale   =       1.2000000000000000 [-]
	 SCS Same-Spin Energy      =      -0.0554875551232215 [Eh]
	 SCS Opposite-Spin Energy  =      -0.7687198015057484 [Eh]
	 SCS Correlation Energy    =      -0.8242073566289698 [Eh]
	 SCS Total Energy          =    -158.1797685112301792 [Eh]
	-----------------------------------------------------------

  Dipole Moment: [D]
     X:    -0.0000      Y:    -0.0000      Z:    -0.1761     Total:     0.1761

*** Psi4 exiting successfully. Buy a developer a beer!
