                               Psi4 1.3.2 release

  ==> Input File <==

--------------------------------------------------------------------------
#psi4
#
memory 32 gb

molecule  {
0 1
  C       -0.0000730    -0.0001100    -0.3769120
  C       -0.0089210     1.4518780     0.0963530
  C        1.2877485    -0.7327019    -0.0061198
  C       -1.2531000    -0.7336160     0.0963310
  H        0.0001270     0.0001580    -1.4755210
  H       -0.0092500     1.4957160     1.1912990
  H        0.8735630     1.9915400    -0.2617730
  H       -0.8981180     1.9803230    -0.2618970
  H        1.3008650    -0.7388270     1.1912450
  H        2.1645300    -0.2131340    -0.2626890
  H        1.2876640    -1.7526070    -0.2608010
  H       -1.2910520    -0.7567680     1.1912960
  H       -1.2667340    -1.7676670    -0.2625410
  H       -2.1617050    -0.2387050    -0.2612260
units angstrom
no_reorient  #important for SAPT in psi4, default
symmetry c1  #important for SAPT in psi4, default
}

set PROPERTIES_ORIGIN ["COM"]
properties('MP2/aug-cc-pvtz', properties = ['dipole'])
--------------------------------------------------------------------------

    Molecular point group: c1
  Charge       = 0
  Multiplicity = 1
  Basis Set: AUG-CC-PVTZ
    Blend: AUG-CC-PVTZ
  Basis Set: (AUG-CC-PVTZ AUX)
    Blend: AUG-CC-PVTZ-JKFIT

    Orbital Energies [Eh]
    ---------------------

    Doubly Occupied:

       1A    -11.223766     2A    -11.210868     3A    -11.209521
       4A    -11.209481     5A     -1.080284     6A     -0.928231
       7A     -0.925619     8A     -0.764502     9A     -0.628239
      10A     -0.604188    11A     -0.590010    12A     -0.532660
      13A     -0.519448    14A     -0.510342    15A     -0.470420
      16A     -0.466377    17A     -0.440185

  @DF-RHF Final Energy:  -157.34569332354380

   => Energetics <=

    Nuclear Repulsion Energy =            134.5464424238043648
    One-Electron Energy =                -477.1559887143357059
    Two-Electron Energy =                 185.2638529669875425
    Total Energy =                       -157.3456933235437987
  Basis Set: (AUG-CC-PVTZ AUX)
    Blend: AUG-CC-PVTZ-RI
    Molecular point group: c1

    Geometry (in Angstrom), charge = 0, multiplicity = 1:

       Center              X                  Y                   Z               Mass
    ------------   -----------------  -----------------  -----------------  -----------------
         C           -0.005371767396     0.002895765017    -0.346734528556    12.000000000000
         C           -0.014219767396     1.454883765017     0.126530471444    12.000000000000
         C            1.282449732604    -0.729696134983     0.024057671444    12.000000000000
         C           -1.258398767396    -0.730610234983     0.126508471444    12.000000000000
         H           -0.005171767396     0.003163765017    -1.445343528556     1.007825032230
         H           -0.014548767396     1.498721765017     1.221476471444     1.007825032230
         H            0.868264232604     1.994545765017    -0.231595528556     1.007825032230
         H           -0.903416767396     1.983328765017    -0.231719528556     1.007825032230
         H            1.295566232604    -0.735821234983     1.221422471444     1.007825032230
         H            2.159231232604    -0.210128234983    -0.232511528556     1.007825032230
         H            1.282365232604    -1.749601234983    -0.230623528556     1.007825032230
         H           -1.296350767396    -0.753762234983     1.221473471444     1.007825032230
         H           -1.272032767396    -1.764661234983    -0.232363528556     1.007825032230
         H           -2.167003767396    -0.235699234983    -0.231048528556     1.007825032230

  Basis Set: AUG-CC-PVTZ
    Blend: AUG-CC-PVTZ
  Basis Set: (AUG-CC-PVTZ AUX)
    Blend: AUG-CC-PVTZ-JKFIT
	 Reference Energy          =    -157.3456933235437987 [Eh]
	 Singles Energy            =      -0.0000000000000000 [Eh]
	 Same-Spin Energy          =      -0.1665993901548471 [Eh]
	 Opposite-Spin Energy      =      -0.6413121439252918 [Eh]
	 Correlation Energy        =      -0.8079115340801388 [Eh]
	 Total Energy              =    -158.1536048576239466 [Eh]

	 ================> DF-SCS-MP2 Energies <==================
	-----------------------------------------------------------
	 SCS Same-Spin Scale       =       0.3333333333333333 [-]
	 SCS Opposite-Spin Scale   =       1.2000000000000000 [-]
	 SCS Same-Spin Energy      =      -0.0555331300516157 [Eh]
	 SCS Opposite-Spin Energy  =      -0.7695745727103501 [Eh]
	 SCS Correlation Energy    =      -0.8251077027619658 [Eh]
	 SCS Total Energy          =    -158.1708010263057531 [Eh]
	-----------------------------------------------------------

  Dipole Moment: [D]
     X:    -0.0132      Y:     0.0072      Z:    -0.2046     Total:     0.2052

*** Psi4 exiting successfully. Buy a developer a beer!
