                               Psi4 1.3.2 release

  ==> Input File <==

--------------------------------------------------------------------------
#psi4
#
memory 32 gb

molecule  {
0 1
  C       -0.0000730    -0.0001100    -0.3769120
  C       -0.0089210     1.4518780     0.0963530
  C        1.2621130    -0.7181570     0.0963290
  C       -1.2531000    -0.7336160     0.0963310
  H        0.0001634     0.0002068    -1.6755210
  H       -0.0092500     1.4957160     1.1912990
  H        0.8735630     1.9915400    -0.2617730
  H       -0.8981180     1.9803230    -0.2618970
  H        1.3008650    -0.7388270     1.1912450
  H        2.1645300    -0.2131340    -0.2626890
  H        1.2876640    -1.7526070    -0.2608010
  H       -1.2910520    -0.7567680     1.1912960
  H       -1.2667340    -1.7676670    -0.2625410
  H       -2.1617050    -0.2387050    -0.2612260
units angstrom
no_reorient  #important for SAPT in psi4, default
symmetry c1  #important for SAPT in psi4, default
}

set PROPERTIES_ORIGIN ["COM"]
properties('MP2/aug-cc-pvtz', properties = ['dipole'])
--------------------------------------------------------------------------

    Molecular point group: c1
  Charge       = 0
  Multiplicity = 1
  Basis Set: AUG-CC-PVTZ
    Blend: AUG-CC-PVTZ
  Basis Set: (AUG-CC-PVTZ AUX)
    Blend: AUG-CC-PVTZ-JKFIT

    Orbital Energies [Eh]
    ---------------------

    Doubly Occupied:

       1A    -11.247406     2A    -11.211338     3A    -11.211326
       4A    -11.211299     5A     -1.077443     6A     -0.927585
       7A     -0.927550     8A     -0.745196     9A     -0.622588
      10A     -0.591132    11A     -0.591101    12A     -0.533801
      13A     -0.533773    14A     -0.510305    15A     -0.465162
      16A     -0.465058    17A     -0.431904

  @DF-RHF Final Energy:  -157.33747857803019

   => Energetics <=

    Nuclear Repulsion Energy =            133.9286633229351935
    One-Electron Energy =                -475.9243526609795936
    Two-Electron Energy =                 184.6582107600141853
    Total Energy =                       -157.3374785780301863
  Basis Set: (AUG-CC-PVTZ AUX)
    Blend: AUG-CC-PVTZ-RI
    Molecular point group: c1

    Geometry (in Angstrom), charge = 0, multiplicity = 1:

       Center              X                  Y                   Z               Mass
    ------------   -----------------  -----------------  -----------------  -----------------
         C           -0.000075648566    -0.000110316965    -0.364431697253    12.000000000000
         C           -0.008923648566     1.451877683035     0.108833302747    12.000000000000
         C            1.262110351434    -0.718157316965     0.108809302747    12.000000000000
         C           -1.253102648566    -0.733616316965     0.108811302747    12.000000000000
         H            0.000160751434     0.000206483035    -1.663040697253     1.007825032230
         H           -0.009252648566     1.495715683035     1.203779302747     1.007825032230
         H            0.873560351434     1.991539683035    -0.249292697253     1.007825032230
         H           -0.898120648566     1.980322683035    -0.249416697253     1.007825032230
         H            1.300862351434    -0.738827316965     1.203725302747     1.007825032230
         H            2.164527351434    -0.213134316965    -0.250208697253     1.007825032230
         H            1.287661351434    -1.752607316965    -0.248320697253     1.007825032230
         H           -1.291054648566    -0.756768316965     1.203776302747     1.007825032230
         H           -1.266736648566    -1.767667316965    -0.250060697253     1.007825032230
         H           -2.161707648566    -0.238705316965    -0.248745697253     1.007825032230

  Basis Set: AUG-CC-PVTZ
    Blend: AUG-CC-PVTZ
  Basis Set: (AUG-CC-PVTZ AUX)
    Blend: AUG-CC-PVTZ-JKFIT
	 Reference Energy          =    -157.3374785780301863 [Eh]
	 Singles Energy            =      -0.0000000000000000 [Eh]
	 Same-Spin Energy          =      -0.1664077642915405 [Eh]
	 Opposite-Spin Energy      =      -0.6423425474078605 [Eh]
	 Correlation Energy        =      -0.8087503116994010 [Eh]
	 Total Energy              =    -158.1462288897295991 [Eh]

	 ================> DF-SCS-MP2 Energies <==================
	-----------------------------------------------------------
	 SCS Same-Spin Scale       =       0.3333333333333333 [-]
	 SCS Opposite-Spin Scale   =       1.2000000000000000 [-]
	 SCS Same-Spin Energy      =      -0.0554692547638468 [Eh]
	 SCS Opposite-Spin Energy  =      -0.7708110568894325 [Eh]
	 SCS Correlation Energy    =      -0.8262803116532793 [Eh]
	 SCS Total Energy          =    -158.1637588896834643 [Eh]
	-----------------------------------------------------------

  Dipole Moment: [D]
     X:    -0.0001      Y:    -0.0002      Z:     0.0794     Total:     0.0794

*** Psi4 exiting successfully. Buy a developer a beer!
