                               Psi4 1.3.2 release

  ==> Input File <==

--------------------------------------------------------------------------
#psi4
#
memory 32 gb

molecule  {
0 1
  C       -0.0000730    -0.0001100    -0.3769120
  C       -0.0089210     1.4518780     0.0963530
  C        1.2757079    -0.7258716     0.0453618
  C       -1.2531000    -0.7336160     0.0963310
  H        0.0001270     0.0001580    -1.4755210
  H       -0.0092500     1.4957160     1.1912990
  H        0.8735630     1.9915400    -0.2617730
  H       -0.8981180     1.9803230    -0.2618970
  H        1.3008650    -0.7388270     1.1912450
  H        2.1645300    -0.2131340    -0.2626890
  H        1.2876640    -1.7526070    -0.2608010
  H       -1.2910520    -0.7567680     1.1912960
  H       -1.2667340    -1.7676670    -0.2625410
  H       -2.1617050    -0.2387050    -0.2612260
units angstrom
no_reorient  #important for SAPT in psi4, default
symmetry c1  #important for SAPT in psi4, default
}

set PROPERTIES_ORIGIN ["COM"]
properties('MP2/aug-cc-pvtz', properties = ['dipole'])
--------------------------------------------------------------------------

    Molecular point group: c1
  Charge       = 0
  Multiplicity = 1
  Basis Set: AUG-CC-PVTZ
    Blend: AUG-CC-PVTZ
  Basis Set: (AUG-CC-PVTZ AUX)
    Blend: AUG-CC-PVTZ-JKFIT

    Orbital Energies [Eh]
    ---------------------

    Doubly Occupied:

       1A    -11.223082     2A    -11.209129     3A    -11.208912
       4A    -11.208874     5A     -1.080234     6A     -0.926405
       7A     -0.925294     8A     -0.764050     9A     -0.629441
      10A     -0.595967    11A     -0.589049    12A     -0.532123
      13A     -0.520420    14A     -0.514440    15A     -0.466035
      16A     -0.464277    17A     -0.449982

  @DF-RHF Final Energy:  -157.35363799014632

   => Energetics <=

    Nuclear Repulsion Energy =            134.6441902090860765
    One-Electron Energy =                -477.3802306327829683
    Two-Electron Energy =                 185.3824024335505385
    Total Energy =                       -157.3536379901463249
  Basis Set: (AUG-CC-PVTZ AUX)
    Blend: AUG-CC-PVTZ-RI
    Molecular point group: c1

    Geometry (in Angstrom), charge = 0, multiplicity = 1:

       Center              X                  Y                   Z               Mass
    ------------   -----------------  -----------------  -----------------  -----------------
         C           -0.002883965178     0.001484503494    -0.357371543214    12.000000000000
         C           -0.011731965178     1.453472503494     0.115893456786    12.000000000000
         C            1.272896934822    -0.724277096506     0.064902256786    12.000000000000
         C           -1.255910965178    -0.732021496506     0.115871456786    12.000000000000
         H           -0.002683965178     0.001752503494    -1.455980543214     1.007825032230
         H           -0.012060965178     1.497310503494     1.210839456786     1.007825032230
         H            0.870752034822     1.993134503494    -0.242232543214     1.007825032230
         H           -0.900928965178     1.981917503494    -0.242356543214     1.007825032230
         H            1.298054034822    -0.737232496506     1.210785456786     1.007825032230
         H            2.161719034822    -0.211539496506    -0.243148543214     1.007825032230
         H            1.284853034822    -1.751012496506    -0.241260543214     1.007825032230
         H           -1.293862965178    -0.755173496506     1.210836456786     1.007825032230
         H           -1.269544965178    -1.766072496506    -0.243000543214     1.007825032230
         H           -2.164515965178    -0.237110496506    -0.241685543214     1.007825032230

  Basis Set: AUG-CC-PVTZ
    Blend: AUG-CC-PVTZ
  Basis Set: (AUG-CC-PVTZ AUX)
    Blend: AUG-CC-PVTZ-JKFIT
	 Reference Energy          =    -157.3536379901463249 [Eh]
	 Singles Energy            =      -0.0000000000000000 [Eh]
	 Same-Spin Energy          =      -0.1664839305279545 [Eh]
	 Opposite-Spin Energy      =      -0.6409551187146144 [Eh]
	 Correlation Energy        =      -0.8074390492425689 [Eh]
	 Total Energy              =    -158.1610770393888856 [Eh]

	 ================> DF-SCS-MP2 Energies <==================
	-----------------------------------------------------------
	 SCS Same-Spin Scale       =       0.3333333333333333 [-]
	 SCS Opposite-Spin Scale   =       1.2000000000000000 [-]
	 SCS Same-Spin Energy      =      -0.0554946435093182 [Eh]
	 SCS Opposite-Spin Energy  =      -0.7691461424575373 [Eh]
	 SCS Correlation Energy    =      -0.8246407859668554 [Eh]
	 SCS Total Energy          =    -158.1782787761131885 [Eh]
	-----------------------------------------------------------

  Dipole Moment: [D]
     X:    -0.0032      Y:     0.0015      Z:    -0.1674     Total:     0.1675

*** Psi4 exiting successfully. Buy a developer a beer!
