                               Psi4 1.3.2 release

  ==> Input File <==

--------------------------------------------------------------------------
#psi4
#
memory 32 gb

molecule  {
0 1
  C       -0.0000730    -0.0001100    -0.3769120
  C       -0.0089210     1.4518780     0.0963530
  C        1.2121771    -0.6898072     0.2455263
  C       -1.2531000    -0.7336160     0.0963310
  H        0.0001270     0.0001580    -1.4755210
  H       -0.0092500     1.4957160     1.1912990
  H        0.8735630     1.9915400    -0.2617730
  H       -0.8981180     1.9803230    -0.2618970
  H        1.3008650    -0.7388270     1.1912450
  H        2.1645300    -0.2131340    -0.2626890
  H        1.2876640    -1.7526070    -0.2608010
  H       -1.2910520    -0.7567680     1.1912960
  H       -1.2667340    -1.7676670    -0.2625410
  H       -2.1617050    -0.2387050    -0.2612260
units angstrom
no_reorient  #important for SAPT in psi4, default
symmetry c1  #important for SAPT in psi4, default
}

set PROPERTIES_ORIGIN ["COM"]
properties('MP2/aug-cc-pvtz', properties = ['dipole'])
--------------------------------------------------------------------------

    Molecular point group: c1
  Charge       = 0
  Multiplicity = 1
  Basis Set: AUG-CC-PVTZ
    Blend: AUG-CC-PVTZ
  Basis Set: (AUG-CC-PVTZ AUX)
    Blend: AUG-CC-PVTZ-JKFIT

    Orbital Energies [Eh]
    ---------------------

    Doubly Occupied:

       1A    -11.225230     2A    -11.212213     3A    -11.207795
       4A    -11.207765     5A     -1.083596     6A     -0.926451
       7A     -0.925472     8A     -0.772539     9A     -0.631879
      10A     -0.600658    11A     -0.574932    12A     -0.558333
      13A     -0.532283    14A     -0.491896    15A     -0.474234
      16A     -0.446735    17A     -0.445795

  @DF-RHF Final Energy:  -157.32459397790916

   => Energetics <=

    Nuclear Repulsion Energy =            135.1078721799973721
    One-Electron Energy =                -478.2293213135640713
    Two-Electron Energy =                 185.7968551556575107
    Total Energy =                       -157.3245939779091600
  Basis Set: (AUG-CC-PVTZ AUX)
    Blend: AUG-CC-PVTZ-RI
    Molecular point group: c1

    Geometry (in Angstrom), charge = 0, multiplicity = 1:

       Center              X                  Y                   Z               Mass
    ------------   -----------------  -----------------  -----------------  -----------------
         C            0.010242628612    -0.005967043300    -0.398729090776    12.000000000000
         C            0.001394628612     1.446020956700     0.074535909224    12.000000000000
         C            1.222492728612    -0.695664243300     0.223709209224    12.000000000000
         C           -1.242784371388    -0.739473043300     0.074513909224    12.000000000000
         H            0.010442628612    -0.005699043300    -1.497338090776     1.007825032230
         H            0.001065628612     1.489858956700     1.169481909224     1.007825032230
         H            0.883878628612     1.985682956700    -0.283590090776     1.007825032230
         H           -0.887802371388     1.974465956700    -0.283714090776     1.007825032230
         H            1.311180628612    -0.744684043300     1.169427909224     1.007825032230
         H            2.174845628612    -0.218991043300    -0.284506090776     1.007825032230
         H            1.297979628612    -1.758464043300    -0.282618090776     1.007825032230
         H           -1.280736371388    -0.762625043300     1.169478909224     1.007825032230
         H           -1.256418371388    -1.773524043300    -0.284358090776     1.007825032230
         H           -2.151389371388    -0.244562043300    -0.283043090776     1.007825032230

  Basis Set: AUG-CC-PVTZ
    Blend: AUG-CC-PVTZ
  Basis Set: (AUG-CC-PVTZ AUX)
    Blend: AUG-CC-PVTZ-JKFIT
	 Reference Energy          =    -157.3245939779091600 [Eh]
	 Singles Energy            =      -0.0000000000000000 [Eh]
	 Same-Spin Energy          =      -0.1669165982170349 [Eh]
	 Opposite-Spin Energy      =      -0.6423561728226341 [Eh]
	 Correlation Energy        =      -0.8092727710396690 [Eh]
	 Total Energy              =    -158.1338667489488330 [Eh]

	 ================> DF-SCS-MP2 Energies <==================
	-----------------------------------------------------------
	 SCS Same-Spin Scale       =       0.3333333333333333 [-]
	 SCS Opposite-Spin Scale   =       1.2000000000000000 [-]
	 SCS Same-Spin Energy      =      -0.0556388660723450 [Eh]
	 SCS Opposite-Spin Energy  =      -0.7708274073871609 [Eh]
	 SCS Correlation Energy    =      -0.8264662734595059 [Eh]
	 SCS Total Energy          =    -158.1510602513686763 [Eh]
	-----------------------------------------------------------

  Dipole Moment: [D]
     X:    -0.0379      Y:     0.0212      Z:    -0.0994     Total:     0.1084

*** Psi4 exiting successfully. Buy a developer a beer!
