                               Psi4 1.3.2 release

  ==> Input File <==

--------------------------------------------------------------------------
#psi4
#
memory 32 gb

molecule  {
0 1
  C       -0.0000730    -0.0001100    -0.3769120
  C       -0.1496801     1.4664545     0.0220034
  C        1.2621130    -0.7181570     0.0963290
  C       -1.2531000    -0.7336160     0.0963310
  H        0.0001270     0.0001580    -1.4755210
  H       -0.0092500     1.4957160     1.1912990
  H        0.8735630     1.9915400    -0.2617730
  H       -0.8981180     1.9803230    -0.2618970
  H        1.3008650    -0.7388270     1.1912450
  H        2.1645300    -0.2131340    -0.2626890
  H        1.2876640    -1.7526070    -0.2608010
  H       -1.2910520    -0.7567680     1.1912960
  H       -1.2667340    -1.7676670    -0.2625410
  H       -2.1617050    -0.2387050    -0.2612260
units angstrom
no_reorient  #important for SAPT in psi4, default
symmetry c1  #important for SAPT in psi4, default
}

set PROPERTIES_ORIGIN ["COM"]
properties('MP2/aug-cc-pvtz', properties = ['dipole'])
--------------------------------------------------------------------------

    Molecular point group: c1
  Charge       = 0
  Multiplicity = 1
  Basis Set: AUG-CC-PVTZ
    Blend: AUG-CC-PVTZ
  Basis Set: (AUG-CC-PVTZ AUX)
    Blend: AUG-CC-PVTZ-JKFIT

    Orbital Energies [Eh]
    ---------------------

    Doubly Occupied:

       1A    -11.225067     2A    -11.213075     3A    -11.212426
       4A    -11.207339     5A     -1.081617     6A     -0.934063
       7A     -0.922681     8A     -0.767997     9A     -0.640145
      10A     -0.599570    11A     -0.586193    12A     -0.533770
      13A     -0.529275    14A     -0.503670    15A     -0.478616
      16A     -0.446439    17A     -0.442968

  @DF-RHF Final Energy:  -157.32463233005970

   => Energetics <=

    Nuclear Repulsion Energy =            134.6571772174340254
    One-Electron Energy =                -477.3137976510118961
    Two-Electron Energy =                 185.3319881035181709
    Total Energy =                       -157.3246323300596998
  Basis Set: (AUG-CC-PVTZ AUX)
    Blend: AUG-CC-PVTZ-RI
    Molecular point group: c1

    Geometry (in Angstrom), charge = 0, multiplicity = 1:

       Center              X                  Y                   Z               Mass
    ------------   -----------------  -----------------  -----------------  -----------------
         C            0.029008317901    -0.003121234429    -0.352540323292    12.000000000000
         C           -0.120598782099     1.463443265571     0.046375076708    12.000000000000
         C            1.291194317901    -0.721168234429     0.120700676708    12.000000000000
         C           -1.224018682099    -0.736627234429     0.120702676708    12.000000000000
         H            0.029208317901    -0.002853234429    -1.451149323292     1.007825032230
         H            0.019831317901     1.492704765571     1.215670676708     1.007825032230
         H            0.902644317901     1.988528765571    -0.237401323292     1.007825032230
         H           -0.869036682099     1.977311765571    -0.237525323292     1.007825032230
         H            1.329946317901    -0.741838234429     1.215616676708     1.007825032230
         H            2.193611317901    -0.216145234429    -0.238317323292     1.007825032230
         H            1.316745317901    -1.755618234429    -0.236429323292     1.007825032230
         H           -1.261970682099    -0.759779234429     1.215667676708     1.007825032230
         H           -1.237652682099    -1.770678234429    -0.238169323292     1.007825032230
         H           -2.132623682099    -0.241716234429    -0.236854323292     1.007825032230

  Basis Set: AUG-CC-PVTZ
    Blend: AUG-CC-PVTZ
  Basis Set: (AUG-CC-PVTZ AUX)
    Blend: AUG-CC-PVTZ-JKFIT
	 Reference Energy          =    -157.3246323300596998 [Eh]
	 Singles Energy            =      -0.0000000000000000 [Eh]
	 Same-Spin Energy          =      -0.1668841917902596 [Eh]
	 Opposite-Spin Energy      =      -0.6422112447419559 [Eh]
	 Correlation Energy        =      -0.8090954365322155 [Eh]
	 Total Energy              =    -158.1337277665919032 [Eh]

	 ================> DF-SCS-MP2 Energies <==================
	-----------------------------------------------------------
	 SCS Same-Spin Scale       =       0.3333333333333333 [-]
	 SCS Opposite-Spin Scale   =       1.2000000000000000 [-]
	 SCS Same-Spin Energy      =      -0.0556280639300865 [Eh]
	 SCS Opposite-Spin Energy  =      -0.7706534936903471 [Eh]
	 SCS Correlation Energy    =      -0.8262815576204336 [Eh]
	 SCS Total Energy          =    -158.1509138876801330 [Eh]
	-----------------------------------------------------------

  Dipole Moment: [D]
     X:    -0.0067      Y:    -0.0591      Z:    -0.1736     Total:     0.1835

*** Psi4 exiting successfully. Buy a developer a beer!
