                               Psi4 1.4a3.dev225

  ==> Input File <==

--------------------------------------------------------------------------
#psi4
#
memory 32 gb

molecule  {
0 1
  C       -0.0000280    -0.0000010    -0.3767930
  C        0.2431336     1.3833432     0.0807977
  C        1.1128890    -0.9327640     0.0962290
  C       -1.3642330    -0.4974010     0.0964060
  H       -0.0001040    -0.0000030    -1.4753930
  H        0.2590560     1.4736460     1.1912410
  H        1.2162880     1.8028580    -0.2619280
  H       -0.5286700     2.1095640    -0.2618470
  H        1.1468010    -0.9611080     1.1911810
  H        2.0912440    -0.5969440    -0.2620190
  H        0.9531640    -1.9547810    -0.2619140
  H       -1.4056140    -0.5125330     1.1913650
  H       -1.5626250    -1.5126120    -0.2617590
  H       -2.1694990     0.1519130    -0.2616900
units angstrom
no_reorient  #important for SAPT in psi4, default
symmetry c1  #important for SAPT in psi4, default
}

set PROPERTIES_ORIGIN ["COM"]
properties('MP2/aug-cc-pvtz', properties = ['dipole'])
--------------------------------------------------------------------------

    Molecular point group: c1
  Charge       = 0
  Multiplicity = 1
  Basis Set: AUG-CC-PVTZ
    Blend: AUG-CC-PVTZ
  Basis Set: (AUG-CC-PVTZ AUX)
    Blend: AUG-CC-PVTZ-JKFIT

    Orbital Energies [Eh]
    ---------------------

    Doubly Occupied:

       1A    -11.220568     2A    -11.211304     3A    -11.208681
       4A    -11.208655     5A     -1.087603     6A     -0.925901
       7A     -0.924281     8A     -0.765312     9A     -0.633308
      10A     -0.591864    11A     -0.588340    12A     -0.531943
      13A     -0.526120    14A     -0.504346    15A     -0.473113
      16A     -0.457617    17A     -0.454630

  @DF-RHF Final Energy:  -157.35343091914518

   => Energetics <=

    Nuclear Repulsion Energy =            135.3767582249880661
    One-Electron Energy =                -478.8332057006725222
    Two-Electron Energy =                 186.1030165565392736
    Total Energy =                       -157.3534309191451825
  Basis Set: (AUG-CC-PVTZ AUX)
    Blend: AUG-CC-PVTZ-RI
    Molecular point group: c1

    Geometry (in Angstrom), charge = 0, multiplicity = 1:

       Center              X                  Y                   Z               Mass
    ------------   -----------------  -----------------  -----------------  -----------------
         C            0.001673488571     0.009673423676    -0.364586004274    12.000000000000
         C            0.244835088571     1.393017623676     0.093004695726    12.000000000000
         C            1.114590488571    -0.923089576324     0.108435995726    12.000000000000
         C           -1.362531511429    -0.487726576324     0.108612995726    12.000000000000
         H            0.001597488571     0.009671423676    -1.463186004274     1.007825032230
         H            0.260757488571     1.483320423676     1.203447995726     1.007825032230
         H            1.217989488571     1.812532423676    -0.249721004274     1.007825032230
         H           -0.526968511429     2.119238423676    -0.249640004274     1.007825032230
         H            1.148502488571    -0.951433576324     1.203387995726     1.007825032230
         H            2.092945488571    -0.587269576324    -0.249812004274     1.007825032230
         H            0.954865488571    -1.945106576324    -0.249707004274     1.007825032230
         H           -1.403912511429    -0.502858576324     1.203571995726     1.007825032230
         H           -1.560923511429    -1.502937576324    -0.249552004274     1.007825032230
         H           -2.167797511429     0.161587423676    -0.249483004274     1.007825032230

  Basis Set: AUG-CC-PVTZ
    Blend: AUG-CC-PVTZ
  Basis Set: (AUG-CC-PVTZ AUX)
    Blend: AUG-CC-PVTZ-JKFIT
	 Reference Energy          =    -157.3534309191451825 [Eh]
	 Singles Energy            =      -0.0000000000000000 [Eh]
	 Same-Spin Energy          =      -0.1668938817722614 [Eh]
	 Opposite-Spin Energy      =      -0.6413258848312759 [Eh]
	 Correlation Energy        =      -0.8082197666035373 [Eh]
	 Total Energy              =    -158.1616506857487252 [Eh]

	 ================> DF-SCS-MP2 Energies <==================
	-----------------------------------------------------------
	 SCS Same-Spin Scale       =       0.3333333333333333 [-]
	 SCS Opposite-Spin Scale   =       1.2000000000000000 [-]
	 SCS Same-Spin Energy      =      -0.0556312939240871 [Eh]
	 SCS Opposite-Spin Energy  =      -0.7695910617975311 [Eh]
	 SCS Correlation Energy    =      -0.8252223557216183 [Eh]
	 SCS Total Energy          =    -158.1786532748668037 [Eh]
	-----------------------------------------------------------

  Dipole Moment: [D]
     X:    -0.0002      Y:    -0.0011      Z:    -0.1392     Total:     0.1392

*** Psi4 exiting successfully. Buy a developer a beer!
