                               Psi4 1.3.2 release

  ==> Input File <==

--------------------------------------------------------------------------
#psi4
#
memory 32 gb

molecule  {
0 1
  C       -0.0000730    -0.0001100    -0.3769120
  C       -0.0089210     1.4518780     0.0963530
  C        1.2621130    -0.7181570     0.0963290
  C       -1.2531000    -0.7336160     0.0963310
  H        0.0001270     0.0001580    -1.4755210
  H       -0.0092500     1.4957160     1.1912990
  H        0.8735630     1.9915400    -0.2617730
  H       -0.8981180     1.9803230    -0.2618970
  H        1.3008650    -0.7388270     1.1912450
  H        2.1645300    -0.2131340    -0.2626890
  H        1.2876640    -1.7526070    -0.2608010
  H       -1.2910520    -0.7567680     1.1912960
  H       -1.2667340    -1.7676670    -0.2625410
  H       -2.1617050    -0.2387050    -0.2612260
units angstrom
no_reorient  #important for SAPT in psi4, default
symmetry c1  #important for SAPT in psi4, default
}

set PROPERTIES_ORIGIN ["COM"]
properties('MP2/aug-cc-pvtz', properties = ['dipole'])
--------------------------------------------------------------------------

    Molecular point group: c1
  Charge       = 0
  Multiplicity = 1
  Basis Set: AUG-CC-PVTZ
    Blend: AUG-CC-PVTZ
  Basis Set: (AUG-CC-PVTZ AUX)
    Blend: AUG-CC-PVTZ-JKFIT

    Orbital Energies [Eh]
    ---------------------

    Doubly Occupied:

       1A    -11.222860     2A    -11.208432     3A    -11.208418
       4A    -11.208384     5A     -1.080532     6A     -0.925127
       7A     -0.925093     8A     -0.764460     9A     -0.630519
      10A     -0.588810    11A     -0.588780    12A     -0.531859
      13A     -0.531832    14A     -0.508570    15A     -0.461619
      16A     -0.461515    17A     -0.457824

  @DF-RHF Final Energy:  -157.35648440523124

   => Energetics <=

    Nuclear Repulsion Energy =            134.7460821822145931
    One-Electron Energy =                -477.5958624165833726
    Two-Electron Energy =                 185.4932958291375371
    Total Energy =                       -157.3564844052312424
  Basis Set: (AUG-CC-PVTZ AUX)
    Blend: AUG-CC-PVTZ-RI
    Molecular point group: c1

    Geometry (in Angstrom), charge = 0, multiplicity = 1:

       Center              X                  Y                   Z               Mass
    ------------   -----------------  -----------------  -----------------  -----------------
         C           -0.000075016921    -0.000109470145    -0.367902273679    12.000000000000
         C           -0.008923016921     1.451878529855     0.105362726321    12.000000000000
         C            1.262110983079    -0.718156470145     0.105338726321    12.000000000000
         C           -1.253102016921    -0.733615470145     0.105340726321    12.000000000000
         H            0.000124983079     0.000158529855    -1.466511273679     1.007825032230
         H           -0.009252016921     1.495716529855     1.200308726321     1.007825032230
         H            0.873560983079     1.991540529855    -0.252763273679     1.007825032230
         H           -0.898120016921     1.980323529855    -0.252887273679     1.007825032230
         H            1.300862983079    -0.738826470145     1.200254726321     1.007825032230
         H            2.164527983079    -0.213133470145    -0.253679273679     1.007825032230
         H            1.287661983079    -1.752606470145    -0.251791273679     1.007825032230
         H           -1.291054016921    -0.756767470145     1.200305726321     1.007825032230
         H           -1.266736016921    -1.767666470145    -0.253531273679     1.007825032230
         H           -2.161707016921    -0.238704470145    -0.252216273679     1.007825032230

  Basis Set: AUG-CC-PVTZ
    Blend: AUG-CC-PVTZ
  Basis Set: (AUG-CC-PVTZ AUX)
    Blend: AUG-CC-PVTZ-JKFIT
	 Reference Energy          =    -157.3564844052312424 [Eh]
	 Singles Energy            =      -0.0000000000000000 [Eh]
	 Same-Spin Energy          =      -0.1664530533228037 [Eh]
	 Opposite-Spin Energy      =      -0.6408602191321509 [Eh]
	 Correlation Energy        =      -0.8073132724549545 [Eh]
	 Total Energy              =    -158.1637976776862047 [Eh]

	 ================> DF-SCS-MP2 Energies <==================
	-----------------------------------------------------------
	 SCS Same-Spin Scale       =       0.3333333333333333 [-]
	 SCS Opposite-Spin Scale   =       1.2000000000000000 [-]
	 SCS Same-Spin Energy      =      -0.0554843511076012 [Eh]
	 SCS Opposite-Spin Energy  =      -0.7690322629585810 [Eh]
	 SCS Correlation Energy    =      -0.8245166140661822 [Eh]
	 SCS Total Energy          =    -158.1810010192974119 [Eh]
	-----------------------------------------------------------

  Dipole Moment: [D]
     X:    -0.0001      Y:    -0.0002      Z:    -0.1377     Total:     0.1377

*** Psi4 exiting successfully. Buy a developer a beer!
