                               Psi4 1.3.2 release

  ==> Input File <==

--------------------------------------------------------------------------
#psi4
#
memory 32 gb

molecule  {
0 1
  C       -0.0000730    -0.0001100    -0.3769120
  C       -0.0089210     1.4518780     0.0963530
  C        1.2469803    -0.7095676     0.1467196
  C       -1.2531000    -0.7336160     0.0963310
  H        0.0001270     0.0001580    -1.4755210
  H       -0.0092500     1.4957160     1.1912990
  H        0.8735630     1.9915400    -0.2617730
  H       -0.8981180     1.9803230    -0.2618970
  H        1.3008650    -0.7388270     1.1912450
  H        2.1645300    -0.2131340    -0.2626890
  H        1.2876640    -1.7526070    -0.2608010
  H       -1.2910520    -0.7567680     1.1912960
  H       -1.2667340    -1.7676670    -0.2625410
  H       -2.1617050    -0.2387050    -0.2612260
units angstrom
no_reorient  #important for SAPT in psi4, default
symmetry c1  #important for SAPT in psi4, default
}

set PROPERTIES_ORIGIN ["COM"]
properties('MP2/aug-cc-pvtz', properties = ['dipole'])
--------------------------------------------------------------------------

    Molecular point group: c1
  Charge       = 0
  Multiplicity = 1
  Basis Set: AUG-CC-PVTZ
    Blend: AUG-CC-PVTZ
  Basis Set: (AUG-CC-PVTZ AUX)
    Blend: AUG-CC-PVTZ-JKFIT

    Orbital Energies [Eh]
    ---------------------

    Doubly Occupied:

       1A    -11.223129     2A    -11.208710     3A    -11.208074
       4A    -11.208040     5A     -1.081189     6A     -0.925071
       7A     -0.924546     8A     -0.765928     9A     -0.631359
      10A     -0.589944    11A     -0.582884    12A     -0.543217
      13A     -0.531797    14A     -0.502362    15A     -0.464549
      16A     -0.457868    17A     -0.456528

  @DF-RHF Final Energy:  -157.35322553920727

   => Energetics <=

    Nuclear Repulsion Energy =            134.8554203130717326
    One-Electron Energy =                -477.8068968586247252
    Two-Electron Energy =                 185.5982510063456914
    Total Energy =                       -157.3532255392072727
  Basis Set: (AUG-CC-PVTZ AUX)
    Blend: AUG-CC-PVTZ-RI
    Molecular point group: c1

    Geometry (in Angstrom), charge = 0, multiplicity = 1:

       Center              X                  Y                   Z               Mass
    ------------   -----------------  -----------------  -----------------  -----------------
         C            0.003051668180    -0.001884193030    -0.378313868323    12.000000000000
         C           -0.005796331820     1.450103806970     0.094951131677    12.000000000000
         C            1.250104968180    -0.711341793030     0.145317731677    12.000000000000
         C           -1.249975331820    -0.735390193030     0.094929131677    12.000000000000
         H            0.003251668180    -0.001616193030    -1.476922868323     1.007825032230
         H           -0.006125331820     1.493941806970     1.189897131677     1.007825032230
         H            0.876687668180     1.989765806970    -0.263174868323     1.007825032230
         H           -0.894993331820     1.978548806970    -0.263298868323     1.007825032230
         H            1.303989668180    -0.740601193030     1.189843131677     1.007825032230
         H            2.167654668180    -0.214908193030    -0.264090868323     1.007825032230
         H            1.290788668180    -1.754381193030    -0.262202868323     1.007825032230
         H           -1.287927331820    -0.758542193030     1.189894131677     1.007825032230
         H           -1.263609331820    -1.769441193030    -0.263942868323     1.007825032230
         H           -2.158580331820    -0.240479193030    -0.262627868323     1.007825032230

  Basis Set: AUG-CC-PVTZ
    Blend: AUG-CC-PVTZ
  Basis Set: (AUG-CC-PVTZ AUX)
    Blend: AUG-CC-PVTZ-JKFIT
	 Reference Energy          =    -157.3532255392072727 [Eh]
	 Singles Energy            =      -0.0000000000000000 [Eh]
	 Same-Spin Energy          =      -0.1665114190619352 [Eh]
	 Opposite-Spin Energy      =      -0.6410460654527029 [Eh]
	 Correlation Energy        =      -0.8075574845146380 [Eh]
	 Total Energy              =    -158.1607830237219048 [Eh]

	 ================> DF-SCS-MP2 Energies <==================
	-----------------------------------------------------------
	 SCS Same-Spin Scale       =       0.3333333333333333 [-]
	 SCS Opposite-Spin Scale   =       1.2000000000000000 [-]
	 SCS Same-Spin Energy      =      -0.0555038063539784 [Eh]
	 SCS Opposite-Spin Energy  =      -0.7692552785432435 [Eh]
	 SCS Correlation Energy    =      -0.8247590848972219 [Eh]
	 SCS Total Energy          =    -158.1779846241044822 [Eh]
	-----------------------------------------------------------

  Dipole Moment: [D]
     X:    -0.0045      Y:     0.0023      Z:    -0.1163     Total:     0.1164

*** Psi4 exiting successfully. Buy a developer a beer!
