                               Psi4 1.4a3.dev225

  ==> Input File <==

--------------------------------------------------------------------------
#psi4
#
memory 32 gb

molecule  {
0 1
  C       -0.0000280    -0.0000010    -0.3767930
  C        0.2595944     1.4769888     0.1117743
  C        1.1128890    -0.9327640     0.0962290
  C       -1.3642330    -0.4974010     0.0964060
  H       -0.0001040    -0.0000030    -1.4753930
  H        0.2590560     1.4736460     1.1912410
  H        1.2162880     1.8028580    -0.2619280
  H       -0.5286700     2.1095640    -0.2618470
  H        1.1468010    -0.9611080     1.1911810
  H        2.0912440    -0.5969440    -0.2620190
  H        0.9531640    -1.9547810    -0.2619140
  H       -1.4056140    -0.5125330     1.1913650
  H       -1.5626250    -1.5126120    -0.2617590
  H       -2.1694990     0.1519130    -0.2616900
units angstrom
no_reorient  #important for SAPT in psi4, default
symmetry c1  #important for SAPT in psi4, default
}

set PROPERTIES_ORIGIN ["COM"]
properties('MP2/aug-cc-pvtz', properties = ['dipole'])
--------------------------------------------------------------------------

    Molecular point group: c1
  Charge       = 0
  Multiplicity = 1
  Basis Set: AUG-CC-PVTZ
    Blend: AUG-CC-PVTZ
  Basis Set: (AUG-CC-PVTZ AUX)
    Blend: AUG-CC-PVTZ-JKFIT

    Orbital Energies [Eh]
    ---------------------

    Doubly Occupied:

       1A    -11.225008     2A    -11.208333     3A    -11.208311
       4A    -11.206234     5A     -1.074611     6A     -0.926244
       7A     -0.924500     8A     -0.763532     9A     -0.628445
      10A     -0.590105    11A     -0.586128    12A     -0.538283
      13A     -0.531963    14A     -0.513072    15A     -0.464212
      16A     -0.460958    17A     -0.447829

  @DF-RHF Final Energy:  -157.35483809460519

   => Energetics <=

    Nuclear Repulsion Energy =            134.1347065701687029
    One-Electron Energy =                -476.3835541627968269
    Two-Electron Energy =                 184.8940094980229389
    Total Energy =                       -157.3548380946051850
  Basis Set: (AUG-CC-PVTZ AUX)
    Blend: AUG-CC-PVTZ-RI
    Molecular point group: c1

    Geometry (in Angstrom), charge = 0, multiplicity = 1:

       Center              X                  Y                   Z               Mass
    ------------   -----------------  -----------------  -----------------  -----------------
         C           -0.001727605623    -0.009675423676    -0.370986321052    12.000000000000
         C            0.257894794377     1.467314376324     0.117580978948    12.000000000000
         C            1.111189394377    -0.942438423676     0.102035678948    12.000000000000
         C           -1.365932605623    -0.507075423676     0.102212678948    12.000000000000
         H           -0.001803605623    -0.009677423676    -1.469586321052     1.007825032230
         H            0.257356394377     1.463971576324     1.197047678948     1.007825032230
         H            1.214588394377     1.793183576324    -0.256121321052     1.007825032230
         H           -0.530369605623     2.099889576324    -0.256040321052     1.007825032230
         H            1.145101394377    -0.970782423676     1.196987678948     1.007825032230
         H            2.089544394377    -0.606618423676    -0.256212321052     1.007825032230
         H            0.951464394377    -1.964455423676    -0.256107321052     1.007825032230
         H           -1.407313605623    -0.522207423676     1.197171678948     1.007825032230
         H           -1.564324605623    -1.522286423676    -0.255952321052     1.007825032230
         H           -2.171198605623     0.142238576324    -0.255883321052     1.007825032230

  Basis Set: AUG-CC-PVTZ
    Blend: AUG-CC-PVTZ
  Basis Set: (AUG-CC-PVTZ AUX)
    Blend: AUG-CC-PVTZ-JKFIT
	 Reference Energy          =    -157.3548380946051850 [Eh]
	 Singles Energy            =      -0.0000000000000000 [Eh]
	 Same-Spin Energy          =      -0.1661963763115077 [Eh]
	 Opposite-Spin Energy      =      -0.6407219873719859 [Eh]
	 Correlation Energy        =      -0.8069183636834936 [Eh]
	 Total Energy              =    -158.1617564582886644 [Eh]

	 ================> DF-SCS-MP2 Energies <==================
	-----------------------------------------------------------
	 SCS Same-Spin Scale       =       0.3333333333333333 [-]
	 SCS Opposite-Spin Scale   =       1.2000000000000000 [-]
	 SCS Same-Spin Energy      =      -0.0553987921038359 [Eh]
	 SCS Opposite-Spin Energy  =      -0.7688663848463831 [Eh]
	 SCS Correlation Energy    =      -0.8242651769502191 [Eh]
	 SCS Total Energy          =    -158.1791032715553911 [Eh]
	-----------------------------------------------------------

  Dipole Moment: [D]
     X:    -0.0018      Y:    -0.0102      Z:    -0.1391     Total:     0.1395

*** Psi4 exiting successfully. Buy a developer a beer!
