                               Psi4 1.3.2 release

  ==> Input File <==

--------------------------------------------------------------------------
#psi4
#
memory 32 gb

molecule  {
0 1
  C       -0.0000730    -0.0001100    -0.3769120
  C        0.1319350     1.4213932     0.1655174
  C        1.2621130    -0.7181570     0.0963290
  C       -1.2531000    -0.7336160     0.0963310
  H        0.0001270     0.0001580    -1.4755210
  H       -0.0092500     1.4957160     1.1912990
  H        0.8735630     1.9915400    -0.2617730
  H       -0.8981180     1.9803230    -0.2618970
  H        1.3008650    -0.7388270     1.1912450
  H        2.1645300    -0.2131340    -0.2626890
  H        1.2876640    -1.7526070    -0.2608010
  H       -1.2910520    -0.7567680     1.1912960
  H       -1.2667340    -1.7676670    -0.2625410
  H       -2.1617050    -0.2387050    -0.2612260
units angstrom
no_reorient  #important for SAPT in psi4, default
symmetry c1  #important for SAPT in psi4, default
}

set PROPERTIES_ORIGIN ["COM"]
properties('MP2/aug-cc-pvtz', properties = ['dipole'])
--------------------------------------------------------------------------

    Molecular point group: c1
  Charge       = 0
  Multiplicity = 1
  Basis Set: AUG-CC-PVTZ
    Blend: AUG-CC-PVTZ
  Basis Set: (AUG-CC-PVTZ AUX)
    Blend: AUG-CC-PVTZ-JKFIT

    Orbital Energies [Eh]
    ---------------------

    Doubly Occupied:

       1A    -11.224883     2A    -11.212734     3A    -11.210681
       4A    -11.206687     5A     -1.082958     6A     -0.930894
       7A     -0.921357     8A     -0.768015     9A     -0.640196
      10A     -0.591685    11A     -0.585333    12A     -0.547514
      13A     -0.532269    14A     -0.496341    15A     -0.473541
      16A     -0.465566    17A     -0.429046

  @DF-RHF Final Energy:  -157.33289997931172

   => Energetics <=

    Nuclear Repulsion Energy =            134.9306011476079732
    One-Electron Energy =                -477.8876031535395441
    Two-Electron Energy =                 185.6241020266198802
    Total Energy =                       -157.3328999793117191
  Basis Set: (AUG-CC-PVTZ AUX)
    Blend: AUG-CC-PVTZ-RI
    Molecular point group: c1

    Geometry (in Angstrom), charge = 0, multiplicity = 1:

       Center              X                  Y                   Z               Mass
    ------------   -----------------  -----------------  -----------------  -----------------
         C           -0.029178373007     0.006189232002    -0.382192869477    12.000000000000
         C            0.102829626993     1.427692432002     0.160236530523    12.000000000000
         C            1.233007626993    -0.711857767998     0.091048130523    12.000000000000
         C           -1.282205373007    -0.727316767998     0.091050130523    12.000000000000
         H           -0.028978373007     0.006457232002    -1.480801869477     1.007825032230
         H           -0.038355373007     1.502015232002     1.186018130523     1.007825032230
         H            0.844457626993     1.997839232002    -0.267053869477     1.007825032230
         H           -0.927223373007     1.986622232002    -0.267177869477     1.007825032230
         H            1.271759626993    -0.732527767998     1.185964130523     1.007825032230
         H            2.135424626993    -0.206834767998    -0.267969869477     1.007825032230
         H            1.258558626993    -1.746307767998    -0.266081869477     1.007825032230
         H           -1.320157373007    -0.750468767998     1.186015130523     1.007825032230
         H           -1.295839373007    -1.761367767998    -0.267821869477     1.007825032230
         H           -2.190810373007    -0.232405767998    -0.266506869477     1.007825032230

  Basis Set: AUG-CC-PVTZ
    Blend: AUG-CC-PVTZ
  Basis Set: (AUG-CC-PVTZ AUX)
    Blend: AUG-CC-PVTZ-JKFIT
	 Reference Energy          =    -157.3328999793117191 [Eh]
	 Singles Energy            =      -0.0000000000000000 [Eh]
	 Same-Spin Energy          =      -0.1668901343341510 [Eh]
	 Opposite-Spin Energy      =      -0.6421755011559953 [Eh]
	 Correlation Energy        =      -0.8090656354901463 [Eh]
	 Total Energy              =    -158.1419656148018760 [Eh]

	 ================> DF-SCS-MP2 Energies <==================
	-----------------------------------------------------------
	 SCS Same-Spin Scale       =       0.3333333333333333 [-]
	 SCS Opposite-Spin Scale   =       1.2000000000000000 [-]
	 SCS Same-Spin Energy      =      -0.0556300447780503 [Eh]
	 SCS Opposite-Spin Energy  =      -0.7706106013871944 [Eh]
	 SCS Correlation Energy    =      -0.8262406461652447 [Eh]
	 SCS Total Energy          =    -158.1591406254769652 [Eh]
	-----------------------------------------------------------

  Dipole Moment: [D]
     X:     0.0516      Y:    -0.0532      Z:    -0.1009     Total:     0.1252

*** Psi4 exiting successfully. Buy a developer a beer!
