                               Psi4 1.3.2 release

  ==> Input File <==

--------------------------------------------------------------------------
#psi4
#
memory 32 gb

molecule  {
0 1
  C       -0.0000730    -0.0001100    -0.3769120
  C       -0.0089210     1.4518780     0.0963530
  C        1.2982201    -0.7386397    -0.0580532
  C       -1.2531000    -0.7336160     0.0963310
  H        0.0001270     0.0001580    -1.4755210
  H       -0.0092500     1.4957160     1.1912990
  H        0.8735630     1.9915400    -0.2617730
  H       -0.8981180     1.9803230    -0.2618970
  H        1.3008650    -0.7388270     1.1912450
  H        2.1645300    -0.2131340    -0.2626890
  H        1.2876640    -1.7526070    -0.2608010
  H       -1.2910520    -0.7567680     1.1912960
  H       -1.2667340    -1.7676670    -0.2625410
  H       -2.1617050    -0.2387050    -0.2612260
units angstrom
no_reorient  #important for SAPT in psi4, default
symmetry c1  #important for SAPT in psi4, default
}

set PROPERTIES_ORIGIN ["COM"]
properties('MP2/aug-cc-pvtz', properties = ['dipole'])
--------------------------------------------------------------------------

    Molecular point group: c1
  Charge       = 0
  Multiplicity = 1
  Basis Set: AUG-CC-PVTZ
    Blend: AUG-CC-PVTZ
  Basis Set: (AUG-CC-PVTZ AUX)
    Blend: AUG-CC-PVTZ-JKFIT

    Orbital Energies [Eh]
    ---------------------

    Doubly Occupied:

       1A    -11.224872     2A    -11.213634     3A    -11.210241
       4A    -11.210199     5A     -1.080668     6A     -0.930418
       7A     -0.926069     8A     -0.765619     9A     -0.627013
      10A     -0.612964    11A     -0.591369    12A     -0.533515
      13A     -0.523361    14A     -0.502416    15A     -0.474391
      16A     -0.468117    17A     -0.428624

  @DF-RHF Final Energy:  -157.33367910971077

   => Energetics <=

    Nuclear Repulsion Energy =            134.4494030301529506
    One-Electron Energy =                -476.9191787663747846
    Two-Electron Energy =                 185.1360966265110619
    Total Energy =                       -157.3336791097107721
  Basis Set: (AUG-CC-PVTZ AUX)
    Blend: AUG-CC-PVTZ-RI
    Molecular point group: c1

    Geometry (in Angstrom), charge = 0, multiplicity = 1:

       Center              X                  Y                   Z               Mass
    ------------   -----------------  -----------------  -----------------  -----------------
         C           -0.007535386295     0.004122620158    -0.336004163978    12.000000000000
         C           -0.016383386295     1.456110620158     0.137260836022    12.000000000000
         C            1.290757713705    -0.734407079842    -0.017145363978    12.000000000000
         C           -1.260562386295    -0.729383379842     0.137238836022    12.000000000000
         H           -0.007335386295     0.004390620158    -1.434613163978     1.007825032230
         H           -0.016712386295     1.499948620158     1.232206836022     1.007825032230
         H            0.866100613705     1.995772620158    -0.220865163978     1.007825032230
         H           -0.905580386295     1.984555620158    -0.220989163978     1.007825032230
         H            1.293402613705    -0.734594379842     1.232152836022     1.007825032230
         H            2.157067613705    -0.208901379842    -0.221781163978     1.007825032230
         H            1.280201613705    -1.748374379842    -0.219893163978     1.007825032230
         H           -1.298514386295    -0.752535379842     1.232203836022     1.007825032230
         H           -1.274196386295    -1.763434379842    -0.221633163978     1.007825032230
         H           -2.169167386295    -0.234472379842    -0.220318163978     1.007825032230

  Basis Set: AUG-CC-PVTZ
    Blend: AUG-CC-PVTZ
  Basis Set: (AUG-CC-PVTZ AUX)
    Blend: AUG-CC-PVTZ-JKFIT
	 Reference Energy          =    -157.3336791097107721 [Eh]
	 Singles Energy            =      -0.0000000000000000 [Eh]
	 Same-Spin Energy          =      -0.1667958548995051 [Eh]
	 Opposite-Spin Energy      =      -0.6419165375761560 [Eh]
	 Correlation Energy        =      -0.8087123924756611 [Eh]
	 Total Energy              =    -158.1423915021864275 [Eh]

	 ================> DF-SCS-MP2 Energies <==================
	-----------------------------------------------------------
	 SCS Same-Spin Scale       =       0.3333333333333333 [-]
	 SCS Opposite-Spin Scale   =       1.2000000000000000 [-]
	 SCS Same-Spin Energy      =      -0.0555986182998350 [Eh]
	 SCS Opposite-Spin Energy  =      -0.7702998450913872 [Eh]
	 SCS Correlation Energy    =      -0.8258984633912222 [Eh]
	 SCS Total Energy          =    -158.1595775731019842 [Eh]
	-----------------------------------------------------------

  Dipole Moment: [D]
     X:    -0.0295      Y:     0.0164      Z:    -0.2474     Total:     0.2497

*** Psi4 exiting successfully. Buy a developer a beer!
