                               Psi4 1.3.2 release

  ==> Input File <==

--------------------------------------------------------------------------
#psi4
#
memory 32 gb

molecule  {
0 1
  C       -0.0000730    -0.0001100    -0.3769120
  C        0.0145900     1.4478951     0.1082617
  C        1.2621130    -0.7181570     0.0963290
  C       -1.2531000    -0.7336160     0.0963310
  H        0.0001270     0.0001580    -1.4755210
  H       -0.0092500     1.4957160     1.1912990
  H        0.8735630     1.9915400    -0.2617730
  H       -0.8981180     1.9803230    -0.2618970
  H        1.3008650    -0.7388270     1.1912450
  H        2.1645300    -0.2131340    -0.2626890
  H        1.2876640    -1.7526070    -0.2608010
  H       -1.2910520    -0.7567680     1.1912960
  H       -1.2667340    -1.7676670    -0.2625410
  H       -2.1617050    -0.2387050    -0.2612260
units angstrom
no_reorient  #important for SAPT in psi4, default
symmetry c1  #important for SAPT in psi4, default
}

set PROPERTIES_ORIGIN ["COM"]
properties('MP2/aug-cc-pvtz', properties = ['dipole'])
--------------------------------------------------------------------------

    Molecular point group: c1
  Charge       = 0
  Multiplicity = 1
  Basis Set: AUG-CC-PVTZ
    Blend: AUG-CC-PVTZ
  Basis Set: (AUG-CC-PVTZ AUX)
    Blend: AUG-CC-PVTZ-JKFIT

    Orbital Energies [Eh]
    ---------------------

    Doubly Occupied:

       1A    -11.222924     2A    -11.208726     3A    -11.208475
       4A    -11.207962     5A     -1.080694     6A     -0.925894
       7A     -0.924187     8A     -0.764763     9A     -0.631034
      10A     -0.589126    11A     -0.587135    12A     -0.534798
      13A     -0.531794    14A     -0.506888    15A     -0.463786
      16A     -0.459580    17A     -0.457062

  @DF-RHF Final Energy:  -157.35571782260766

   => Energetics <=

    Nuclear Repulsion Energy =            134.7722122844517969
    One-Electron Energy =                -477.6462041405050627
    Two-Electron Energy =                 185.5182740334456355
    Total Energy =                       -157.3557178226076587
  Basis Set: (AUG-CC-PVTZ AUX)
    Blend: AUG-CC-PVTZ-RI
    Molecular point group: c1

    Geometry (in Angstrom), charge = 0, multiplicity = 1:

       Center              X                  Y                   Z               Mass
    ------------   -----------------  -----------------  -----------------  -----------------
         C           -0.004932807892     0.000713467870    -0.370362823010    12.000000000000
         C            0.009730192108     1.448718567870     0.114810876990    12.000000000000
         C            1.257253192108    -0.717333532130     0.102878176990    12.000000000000
         C           -1.257959807892    -0.732792532130     0.102880176990    12.000000000000
         H           -0.004732807892     0.000981467870    -1.468971823010     1.007825032230
         H           -0.014109807892     1.496539467870     1.197848176990     1.007825032230
         H            0.868703192108     1.992363467870    -0.255223823010     1.007825032230
         H           -0.902977807892     1.981146467870    -0.255347823010     1.007825032230
         H            1.296005192108    -0.738003532130     1.197794176990     1.007825032230
         H            2.159670192108    -0.212310532130    -0.256139823010     1.007825032230
         H            1.282804192108    -1.751783532130    -0.254251823010     1.007825032230
         H           -1.295911807892    -0.755944532130     1.197845176990     1.007825032230
         H           -1.271593807892    -1.766843532130    -0.255991823010     1.007825032230
         H           -2.166564807892    -0.237881532130    -0.254676823010     1.007825032230

  Basis Set: AUG-CC-PVTZ
    Blend: AUG-CC-PVTZ
  Basis Set: (AUG-CC-PVTZ AUX)
    Blend: AUG-CC-PVTZ-JKFIT
	 Reference Energy          =    -157.3557178226076587 [Eh]
	 Singles Energy            =      -0.0000000000000000 [Eh]
	 Same-Spin Energy          =      -0.1664681737831636 [Eh]
	 Opposite-Spin Energy      =      -0.6409068681067276 [Eh]
	 Correlation Energy        =      -0.8073750418898912 [Eh]
	 Total Energy              =    -158.1630928644975427 [Eh]

	 ================> DF-SCS-MP2 Energies <==================
	-----------------------------------------------------------
	 SCS Same-Spin Scale       =       0.3333333333333333 [-]
	 SCS Opposite-Spin Scale   =       1.2000000000000000 [-]
	 SCS Same-Spin Energy      =      -0.0554893912610545 [Eh]
	 SCS Opposite-Spin Energy  =      -0.7690882417280731 [Eh]
	 SCS Correlation Energy    =      -0.8245776329891277 [Eh]
	 SCS Total Energy          =    -158.1802954555967915 [Eh]
	-----------------------------------------------------------

  Dipole Moment: [D]
     X:     0.0055      Y:    -0.0019      Z:    -0.1316     Total:     0.1317

*** Psi4 exiting successfully. Buy a developer a beer!
