                               Psi4 1.3.2 release

  ==> Input File <==

--------------------------------------------------------------------------
#psi4
#
memory 32 gb

molecule  {
0 1
  C       -0.0000730    -0.0001100    -0.3769120
  C       -0.0077623     1.2617271     0.0343747
  C        1.2621130    -0.7181570     0.0963290
  C       -1.2531000    -0.7336160     0.0963310
  H        0.0001270     0.0001580    -1.4755210
  H       -0.0092500     1.4957160     1.1912990
  H        0.8735630     1.9915400    -0.2617730
  H       -0.8981180     1.9803230    -0.2618970
  H        1.3008650    -0.7388270     1.1912450
  H        2.1645300    -0.2131340    -0.2626890
  H        1.2876640    -1.7526070    -0.2608010
  H       -1.2910520    -0.7567680     1.1912960
  H       -1.2667340    -1.7676670    -0.2625410
  H       -2.1617050    -0.2387050    -0.2612260
units angstrom
no_reorient  #important for SAPT in psi4, default
symmetry c1  #important for SAPT in psi4, default
}

set PROPERTIES_ORIGIN ["COM"]
properties('MP2/aug-cc-pvtz', properties = ['dipole'])
--------------------------------------------------------------------------

    Molecular point group: c1
  Charge       = 0
  Multiplicity = 1
  Basis Set: AUG-CC-PVTZ
    Blend: AUG-CC-PVTZ
  Basis Set: (AUG-CC-PVTZ AUX)
    Blend: AUG-CC-PVTZ-JKFIT

    Orbital Energies [Eh]
    ---------------------

    Doubly Occupied:

       1A    -11.223373     2A    -11.212790     3A    -11.210683
       4A    -11.210585     5A     -1.117730     6A     -0.929662
       7A     -0.924993     8A     -0.765740     9A     -0.646612
      10A     -0.602734    11A     -0.592532    12A     -0.533497
      13A     -0.518993    14A     -0.499171    15A     -0.497943
      16A     -0.434809    17A     -0.434212

  @DF-RHF Final Energy:  -157.30654434632612

   => Energetics <=

    Nuclear Repulsion Energy =            137.4710659877289913
    One-Electron Energy =                -482.8431053708108038
    Two-Electron Energy =                 188.0654950367556921
    Total Energy =                       -157.3065443463261204
  Basis Set: (AUG-CC-PVTZ AUX)
    Blend: AUG-CC-PVTZ-RI
    Molecular point group: c1

    Geometry (in Angstrom), charge = 0, multiplicity = 1:

       Center              X                  Y                   Z               Mass
    ------------   -----------------  -----------------  -----------------  -----------------
         C           -0.000314424960     0.039179089468    -0.355096454016    12.000000000000
         C           -0.008003724960     1.301016189468     0.056190245984    12.000000000000
         C            1.261871575040    -0.678867910532     0.118144545984    12.000000000000
         C           -1.253341424960    -0.694326910532     0.118146545984    12.000000000000
         H           -0.000114424960     0.039447089468    -1.453705454016     1.007825032230
         H           -0.009491424960     1.535005089468     1.213114545984     1.007825032230
         H            0.873321575040     2.030829089468    -0.239957454016     1.007825032230
         H           -0.898359424960     2.019612089468    -0.240081454016     1.007825032230
         H            1.300623575040    -0.699537910532     1.213060545984     1.007825032230
         H            2.164288575040    -0.173844910532    -0.240873454016     1.007825032230
         H            1.287422575040    -1.713317910532    -0.238985454016     1.007825032230
         H           -1.291293424960    -0.717478910532     1.213111545984     1.007825032230
         H           -1.266975424960    -1.728377910532    -0.240725454016     1.007825032230
         H           -2.161946424960    -0.199415910532    -0.239410454016     1.007825032230

  Basis Set: AUG-CC-PVTZ
    Blend: AUG-CC-PVTZ
  Basis Set: (AUG-CC-PVTZ AUX)
    Blend: AUG-CC-PVTZ-JKFIT
	 Reference Energy          =    -157.3065443463261204 [Eh]
	 Singles Energy            =      -0.0000000000000000 [Eh]
	 Same-Spin Energy          =      -0.1695043135563312 [Eh]
	 Opposite-Spin Energy      =      -0.6449199847249674 [Eh]
	 Correlation Energy        =      -0.8144242982812986 [Eh]
	 Total Energy              =    -158.1209686446074159 [Eh]

	 ================> DF-SCS-MP2 Energies <==================
	-----------------------------------------------------------
	 SCS Same-Spin Scale       =       0.3333333333333333 [-]
	 SCS Opposite-Spin Scale   =       1.2000000000000000 [-]
	 SCS Same-Spin Energy      =      -0.0565014378521104 [Eh]
	 SCS Opposite-Spin Energy  =      -0.7739039816699608 [Eh]
	 SCS Correlation Energy    =      -0.8304054195220711 [Eh]
	 SCS Total Energy          =    -158.1369497658481862 [Eh]
	-----------------------------------------------------------

  Dipole Moment: [D]
     X:     0.0004      Y:    -0.0853      Z:    -0.1643     Total:     0.1851

*** Psi4 exiting successfully. Buy a developer a beer!
