                               Psi4 1.3.2 release

  ==> Input File <==

--------------------------------------------------------------------------
#psi4
#
memory 32 gb

molecule  {
0 1
  C       -0.0000730    -0.0001100    -0.3769120
  C       -0.0089210     1.4518780     0.0963530
  C        1.2621130    -0.7181570     0.0963290
  C       -1.2531000    -0.7336160     0.0963310
  H        0.0001452     0.0001824    -1.5755210
  H       -0.0092500     1.4957160     1.1912990
  H        0.8735630     1.9915400    -0.2617730
  H       -0.8981180     1.9803230    -0.2618970
  H        1.3008650    -0.7388270     1.1912450
  H        2.1645300    -0.2131340    -0.2626890
  H        1.2876640    -1.7526070    -0.2608010
  H       -1.2910520    -0.7567680     1.1912960
  H       -1.2667340    -1.7676670    -0.2625410
  H       -2.1617050    -0.2387050    -0.2612260
units angstrom
no_reorient  #important for SAPT in psi4, default
symmetry c1  #important for SAPT in psi4, default
}

set PROPERTIES_ORIGIN ["COM"]
properties('MP2/aug-cc-pvtz', properties = ['dipole'])
--------------------------------------------------------------------------

    Molecular point group: c1
  Charge       = 0
  Multiplicity = 1
  Basis Set: AUG-CC-PVTZ
    Blend: AUG-CC-PVTZ
  Basis Set: (AUG-CC-PVTZ AUX)
    Blend: AUG-CC-PVTZ-JKFIT

    Orbital Energies [Eh]
    ---------------------

    Doubly Occupied:

       1A    -11.235505     2A    -11.209732     3A    -11.209720
       4A    -11.209691     5A     -1.078277     6A     -0.926209
       7A     -0.926175     8A     -0.752989     9A     -0.626449
      10A     -0.589817    11A     -0.589786    12A     -0.532701
      13A     -0.532673    14A     -0.509320    15A     -0.463204
      16A     -0.463100    17A     -0.445310

  @DF-RHF Final Energy:  -157.35027074332368

   => Energetics <=

    Nuclear Repulsion Energy =            134.3155523641330262
    One-Electron Energy =                -476.7303305321071321
    Two-Electron Energy =                 185.0645074246504009
    Total Energy =                       -157.3502707433236765
  Basis Set: (AUG-CC-PVTZ AUX)
    Blend: AUG-CC-PVTZ-RI
    Molecular point group: c1

    Geometry (in Angstrom), charge = 0, multiplicity = 1:

       Center              X                  Y                   Z               Mass
    ------------   -----------------  -----------------  -----------------  -----------------
         C           -0.000075332744    -0.000109893555    -0.366166985466    12.000000000000
         C           -0.008923332744     1.451878106445     0.107098014534    12.000000000000
         C            1.262110667256    -0.718156893555     0.107074014534    12.000000000000
         C           -1.253102332744    -0.733615893555     0.107076014534    12.000000000000
         H            0.000142867256     0.000182506445    -1.564775985466     1.007825032230
         H           -0.009252332744     1.495716106445     1.202044014534     1.007825032230
         H            0.873560667256     1.991540106445    -0.251027985466     1.007825032230
         H           -0.898120332744     1.980323106445    -0.251151985466     1.007825032230
         H            1.300862667256    -0.738826893555     1.201990014534     1.007825032230
         H            2.164527667256    -0.213133893555    -0.251943985466     1.007825032230
         H            1.287661667256    -1.752606893555    -0.250055985466     1.007825032230
         H           -1.291054332744    -0.756767893555     1.202041014534     1.007825032230
         H           -1.266736332744    -1.767666893555    -0.251795985466     1.007825032230
         H           -2.161707332744    -0.238704893555    -0.250480985466     1.007825032230

  Basis Set: AUG-CC-PVTZ
    Blend: AUG-CC-PVTZ
  Basis Set: (AUG-CC-PVTZ AUX)
    Blend: AUG-CC-PVTZ-JKFIT
	 Reference Energy          =    -157.3502707433236765 [Eh]
	 Singles Energy            =      -0.0000000000000000 [Eh]
	 Same-Spin Energy          =      -0.1664371433638668 [Eh]
	 Opposite-Spin Energy      =      -0.6415385959597489 [Eh]
	 Correlation Energy        =      -0.8079757393236158 [Eh]
	 Total Energy              =    -158.1582464826472858 [Eh]

	 ================> DF-SCS-MP2 Energies <==================
	-----------------------------------------------------------
	 SCS Same-Spin Scale       =       0.3333333333333333 [-]
	 SCS Opposite-Spin Scale   =       1.2000000000000000 [-]
	 SCS Same-Spin Energy      =      -0.0554790477879556 [Eh]
	 SCS Opposite-Spin Energy  =      -0.7698463151516987 [Eh]
	 SCS Correlation Energy    =      -0.8253253629396543 [Eh]
	 SCS Total Energy          =    -158.1755961062633276 [Eh]
	-----------------------------------------------------------

  Dipole Moment: [D]
     X:    -0.0001      Y:    -0.0002      Z:    -0.0414     Total:     0.0414

*** Psi4 exiting successfully. Buy a developer a beer!
