                               Psi4 1.3.2 release

  ==> Input File <==

--------------------------------------------------------------------------
#psi4
#
memory 32 gb

molecule  {
0 1
  C       -0.0000730    -0.0001100    -0.3769120
  C       -0.0089210     1.4518780     0.0963530
  C        1.2621130    -0.7181570     0.0963290
  C       -1.2531000    -0.7336160     0.0963310
  H        0.0001088     0.0001336    -1.3755210
  H       -0.0092500     1.4957160     1.1912990
  H        0.8735630     1.9915400    -0.2617730
  H       -0.8981180     1.9803230    -0.2618970
  H        1.3008650    -0.7388270     1.1912450
  H        2.1645300    -0.2131340    -0.2626890
  H        1.2876640    -1.7526070    -0.2608010
  H       -1.2910520    -0.7567680     1.1912960
  H       -1.2667340    -1.7676670    -0.2625410
  H       -2.1617050    -0.2387050    -0.2612260
units angstrom
no_reorient  #important for SAPT in psi4, default
symmetry c1  #important for SAPT in psi4, default
}

set PROPERTIES_ORIGIN ["COM"]
properties('MP2/aug-cc-pvtz', properties = ['dipole'])
--------------------------------------------------------------------------

    Molecular point group: c1
  Charge       = 0
  Multiplicity = 1
  Basis Set: AUG-CC-PVTZ
    Blend: AUG-CC-PVTZ
  Basis Set: (AUG-CC-PVTZ AUX)
    Blend: AUG-CC-PVTZ-JKFIT

    Orbital Energies [Eh]
    ---------------------

    Doubly Occupied:

       1A    -11.209752     2A    -11.207433     3A    -11.207418
       4A    -11.207288     5A     -1.084588     6A     -0.924318
       7A     -0.924284     8A     -0.780050     9A     -0.634368
      10A     -0.588095    11A     -0.588064    12A     -0.531251
      13A     -0.531224    14A     -0.508032    15A     -0.469230
      16A     -0.460424    17A     -0.460321

  @DF-RHF Final Energy:  -157.35073452189451

   => Energetics <=

    Nuclear Repulsion Energy =            135.2310203388970535
    One-Electron Energy =                -478.5312257540152814
    Two-Electron Energy =                 185.9494708932237188
    Total Energy =                       -157.3507345218945090
  Basis Set: (AUG-CC-PVTZ AUX)
    Blend: AUG-CC-PVTZ-RI
    Molecular point group: c1

    Geometry (in Angstrom), charge = 0, multiplicity = 1:

       Center              X                  Y                   Z               Mass
    ------------   -----------------  -----------------  -----------------  -----------------
         C           -0.000074701099    -0.000109046734    -0.369637561892    12.000000000000
         C           -0.008922701099     1.451878953266     0.103627438108    12.000000000000
         C            1.262111298901    -0.718156046734     0.103603438108    12.000000000000
         C           -1.253101701099    -0.733615046734     0.103605438108    12.000000000000
         H            0.000107098901     0.000134553266    -1.368246561892     1.007825032230
         H           -0.009251701099     1.495716953266     1.198573438108     1.007825032230
         H            0.873561298901     1.991540953266    -0.254498561892     1.007825032230
         H           -0.898119701099     1.980323953266    -0.254622561892     1.007825032230
         H            1.300863298901    -0.738826046734     1.198519438108     1.007825032230
         H            2.164528298901    -0.213133046734    -0.255414561892     1.007825032230
         H            1.287662298901    -1.752606046734    -0.253526561892     1.007825032230
         H           -1.291053701099    -0.756767046734     1.198570438108     1.007825032230
         H           -1.266735701099    -1.767666046734    -0.255266561892     1.007825032230
         H           -2.161706701099    -0.238704046734    -0.253951561892     1.007825032230

  Basis Set: AUG-CC-PVTZ
    Blend: AUG-CC-PVTZ
  Basis Set: (AUG-CC-PVTZ AUX)
    Blend: AUG-CC-PVTZ-JKFIT
	 Reference Energy          =    -157.3507345218945090 [Eh]
	 Singles Energy            =      -0.0000000000000000 [Eh]
	 Same-Spin Energy          =      -0.1664816488575714 [Eh]
	 Opposite-Spin Energy      =      -0.6404163460566584 [Eh]
	 Correlation Energy        =      -0.8068979949142299 [Eh]
	 Total Energy              =    -158.1576325168087465 [Eh]

	 ================> DF-SCS-MP2 Energies <==================
	-----------------------------------------------------------
	 SCS Same-Spin Scale       =       0.3333333333333333 [-]
	 SCS Opposite-Spin Scale   =       1.2000000000000000 [-]
	 SCS Same-Spin Energy      =      -0.0554938829525238 [Eh]
	 SCS Opposite-Spin Energy  =      -0.7684996152679900 [Eh]
	 SCS Correlation Energy    =      -0.8239934982205138 [Eh]
	 SCS Total Energy          =    -158.1747280201150261 [Eh]
	-----------------------------------------------------------

  Dipole Moment: [D]
     X:    -0.0001      Y:    -0.0002      Z:    -0.2079     Total:     0.2079

*** Psi4 exiting successfully. Buy a developer a beer!
