                               Psi4 1.3.2 release

  ==> Input File <==

--------------------------------------------------------------------------
#psi4
#
memory 32 gb

molecule  {
0 1
  C       -0.0000730    -0.0001100    -0.3769120
  C       -0.0089210     1.4518780     0.0963530
  C        1.2621130    -0.7181570     0.0963290
  C       -1.2531000    -0.7336160     0.0963310
  H        0.0001270     0.0001580    -1.4755210
  H       -0.0091900     1.4877151     0.9914591
  H        0.8735630     1.9915400    -0.2617730
  H       -0.8981180     1.9803230    -0.2618970
  H        1.3008650    -0.7388270     1.1912450
  H        2.1645300    -0.2131340    -0.2626890
  H        1.2876640    -1.7526070    -0.2608010
  H       -1.2910520    -0.7567680     1.1912960
  H       -1.2667340    -1.7676670    -0.2625410
  H       -2.1617050    -0.2387050    -0.2612260
units angstrom
no_reorient  #important for SAPT in psi4, default
symmetry c1  #important for SAPT in psi4, default
}

set PROPERTIES_ORIGIN ["COM"]
properties('MP2/aug-cc-pvtz', properties = ['dipole'])
--------------------------------------------------------------------------

    Molecular point group: c1
  Charge       = 0
  Multiplicity = 1
  Basis Set: AUG-CC-PVTZ
    Blend: AUG-CC-PVTZ
  Basis Set: (AUG-CC-PVTZ AUX)
    Blend: AUG-CC-PVTZ-JKFIT

    Orbital Energies [Eh]
    ---------------------

    Doubly Occupied:

       1A    -11.220823     2A    -11.208190     3A    -11.208163
       4A    -11.182801     5A     -1.084645     6A     -0.945370
       7A     -0.924849     8A     -0.772942     9A     -0.634428
      10A     -0.593774    11A     -0.587231    12A     -0.558477
      13A     -0.531787    14A     -0.507463    15A     -0.460829
      16A     -0.460654    17A     -0.459458

  @DF-RHF Final Energy:  -157.32270062801345

   => Energetics <=

    Nuclear Repulsion Energy =            135.6507248963157224
    One-Electron Energy =                -479.2630823755322922
    Two-Electron Energy =                 186.2896568512031479
    Total Energy =                       -157.3227006280134503
  Basis Set: (AUG-CC-PVTZ AUX)
    Blend: AUG-CC-PVTZ-RI
    Molecular point group: c1

    Geometry (in Angstrom), charge = 0, multiplicity = 1:

       Center              X                  Y                   Z               Mass
    ------------   -----------------  -----------------  -----------------  -----------------
         C           -0.000076058094     0.000029368530    -0.364434475449    12.000000000000
         C           -0.008924058094     1.452017368530     0.108830524551    12.000000000000
         C            1.262109941906    -0.718017631470     0.108806524551    12.000000000000
         C           -1.253103058094    -0.733476631470     0.108808524551    12.000000000000
         H            0.000123941906     0.000297368530    -1.463043475449     1.007825032230
         H           -0.009193058094     1.487854468530     1.003936624551     1.007825032230
         H            0.873559941906     1.991679368530    -0.249295475449     1.007825032230
         H           -0.898121058094     1.980462368530    -0.249419475449     1.007825032230
         H            1.300861941906    -0.738687631470     1.203722524551     1.007825032230
         H            2.164526941906    -0.212994631470    -0.250211475449     1.007825032230
         H            1.287660941906    -1.752467631470    -0.248323475449     1.007825032230
         H           -1.291055058094    -0.756628631470     1.203773524551     1.007825032230
         H           -1.266737058094    -1.767527631470    -0.250063475449     1.007825032230
         H           -2.161708058094    -0.238565631470    -0.248748475449     1.007825032230

  Basis Set: AUG-CC-PVTZ
    Blend: AUG-CC-PVTZ
  Basis Set: (AUG-CC-PVTZ AUX)
    Blend: AUG-CC-PVTZ-JKFIT
	 Reference Energy          =    -157.3227006280134503 [Eh]
	 Singles Energy            =      -0.0000000000000000 [Eh]
	 Same-Spin Energy          =      -0.1665694754710599 [Eh]
	 Opposite-Spin Energy      =      -0.6403231722118514 [Eh]
	 Correlation Energy        =      -0.8068926476829112 [Eh]
	 Total Energy              =    -158.1295932756963509 [Eh]

	 ================> DF-SCS-MP2 Energies <==================
	-----------------------------------------------------------
	 SCS Same-Spin Scale       =       0.3333333333333333 [-]
	 SCS Opposite-Spin Scale   =       1.2000000000000000 [-]
	 SCS Same-Spin Energy      =      -0.0555231584903533 [Eh]
	 SCS Opposite-Spin Energy  =      -0.7683878066542217 [Eh]
	 SCS Correlation Energy    =      -0.8239109651445750 [Eh]
	 SCS Total Energy          =    -158.1466115931580134 [Eh]
	-----------------------------------------------------------

  Dipole Moment: [D]
     X:    -0.0003      Y:     0.0287      Z:    -0.0373     Total:     0.0470

*** Psi4 exiting successfully. Buy a developer a beer!
