                               Psi4 1.3.2 release

  ==> Input File <==

--------------------------------------------------------------------------
#psi4
#
memory 32 gb

molecule  {
0 1
  C       -0.0000730    -0.0001100    -0.3769120
  C       -0.0095004     1.5469534     0.1273421
  C        1.2621130    -0.7181570     0.0963290
  C       -1.2531000    -0.7336160     0.0963310
  H        0.0001270     0.0001580    -1.4755210
  H       -0.0092500     1.4957160     1.1912990
  H        0.8735630     1.9915400    -0.2617730
  H       -0.8981180     1.9803230    -0.2618970
  H        1.3008650    -0.7388270     1.1912450
  H        2.1645300    -0.2131340    -0.2626890
  H        1.2876640    -1.7526070    -0.2608010
  H       -1.2910520    -0.7567680     1.1912960
  H       -1.2667340    -1.7676670    -0.2625410
  H       -2.1617050    -0.2387050    -0.2612260
units angstrom
no_reorient  #important for SAPT in psi4, default
symmetry c1  #important for SAPT in psi4, default
}

set PROPERTIES_ORIGIN ["COM"]
properties('MP2/aug-cc-pvtz', properties = ['dipole'])
--------------------------------------------------------------------------

    Molecular point group: c1
  Charge       = 0
  Multiplicity = 1
  Basis Set: AUG-CC-PVTZ
    Blend: AUG-CC-PVTZ
  Basis Set: (AUG-CC-PVTZ AUX)
    Blend: AUG-CC-PVTZ-JKFIT

    Orbital Energies [Eh]
    ---------------------

    Doubly Occupied:

       1A    -11.227033     2A    -11.208379     3A    -11.208357
       4A    -11.204789     5A     -1.069708     6A     -0.927531
       7A     -0.924072     8A     -0.762660     9A     -0.627028
      10A     -0.592163    11A     -0.583897    12A     -0.544902
      13A     -0.532384    14A     -0.517230    15A     -0.466002
      16A     -0.462629    17A     -0.434044

  @DF-RHF Final Energy:  -157.34933264987112

   => Energetics <=

    Nuclear Repulsion Energy =            133.5464697378727692
    One-Electron Energy =                -475.2059897297228872
    Two-Electron Energy =                 184.3101873419790024
    Total Energy =                       -157.3493326498711156
  Basis Set: (AUG-CC-PVTZ AUX)
    Blend: AUG-CC-PVTZ-RI
    Molecular point group: c1

    Geometry (in Angstrom), charge = 0, multiplicity = 1:

       Center              X                  Y                   Z               Mass
    ------------   -----------------  -----------------  -----------------  -----------------
         C            0.000044697429    -0.019753739620    -0.374305173180    12.000000000000
         C           -0.009382702571     1.527309660380     0.129948926820    12.000000000000
         C            1.262230697429    -0.737800739620     0.098935826820    12.000000000000
         C           -1.252982302571    -0.753259739620     0.098937826820    12.000000000000
         H            0.000244697429    -0.019485739620    -1.472914173180     1.007825032230
         H           -0.009132302571     1.476072260380     1.193905826820     1.007825032230
         H            0.873680697429     1.971896260380    -0.259166173180     1.007825032230
         H           -0.898000302571     1.960679260380    -0.259290173180     1.007825032230
         H            1.300982697429    -0.758470739620     1.193851826820     1.007825032230
         H            2.164647697429    -0.232777739620    -0.260082173180     1.007825032230
         H            1.287781697429    -1.772250739620    -0.258194173180     1.007825032230
         H           -1.290934302571    -0.776411739620     1.193902826820     1.007825032230
         H           -1.266616302571    -1.787310739620    -0.259934173180     1.007825032230
         H           -2.161587302571    -0.258348739620    -0.258619173180     1.007825032230

  Basis Set: AUG-CC-PVTZ
    Blend: AUG-CC-PVTZ
  Basis Set: (AUG-CC-PVTZ AUX)
    Blend: AUG-CC-PVTZ-JKFIT
	 Reference Energy          =    -157.3493326498711156 [Eh]
	 Singles Energy            =      -0.0000000000000000 [Eh]
	 Same-Spin Energy          =      -0.1661128430626336 [Eh]
	 Opposite-Spin Energy      =      -0.6408952176369025 [Eh]
	 Correlation Energy        =      -0.8070080606995361 [Eh]
	 Total Energy              =    -158.1563407105706460 [Eh]

	 ================> DF-SCS-MP2 Energies <==================
	-----------------------------------------------------------
	 SCS Same-Spin Scale       =       0.3333333333333333 [-]
	 SCS Opposite-Spin Scale   =       1.2000000000000000 [-]
	 SCS Same-Spin Energy      =      -0.0553709476875445 [Eh]
	 SCS Opposite-Spin Energy  =      -0.7690742611642830 [Eh]
	 SCS Correlation Energy    =      -0.8244452088518276 [Eh]
	 SCS Total Energy          =    -158.1737778587229570 [Eh]
	-----------------------------------------------------------

  Dipole Moment: [D]
     X:     0.0001      Y:    -0.0326      Z:    -0.1434     Total:     0.1470

*** Psi4 exiting successfully. Buy a developer a beer!
