                               Psi4 1.4a3.dev225

  ==> Input File <==

--------------------------------------------------------------------------
#psi4
#
memory 32 gb

molecule  {
0 1
  C       -0.0000280    -0.0000010    -0.3767930
  C        0.2513640     1.4301660     0.0962860
  C        1.1128890    -0.9327640     0.0962290
  C       -1.3642330    -0.4974010     0.0964060
  H       -0.0001040    -0.0000030    -1.4753930
  H        0.2589156     1.4728525     1.1712572
  H        1.2162880     1.8028580    -0.2619280
  H       -0.5286700     2.1095640    -0.2618470
  H        1.1468010    -0.9611080     1.1911810
  H        2.0912440    -0.5969440    -0.2620190
  H        0.9531640    -1.9547810    -0.2619140
  H       -1.4056140    -0.5125330     1.1913650
  H       -1.5626250    -1.5126120    -0.2617590
  H       -2.1694990     0.1519130    -0.2616900
units angstrom
no_reorient  #important for SAPT in psi4, default
symmetry c1  #important for SAPT in psi4, default
}

set PROPERTIES_ORIGIN ["COM"]
properties('MP2/aug-cc-pvtz', properties = ['dipole'])
--------------------------------------------------------------------------

    Molecular point group: c1
  Charge       = 0
  Multiplicity = 1
  Basis Set: AUG-CC-PVTZ
    Blend: AUG-CC-PVTZ
  Basis Set: (AUG-CC-PVTZ AUX)
    Blend: AUG-CC-PVTZ-JKFIT

    Orbital Energies [Eh]
    ---------------------

    Doubly Occupied:

       1A    -11.222605     2A    -11.208392     3A    -11.208368
       4A    -11.205880     5A     -1.080732     6A     -0.926559
       7A     -0.925069     8A     -0.765129     9A     -0.630749
      10A     -0.589045    11A     -0.588576    12A     -0.534838
      13A     -0.531823    14A     -0.508422    15A     -0.461453
      16A     -0.461337    17A     -0.458213

  @DF-RHF Final Energy:  -157.35648661697007

   => Energetics <=

    Nuclear Repulsion Energy =            134.8232222558801539
    One-Electron Energy =                -477.7450372890527888
    Two-Electron Energy =                 185.5653284162025329
    Total Energy =                       -157.3564866169700736
  Basis Set: (AUG-CC-PVTZ AUX)
    Blend: AUG-CC-PVTZ-RI
    Molecular point group: c1

    Geometry (in Angstrom), charge = 0, multiplicity = 1:

       Center              X                  Y                   Z               Mass
    ------------   -----------------  -----------------  -----------------  -----------------
         C           -0.000024622181     0.000012769512    -0.367439386137    12.000000000000
         C            0.251367377819     1.430179769512     0.105639613863    12.000000000000
         C            1.112892377819    -0.932750230488     0.105582613863    12.000000000000
         C           -1.364229622181    -0.497387230488     0.105759613863    12.000000000000
         H           -0.000100622181     0.000010769512    -1.466039386137     1.007825032230
         H            0.258918977819     1.472866269512     1.180610813863     1.007825032230
         H            1.216291377819     1.802871769512    -0.252574386137     1.007825032230
         H           -0.528666622181     2.109577769512    -0.252493386137     1.007825032230
         H            1.146804377819    -0.961094230488     1.200534613863     1.007825032230
         H            2.091247377819    -0.596930230488    -0.252665386137     1.007825032230
         H            0.953167377819    -1.954767230488    -0.252560386137     1.007825032230
         H           -1.405610622181    -0.512519230488     1.200718613863     1.007825032230
         H           -1.562621622181    -1.512598230488    -0.252405386137     1.007825032230
         H           -2.169495622181     0.151926769512    -0.252336386137     1.007825032230

  Basis Set: AUG-CC-PVTZ
    Blend: AUG-CC-PVTZ
  Basis Set: (AUG-CC-PVTZ AUX)
    Blend: AUG-CC-PVTZ-JKFIT
	 Reference Energy          =    -157.3564866169700736 [Eh]
	 Singles Energy            =      -0.0000000000000000 [Eh]
	 Same-Spin Energy          =      -0.1664560807674672 [Eh]
	 Opposite-Spin Energy      =      -0.6407492172769096 [Eh]
	 Correlation Energy        =      -0.8072052980443768 [Eh]
	 Total Energy              =    -158.1636919150144536 [Eh]

	 ================> DF-SCS-MP2 Energies <==================
	-----------------------------------------------------------
	 SCS Same-Spin Scale       =       0.3333333333333333 [-]
	 SCS Opposite-Spin Scale   =       1.2000000000000000 [-]
	 SCS Same-Spin Energy      =      -0.0554853602558224 [Eh]
	 SCS Opposite-Spin Energy  =      -0.7688990607322915 [Eh]
	 SCS Correlation Energy    =      -0.8243844209881139 [Eh]
	 SCS Total Energy          =    -158.1808710379581839 [Eh]
	-----------------------------------------------------------

  Dipole Moment: [D]
     X:     0.0006      Y:     0.0035      Z:    -0.1248     Total:     0.1248

*** Psi4 exiting successfully. Buy a developer a beer!
