                               Psi4 1.3.2 release

  ==> Input File <==

--------------------------------------------------------------------------
#psi4
#
memory 32 gb

molecule  {
0 1
  C       -0.0000730    -0.0001100    -0.3769120
  C       -0.0089210     1.4518780     0.0963530
  C        1.2621130    -0.7181570     0.0963290
  C       -1.2531000    -0.7336160     0.0963310
  H        0.0001270     0.0001580    -1.4755210
  H       -0.0093100     1.5037169     1.3911389
  H        0.8735630     1.9915400    -0.2617730
  H       -0.8981180     1.9803230    -0.2618970
  H        1.3008650    -0.7388270     1.1912450
  H        2.1645300    -0.2131340    -0.2626890
  H        1.2876640    -1.7526070    -0.2608010
  H       -1.2910520    -0.7567680     1.1912960
  H       -1.2667340    -1.7676670    -0.2625410
  H       -2.1617050    -0.2387050    -0.2612260
units angstrom
no_reorient  #important for SAPT in psi4, default
symmetry c1  #important for SAPT in psi4, default
}

set PROPERTIES_ORIGIN ["COM"]
properties('MP2/aug-cc-pvtz', properties = ['dipole'])
--------------------------------------------------------------------------

    Molecular point group: c1
  Charge       = 0
  Multiplicity = 1
  Basis Set: AUG-CC-PVTZ
    Blend: AUG-CC-PVTZ
  Basis Set: (AUG-CC-PVTZ AUX)
    Blend: AUG-CC-PVTZ-JKFIT

    Orbital Energies [Eh]
    ---------------------

    Doubly Occupied:

       1A    -11.232313     2A    -11.226043     3A    -11.209033
       4A    -11.209011     5A     -1.080099     6A     -0.925778
       7A     -0.916187     8A     -0.760085     9A     -0.629437
      10A     -0.591783    11A     -0.588026    12A     -0.532182
      13A     -0.510680    14A     -0.504177    15A     -0.464725
      16A     -0.463324    17A     -0.449367

  @DF-RHF Final Energy:  -157.33702031107700

   => Energetics <=

    Nuclear Repulsion Energy =            134.0493614388399237
    One-Electron Energy =                -476.1882627015380649
    Two-Electron Energy =                 184.8018809516211434
    Total Energy =                       -157.3370203110769978
  Basis Set: (AUG-CC-PVTZ AUX)
    Blend: AUG-CC-PVTZ-RI
    Molecular point group: c1

    Geometry (in Angstrom), charge = 0, multiplicity = 1:

       Center              X                  Y                   Z               Mass
    ------------   -----------------  -----------------  -----------------  -----------------
         C           -0.000073975748    -0.000248308819    -0.371370071909    12.000000000000
         C           -0.008921975748     1.451739691181     0.101894928091    12.000000000000
         C            1.262112024252    -0.718295308819     0.101870928091    12.000000000000
         C           -1.253100975748    -0.733754308819     0.101872928091    12.000000000000
         H            0.000126024252     0.000019691181    -1.469979071909     1.007825032230
         H           -0.009310975748     1.503578591181     1.396680828091     1.007825032230
         H            0.873562024252     1.991401691181    -0.256231071909     1.007825032230
         H           -0.898118975748     1.980184691181    -0.256355071909     1.007825032230
         H            1.300864024252    -0.738965308819     1.196786928091     1.007825032230
         H            2.164529024252    -0.213272308819    -0.257147071909     1.007825032230
         H            1.287663024252    -1.752745308819    -0.255259071909     1.007825032230
         H           -1.291052975748    -0.756906308819     1.196837928091     1.007825032230
         H           -1.266734975748    -1.767805308819    -0.256999071909     1.007825032230
         H           -2.161705975748    -0.238843308819    -0.255684071909     1.007825032230

  Basis Set: AUG-CC-PVTZ
    Blend: AUG-CC-PVTZ
  Basis Set: (AUG-CC-PVTZ AUX)
    Blend: AUG-CC-PVTZ-JKFIT
	 Reference Energy          =    -157.3370203110769978 [Eh]
	 Singles Energy            =      -0.0000000000000000 [Eh]
	 Same-Spin Energy          =      -0.1664097621122619 [Eh]
	 Opposite-Spin Energy      =      -0.6423322399382837 [Eh]
	 Correlation Energy        =      -0.8087420020505456 [Eh]
	 Total Energy              =    -158.1457623131275341 [Eh]

	 ================> DF-SCS-MP2 Energies <==================
	-----------------------------------------------------------
	 SCS Same-Spin Scale       =       0.3333333333333333 [-]
	 SCS Opposite-Spin Scale   =       1.2000000000000000 [-]
	 SCS Same-Spin Energy      =      -0.0554699207040873 [Eh]
	 SCS Opposite-Spin Energy  =      -0.7707986879259404 [Eh]
	 SCS Correlation Energy    =      -0.8262686086300277 [Eh]
	 SCS Total Energy          =    -158.1632889197070142 [Eh]
	-----------------------------------------------------------

  Dipole Moment: [D]
     X:     0.0002      Y:    -0.0452      Z:    -0.2986     Total:     0.3020

*** Psi4 exiting successfully. Buy a developer a beer!
