                               Psi4 1.3.2 release

  ==> Input File <==

--------------------------------------------------------------------------
#psi4
#
memory 32 gb

molecule  {
0 1
  C       -0.0000730    -0.0001100    -0.3769120
  C       -0.0559278     1.4585159     0.0721068
  C        1.2621130    -0.7181570     0.0963290
  C       -1.2531000    -0.7336160     0.0963310
  H        0.0001270     0.0001580    -1.4755210
  H       -0.0092500     1.4957160     1.1912990
  H        0.8735630     1.9915400    -0.2617730
  H       -0.8981180     1.9803230    -0.2618970
  H        1.3008650    -0.7388270     1.1912450
  H        2.1645300    -0.2131340    -0.2626890
  H        1.2876640    -1.7526070    -0.2608010
  H       -1.2910520    -0.7567680     1.1912960
  H       -1.2667340    -1.7676670    -0.2625410
  H       -2.1617050    -0.2387050    -0.2612260
units angstrom
no_reorient  #important for SAPT in psi4, default
symmetry c1  #important for SAPT in psi4, default
}

set PROPERTIES_ORIGIN ["COM"]
properties('MP2/aug-cc-pvtz', properties = ['dipole'])
--------------------------------------------------------------------------

    Molecular point group: c1
  Charge       = 0
  Multiplicity = 1
  Basis Set: AUG-CC-PVTZ
    Blend: AUG-CC-PVTZ
  Basis Set: (AUG-CC-PVTZ AUX)
    Blend: AUG-CC-PVTZ-JKFIT

    Orbital Energies [Eh]
    ---------------------

    Doubly Occupied:

       1A    -11.223091     2A    -11.209512     3A    -11.208988
       4A    -11.207916     5A     -1.080504     6A     -0.927372
       7A     -0.923862     8A     -0.764455     9A     -0.631299
      10A     -0.592721    11A     -0.588108    12A     -0.532156
      13A     -0.527598    14A     -0.509959    15A     -0.468700
      16A     -0.456775    17A     -0.454266

  @DF-RHF Final Energy:  -157.35325213633362

   => Energetics <=

    Nuclear Repulsion Energy =            134.7023121216091965
    One-Electron Energy =                -477.4965659648904079
    Two-Electron Energy =                 185.4410017069476169
    Total Energy =                       -157.3532521363336230
  Basis Set: (AUG-CC-PVTZ AUX)
    Blend: AUG-CC-PVTZ-RI
    Molecular point group: c1

    Geometry (in Angstrom), charge = 0, multiplicity = 1:

       Center              X                  Y                   Z               Mass
    ------------   -----------------  -----------------  -----------------  -----------------
         C            0.009637424430    -0.001480978404    -0.362892577306    12.000000000000
         C           -0.046217375570     1.457144921596     0.086126222694    12.000000000000
         C            1.271823424430    -0.719527978404     0.110348422694    12.000000000000
         C           -1.243389575570    -0.734986978404     0.110350422694    12.000000000000
         H            0.009837424430    -0.001212978404    -1.461501577306     1.007825032230
         H            0.000460424430     1.494345021596     1.205318422694     1.007825032230
         H            0.883273424430     1.990169021596    -0.247753577306     1.007825032230
         H           -0.888407575570     1.978952021596    -0.247877577306     1.007825032230
         H            1.310575424430    -0.740197978404     1.205264422694     1.007825032230
         H            2.174240424430    -0.214504978404    -0.248669577306     1.007825032230
         H            1.297374424430    -1.753977978404    -0.246781577306     1.007825032230
         H           -1.281341575570    -0.758138978404     1.205315422694     1.007825032230
         H           -1.257023575570    -1.769037978404    -0.248521577306     1.007825032230
         H           -2.151994575570    -0.240075978404    -0.247206577306     1.007825032230

  Basis Set: AUG-CC-PVTZ
    Blend: AUG-CC-PVTZ
  Basis Set: (AUG-CC-PVTZ AUX)
    Blend: AUG-CC-PVTZ-JKFIT
	 Reference Energy          =    -157.3532521363336230 [Eh]
	 Singles Energy            =      -0.0000000000000000 [Eh]
	 Same-Spin Energy          =      -0.1664953321150704 [Eh]
	 Opposite-Spin Energy      =      -0.6409897432892970 [Eh]
	 Correlation Energy        =      -0.8074850754043674 [Eh]
	 Total Energy              =    -158.1607372117379953 [Eh]

	 ================> DF-SCS-MP2 Energies <==================
	-----------------------------------------------------------
	 SCS Same-Spin Scale       =       0.3333333333333333 [-]
	 SCS Opposite-Spin Scale   =       1.2000000000000000 [-]
	 SCS Same-Spin Energy      =      -0.0554984440383568 [Eh]
	 SCS Opposite-Spin Energy  =      -0.7691876919471564 [Eh]
	 SCS Correlation Energy    =      -0.8246861359855132 [Eh]
	 SCS Total Energy          =    -158.1779382723191247 [Eh]
	-----------------------------------------------------------

  Dipole Moment: [D]
     X:    -0.0074      Y:    -0.0064      Z:    -0.1497     Total:     0.1500

*** Psi4 exiting successfully. Buy a developer a beer!
