                               Psi4 1.3.2 release

  ==> Input File <==

--------------------------------------------------------------------------
#psi4
#
memory 32 gb

molecule  {
0 1
  C       -0.0000730    -0.0001100    -0.3769120
  C       -0.0100797     1.6420289     0.1583313
  C        1.2621130    -0.7181570     0.0963290
  C       -1.2531000    -0.7336160     0.0963310
  H        0.0001270     0.0001580    -1.4755210
  H       -0.0092500     1.4957160     1.1912990
  H        0.8735630     1.9915400    -0.2617730
  H       -0.8981180     1.9803230    -0.2618970
  H        1.3008650    -0.7388270     1.1912450
  H        2.1645300    -0.2131340    -0.2626890
  H        1.2876640    -1.7526070    -0.2608010
  H       -1.2910520    -0.7567680     1.1912960
  H       -1.2667340    -1.7676670    -0.2625410
  H       -2.1617050    -0.2387050    -0.2612260
units angstrom
no_reorient  #important for SAPT in psi4, default
symmetry c1  #important for SAPT in psi4, default
}

set PROPERTIES_ORIGIN ["COM"]
properties('MP2/aug-cc-pvtz', properties = ['dipole'])
--------------------------------------------------------------------------

    Molecular point group: c1
  Charge       = 0
  Multiplicity = 1
  Basis Set: AUG-CC-PVTZ
    Blend: AUG-CC-PVTZ
  Basis Set: (AUG-CC-PVTZ AUX)
    Blend: AUG-CC-PVTZ-JKFIT

    Orbital Energies [Eh]
    ---------------------

    Doubly Occupied:

       1A    -11.230950     2A    -11.208891     3A    -11.208869
       4A    -11.204254     5A     -1.062364     6A     -0.930202
       7A     -0.923690     8A     -0.761394     9A     -0.625626
      10A     -0.597591    11A     -0.580800    12A     -0.557028
      13A     -0.534225    14A     -0.523291    15A     -0.468221
      16A     -0.464844    17A     -0.405733

  @DF-RHF Final Energy:  -157.32989773490885

   => Energetics <=

    Nuclear Repulsion Energy =            132.4055968355878576
    One-Electron Energy =                -472.8950405179134009
    Two-Electron Energy =                 183.1595459474166887
    Total Energy =                       -157.3298977349088545
  Basis Set: (AUG-CC-PVTZ AUX)
    Blend: AUG-CC-PVTZ-RI
    Molecular point group: c1

    Geometry (in Angstrom), charge = 0, multiplicity = 1:

       Center              X                  Y                   Z               Mass
    ------------   -----------------  -----------------  -----------------  -----------------
         C            0.000164391118    -0.039398029757    -0.380708093343    12.000000000000
         C           -0.009842308882     1.602740870243     0.154535206657    12.000000000000
         C            1.262350391118    -0.757445029757     0.092532906657    12.000000000000
         C           -1.252862608882    -0.772904029757     0.092534906657    12.000000000000
         H            0.000364391118    -0.039130029757    -1.479317093343     1.007825032230
         H           -0.009012608882     1.456427970243     1.187502906657     1.007825032230
         H            0.873800391118     1.952251970243    -0.265569093343     1.007825032230
         H           -0.897880608882     1.941034970243    -0.265693093343     1.007825032230
         H            1.301102391118    -0.778115029757     1.187448906657     1.007825032230
         H            2.164767391118    -0.252422029757    -0.266485093343     1.007825032230
         H            1.287901391118    -1.791895029757    -0.264597093343     1.007825032230
         H           -1.290814608882    -0.796056029757     1.187499906657     1.007825032230
         H           -1.266496608882    -1.806955029757    -0.266337093343     1.007825032230
         H           -2.161467608882    -0.277993029757    -0.265022093343     1.007825032230

  Basis Set: AUG-CC-PVTZ
    Blend: AUG-CC-PVTZ
  Basis Set: (AUG-CC-PVTZ AUX)
    Blend: AUG-CC-PVTZ-JKFIT
	 Reference Energy          =    -157.3298977349088545 [Eh]
	 Singles Energy            =      -0.0000000000000000 [Eh]
	 Same-Spin Energy          =      -0.1663996167664429 [Eh]
	 Opposite-Spin Energy      =      -0.6421133427560020 [Eh]
	 Correlation Energy        =      -0.8085129595224450 [Eh]
	 Total Energy              =    -158.1384106944312862 [Eh]

	 ================> DF-SCS-MP2 Energies <==================
	-----------------------------------------------------------
	 SCS Same-Spin Scale       =       0.3333333333333333 [-]
	 SCS Opposite-Spin Scale   =       1.2000000000000000 [-]
	 SCS Same-Spin Energy      =      -0.0554665389221476 [Eh]
	 SCS Opposite-Spin Energy  =      -0.7705360113072023 [Eh]
	 SCS Correlation Energy    =      -0.8260025502293500 [Eh]
	 SCS Total Energy          =    -158.1559002851382161 [Eh]
	-----------------------------------------------------------

  Dipole Moment: [D]
     X:     0.0006      Y:    -0.1168      Z:    -0.1619     Total:     0.1997

*** Psi4 exiting successfully. Buy a developer a beer!
