                               Psi4 1.3.2 release

  ==> Input File <==

--------------------------------------------------------------------------
#psi4
#
memory 32 gb

molecule  {
0 1
  C       -0.0000730    -0.0001100    -0.3769120
  C        0.0380966     1.4434711     0.1200226
  C        1.2621130    -0.7181570     0.0963290
  C       -1.2531000    -0.7336160     0.0963310
  H        0.0001270     0.0001580    -1.4755210
  H       -0.0092500     1.4957160     1.1912990
  H        0.8735630     1.9915400    -0.2617730
  H       -0.8981180     1.9803230    -0.2618970
  H        1.3008650    -0.7388270     1.1912450
  H        2.1645300    -0.2131340    -0.2626890
  H        1.2876640    -1.7526070    -0.2608010
  H       -1.2910520    -0.7567680     1.1912960
  H       -1.2667340    -1.7676670    -0.2625410
  H       -2.1617050    -0.2387050    -0.2612260
units angstrom
no_reorient  #important for SAPT in psi4, default
symmetry c1  #important for SAPT in psi4, default
}

set PROPERTIES_ORIGIN ["COM"]
properties('MP2/aug-cc-pvtz', properties = ['dipole'])
--------------------------------------------------------------------------

    Molecular point group: c1
  Charge       = 0
  Multiplicity = 1
  Basis Set: AUG-CC-PVTZ
    Blend: AUG-CC-PVTZ
  Basis Set: (AUG-CC-PVTZ AUX)
    Blend: AUG-CC-PVTZ-JKFIT

    Orbital Energies [Eh]
    ---------------------

    Doubly Occupied:

       1A    -11.223103     2A    -11.209061     3A    -11.208809
       4A    -11.207574     5A     -1.080954     6A     -0.926756
       7A     -0.923404     8A     -0.765219     9A     -0.632071
      10A     -0.589468    11A     -0.585864    12A     -0.537857
      13A     -0.531784    14A     -0.504899    15A     -0.465869
      16A     -0.460939    17A     -0.452371

  @DF-RHF Final Energy:  -157.35352088062825

   => Energetics <=

    Nuclear Repulsion Energy =            134.8006997989829188
    One-Electron Energy =                -477.6964389703534835
    Two-Electron Energy =                 185.5422182907423121
    Total Energy =                       -157.3535208806282526
  Basis Set: (AUG-CC-PVTZ AUX)
    Blend: AUG-CC-PVTZ-RI
    Molecular point group: c1

    Geometry (in Angstrom), charge = 0, multiplicity = 1:

       Center              X                  Y                   Z               Mass
    ------------   -----------------  -----------------  -----------------  -----------------
         C           -0.009789689744     0.001627544993    -0.372792834232    12.000000000000
         C            0.028379910256     1.445208644993     0.124141765768    12.000000000000
         C            1.252396310256    -0.716419455007     0.100448165768    12.000000000000
         C           -1.262816689744    -0.731878455007     0.100450165768    12.000000000000
         H           -0.009589689744     0.001895544993    -1.471401834232     1.007825032230
         H           -0.018966689744     1.497453544993     1.195418165768     1.007825032230
         H            0.863846310256     1.993277544993    -0.257653834232     1.007825032230
         H           -0.907834689744     1.982060544993    -0.257777834232     1.007825032230
         H            1.291148310256    -0.737089455007     1.195364165768     1.007825032230
         H            2.154813310256    -0.211396455007    -0.258569834232     1.007825032230
         H            1.277947310256    -1.750869455007    -0.256681834232     1.007825032230
         H           -1.300768689744    -0.755030455007     1.195415165768     1.007825032230
         H           -1.276450689744    -1.765929455007    -0.258421834232     1.007825032230
         H           -2.171421689744    -0.236967455007    -0.257106834232     1.007825032230

  Basis Set: AUG-CC-PVTZ
    Blend: AUG-CC-PVTZ
  Basis Set: (AUG-CC-PVTZ AUX)
    Blend: AUG-CC-PVTZ-JKFIT
	 Reference Energy          =    -157.3535208806282526 [Eh]
	 Singles Energy            =      -0.0000000000000000 [Eh]
	 Same-Spin Energy          =      -0.1665068348112232 [Eh]
	 Opposite-Spin Energy      =      -0.6410251998344325 [Eh]
	 Correlation Energy        =      -0.8075320346456558 [Eh]
	 Total Energy              =    -158.1610529152738991 [Eh]

	 ================> DF-SCS-MP2 Energies <==================
	-----------------------------------------------------------
	 SCS Same-Spin Scale       =       0.3333333333333333 [-]
	 SCS Opposite-Spin Scale   =       1.2000000000000000 [-]
	 SCS Same-Spin Energy      =      -0.0555022782704077 [Eh]
	 SCS Opposite-Spin Energy  =      -0.7692302398013190 [Eh]
	 SCS Correlation Energy    =      -0.8247325180717268 [Eh]
	 SCS Total Energy          =    -158.1782533986999795 [Eh]
	-----------------------------------------------------------

  Dipole Moment: [D]
     X:     0.0125      Y:    -0.0067      Z:    -0.1254     Total:     0.1262

*** Psi4 exiting successfully. Buy a developer a beer!
