                               Psi4 1.3.2 release

  ==> Input File <==

--------------------------------------------------------------------------
#psi4
#
memory 32 gb

molecule  {
0 1
  C       -0.0000730    -0.0001100    -0.3769120
  C       -0.0089210     1.4518780     0.0963530
  C        1.2621130    -0.7181570     0.0963290
  C       -1.2531000    -0.7336160     0.0963310
  H        0.0000906     0.0001092    -1.2755210
  H       -0.0092500     1.4957160     1.1912990
  H        0.8735630     1.9915400    -0.2617730
  H       -0.8981180     1.9803230    -0.2618970
  H        1.3008650    -0.7388270     1.1912450
  H        2.1645300    -0.2131340    -0.2626890
  H        1.2876640    -1.7526070    -0.2608010
  H       -1.2910520    -0.7567680     1.1912960
  H       -1.2667340    -1.7676670    -0.2625410
  H       -2.1617050    -0.2387050    -0.2612260
units angstrom
no_reorient  #important for SAPT in psi4, default
symmetry c1  #important for SAPT in psi4, default
}

set PROPERTIES_ORIGIN ["COM"]
properties('MP2/aug-cc-pvtz', properties = ['dipole'])
--------------------------------------------------------------------------

    Molecular point group: c1
  Charge       = 0
  Multiplicity = 1
  Basis Set: AUG-CC-PVTZ
    Blend: AUG-CC-PVTZ
  Basis Set: (AUG-CC-PVTZ AUX)
    Blend: AUG-CC-PVTZ-JKFIT

    Orbital Energies [Eh]
    ---------------------

    Doubly Occupied:

       1A    -11.206745     2A    -11.206732     3A    -11.206714
       4A    -11.196460     5A     -1.090901     6A     -0.923751
       7A     -0.923718     8A     -0.799615     9A     -0.637673
      10A     -0.587644    11A     -0.587613    12A     -0.530845
      13A     -0.530817    14A     -0.507675    15A     -0.479435
      16A     -0.459633    17A     -0.459531

  @DF-RHF Final Energy:  -157.32389594201666

   => Energetics <=

    Nuclear Repulsion Energy =            135.7858876831949431
    One-Electron Energy =                -479.5485652252096997
    Two-Electron Energy =                 186.4387815999981228
    Total Energy =                       -157.3238959420166623
  Basis Set: (AUG-CC-PVTZ AUX)
    Blend: AUG-CC-PVTZ-RI
    Molecular point group: c1

    Geometry (in Angstrom), charge = 0, multiplicity = 1:

       Center              X                  Y                   Z               Mass
    ------------   -----------------  -----------------  -----------------  -----------------
         C           -0.000074385276    -0.000108623324    -0.371372850105    12.000000000000
         C           -0.008922385276     1.451879376676     0.101892149895    12.000000000000
         C            1.262111614724    -0.718155623324     0.101868149895    12.000000000000
         C           -1.253101385276    -0.733614623324     0.101870149895    12.000000000000
         H            0.000089214724     0.000110576676    -1.269981850105     1.007825032230
         H           -0.009251385276     1.495717376676     1.196838149895     1.007825032230
         H            0.873561614724     1.991541376676    -0.256233850105     1.007825032230
         H           -0.898119385276     1.980324376676    -0.256357850105     1.007825032230
         H            1.300863614724    -0.738825623324     1.196784149895     1.007825032230
         H            2.164528614724    -0.213132623324    -0.257149850105     1.007825032230
         H            1.287662614724    -1.752605623324    -0.255261850105     1.007825032230
         H           -1.291053385276    -0.756766623324     1.196835149895     1.007825032230
         H           -1.266735385276    -1.767665623324    -0.257001850105     1.007825032230
         H           -2.161706385276    -0.238703623324    -0.255686850105     1.007825032230

  Basis Set: AUG-CC-PVTZ
    Blend: AUG-CC-PVTZ
  Basis Set: (AUG-CC-PVTZ AUX)
    Blend: AUG-CC-PVTZ-JKFIT
	 Reference Energy          =    -157.3238959420166623 [Eh]
	 Singles Energy            =      -0.0000000000000000 [Eh]
	 Same-Spin Energy          =      -0.1665557265625974 [Eh]
	 Opposite-Spin Energy      =      -0.6403333067822995 [Eh]
	 Correlation Energy        =      -0.8068890333448969 [Eh]
	 Total Energy              =    -158.1307849753615642 [Eh]

	 ================> DF-SCS-MP2 Energies <==================
	-----------------------------------------------------------
	 SCS Same-Spin Scale       =       0.3333333333333333 [-]
	 SCS Opposite-Spin Scale   =       1.2000000000000000 [-]
	 SCS Same-Spin Energy      =      -0.0555185755208658 [Eh]
	 SCS Opposite-Spin Energy  =      -0.7683999681387593 [Eh]
	 SCS Correlation Energy    =      -0.8239185436596251 [Eh]
	 SCS Total Energy          =    -158.1478144856762924 [Eh]
	-----------------------------------------------------------

  Dipole Moment: [D]
     X:    -0.0001      Y:    -0.0002      Z:    -0.2524     Total:     0.2524

*** Psi4 exiting successfully. Buy a developer a beer!
