                               Psi4 1.4a3.dev225

  ==> Input File <==

--------------------------------------------------------------------------
#psi4
#
memory 32 gb

molecule  {
0 1
  C       -0.0000280    -0.0000010    -0.3767930
  C        0.2513640     1.4301660     0.0962860
  C        1.1128890    -0.9327640     0.0962290
  C       -1.3642330    -0.4974010     0.0964060
  H       -0.0001040    -0.0000030    -1.4753930
  H        0.2591964     1.4744395     1.2112248
  H        1.2162880     1.8028580    -0.2619280
  H       -0.5286700     2.1095640    -0.2618470
  H        1.1468010    -0.9611080     1.1911810
  H        2.0912440    -0.5969440    -0.2620190
  H        0.9531640    -1.9547810    -0.2619140
  H       -1.4056140    -0.5125330     1.1913650
  H       -1.5626250    -1.5126120    -0.2617590
  H       -2.1694990     0.1519130    -0.2616900
units angstrom
no_reorient  #important for SAPT in psi4, default
symmetry c1  #important for SAPT in psi4, default
}

set PROPERTIES_ORIGIN ["COM"]
properties('MP2/aug-cc-pvtz', properties = ['dipole'])
--------------------------------------------------------------------------

    Molecular point group: c1
  Charge       = 0
  Multiplicity = 1
  Basis Set: AUG-CC-PVTZ
    Blend: AUG-CC-PVTZ
  Basis Set: (AUG-CC-PVTZ AUX)
    Blend: AUG-CC-PVTZ-JKFIT

    Orbital Energies [Eh]
    ---------------------

    Doubly Occupied:

       1A    -11.223131     2A    -11.210933     3A    -11.208471
       4A    -11.208448     5A     -1.080349     6A     -0.925157
       7A     -0.923778     8A     -0.763829     9A     -0.630299
      10A     -0.589028    11A     -0.588585    12A     -0.531856
      13A     -0.528827    14A     -0.508746    15A     -0.461840
      16A     -0.461717    17A     -0.457321

  @DF-RHF Final Energy:  -157.35599913937921

   => Energetics <=

    Nuclear Repulsion Energy =            134.6666146195917975
    One-Electron Energy =                -477.4405967251655625
    Two-Electron Energy =                 185.4179829661945291
    Total Energy =                       -157.3559991393792075
  Basis Set: (AUG-CC-PVTZ AUX)
    Blend: AUG-CC-PVTZ-RI
    Molecular point group: c1

    Geometry (in Angstrom), charge = 0, multiplicity = 1:

       Center              X                  Y                   Z               Mass
    ------------   -----------------  -----------------  -----------------  -----------------
         C           -0.000029494870    -0.000014769512    -0.368132939189    12.000000000000
         C            0.251362505130     1.430152230488     0.104946060811    12.000000000000
         C            1.112887505130    -0.932777769512     0.104889060811    12.000000000000
         C           -1.364234494870    -0.497414769512     0.105066060811    12.000000000000
         H           -0.000105494870    -0.000016769512    -1.466732939189     1.007825032230
         H            0.259194905130     1.474425730488     1.219884860811     1.007825032230
         H            1.216286505130     1.802844230488    -0.253267939189     1.007825032230
         H           -0.528671494870     2.109550230488    -0.253186939189     1.007825032230
         H            1.146799505130    -0.961121769512     1.199841060811     1.007825032230
         H            2.091242505130    -0.596957769512    -0.253358939189     1.007825032230
         H            0.953162505130    -1.954794769512    -0.253253939189     1.007825032230
         H           -1.405615494870    -0.512546769512     1.200025060811     1.007825032230
         H           -1.562626494870    -1.512625769512    -0.253098939189     1.007825032230
         H           -2.169500494870     0.151899230488    -0.253029939189     1.007825032230

  Basis Set: AUG-CC-PVTZ
    Blend: AUG-CC-PVTZ
  Basis Set: (AUG-CC-PVTZ AUX)
    Blend: AUG-CC-PVTZ-JKFIT
	 Reference Energy          =    -157.3559991393792075 [Eh]
	 Singles Energy            =      -0.0000000000000000 [Eh]
	 Same-Spin Energy          =      -0.1664488169403501 [Eh]
	 Opposite-Spin Energy      =      -0.6409792543747757 [Eh]
	 Correlation Energy        =      -0.8074280713151257 [Eh]
	 Total Energy              =    -158.1634272106943229 [Eh]

	 ================> DF-SCS-MP2 Energies <==================
	-----------------------------------------------------------
	 SCS Same-Spin Scale       =       0.3333333333333333 [-]
	 SCS Opposite-Spin Scale   =       1.2000000000000000 [-]
	 SCS Same-Spin Energy      =      -0.0554829389801167 [Eh]
	 SCS Opposite-Spin Energy  =      -0.7691751052497308 [Eh]
	 SCS Correlation Energy    =      -0.8246580442298475 [Eh]
	 SCS Total Energy          =    -158.1806571836090427 [Eh]
	-----------------------------------------------------------

  Dipole Moment: [D]
     X:    -0.0007      Y:    -0.0037      Z:    -0.1512     Total:     0.1512

*** Psi4 exiting successfully. Buy a developer a beer!
