                               Psi4 1.3.2 release

  ==> Input File <==

--------------------------------------------------------------------------
#psi4
#
memory 32 gb

molecule  {
0 1
  C       -0.0000730    -0.0001100    -0.3769120
  C       -0.1028666     1.4633767     0.0473135
  C        1.2621130    -0.7181570     0.0963290
  C       -1.2531000    -0.7336160     0.0963310
  H        0.0001270     0.0001580    -1.4755210
  H       -0.0092500     1.4957160     1.1912990
  H        0.8735630     1.9915400    -0.2617730
  H       -0.8981180     1.9803230    -0.2618970
  H        1.3008650    -0.7388270     1.1912450
  H        2.1645300    -0.2131340    -0.2626890
  H        1.2876640    -1.7526070    -0.2608010
  H       -1.2910520    -0.7567680     1.1912960
  H       -1.2667340    -1.7676670    -0.2625410
  H       -2.1617050    -0.2387050    -0.2612260
units angstrom
no_reorient  #important for SAPT in psi4, default
symmetry c1  #important for SAPT in psi4, default
}

set PROPERTIES_ORIGIN ["COM"]
properties('MP2/aug-cc-pvtz', properties = ['dipole'])
--------------------------------------------------------------------------

    Molecular point group: c1
  Charge       = 0
  Multiplicity = 1
  Basis Set: AUG-CC-PVTZ
    Blend: AUG-CC-PVTZ
  Basis Set: (AUG-CC-PVTZ AUX)
    Blend: AUG-CC-PVTZ-JKFIT

    Orbital Energies [Eh]
    ---------------------

    Doubly Occupied:

       1A    -11.223820     2A    -11.210854     3A    -11.210554
       4A    -11.207552     5A     -1.080866     6A     -0.930322
       7A     -0.923038     8A     -0.765521     9A     -0.634675
      10A     -0.596524    11A     -0.587264    12A     -0.532734
      13A     -0.527304    14A     -0.507613    15A     -0.474302
      16A     -0.451399    17A     -0.449701

  @DF-RHF Final Energy:  -157.34291236212823

   => Energetics <=

    Nuclear Repulsion Energy =            134.6719841967740194
    One-Electron Energy =                -477.4017092733082563
    Two-Electron Energy =                 185.3868127144060054
    Total Energy =                       -157.3429123621282315
  Basis Set: (AUG-CC-PVTZ AUX)
    Blend: AUG-CC-PVTZ-RI
    Molecular point group: c1

    Geometry (in Angstrom), charge = 0, multiplicity = 1:

       Center              X                  Y                   Z               Mass
    ------------   -----------------  -----------------  -----------------  -----------------
         C            0.019335815770    -0.002485306180    -0.357769840337    12.000000000000
         C           -0.083457784230     1.461001393820     0.066455659663    12.000000000000
         C            1.281521815770    -0.720532306180     0.115471159663    12.000000000000
         C           -1.233691184230    -0.735991306180     0.115473159663    12.000000000000
         H            0.019535815770    -0.002217306180    -1.456378840337     1.007825032230
         H            0.010158815770     1.493340693820     1.210441159663     1.007825032230
         H            0.892971815770     1.989164693820    -0.242630840337     1.007825032230
         H           -0.878709184230     1.977947693820    -0.242754840337     1.007825032230
         H            1.320273815770    -0.741202306180     1.210387159663     1.007825032230
         H            2.183938815770    -0.215509306180    -0.243546840337     1.007825032230
         H            1.307072815770    -1.754982306180    -0.241658840337     1.007825032230
         H           -1.271643184230    -0.759143306180     1.210438159663     1.007825032230
         H           -1.247325184230    -1.770042306180    -0.243398840337     1.007825032230
         H           -2.142296184230    -0.241080306180    -0.242083840337     1.007825032230

  Basis Set: AUG-CC-PVTZ
    Blend: AUG-CC-PVTZ
  Basis Set: (AUG-CC-PVTZ AUX)
    Blend: AUG-CC-PVTZ-JKFIT
	 Reference Energy          =    -157.3429123621282315 [Eh]
	 Singles Energy            =      -0.0000000000000000 [Eh]
	 Same-Spin Energy          =      -0.1666376954848554 [Eh]
	 Opposite-Spin Energy      =      -0.6414320986889526 [Eh]
	 Correlation Energy        =      -0.8080697941738080 [Eh]
	 Total Energy              =    -158.1509821563020353 [Eh]

	 ================> DF-SCS-MP2 Energies <==================
	-----------------------------------------------------------
	 SCS Same-Spin Scale       =       0.3333333333333333 [-]
	 SCS Opposite-Spin Scale   =       1.2000000000000000 [-]
	 SCS Same-Spin Energy      =      -0.0555458984949518 [Eh]
	 SCS Opposite-Spin Energy  =      -0.7697185184267431 [Eh]
	 SCS Correlation Energy    =      -0.8252644169216949 [Eh]
	 SCS Total Energy          =    -158.1681767790499293 [Eh]
	-----------------------------------------------------------

  Dipole Moment: [D]
     X:    -0.0094      Y:    -0.0260      Z:    -0.1616     Total:     0.1639

*** Psi4 exiting successfully. Buy a developer a beer!
