                               Psi4 1.3.2 release

  ==> Input File <==

--------------------------------------------------------------------------
#psi4
#
memory 32 gb

molecule  {
0 1
  C       -0.0000730    -0.0001100    -0.3769120
  C       -0.0089210     1.4518780     0.0963530
  C        1.2547378    -0.7139710     0.1216002
  C       -1.2531000    -0.7336160     0.0963310
  H        0.0001270     0.0001580    -1.4755210
  H       -0.0092500     1.4957160     1.1912990
  H        0.8735630     1.9915400    -0.2617730
  H       -0.8981180     1.9803230    -0.2618970
  H        1.3008650    -0.7388270     1.1912450
  H        2.1645300    -0.2131340    -0.2626890
  H        1.2876640    -1.7526070    -0.2608010
  H       -1.2910520    -0.7567680     1.1912960
  H       -1.2667340    -1.7676670    -0.2625410
  H       -2.1617050    -0.2387050    -0.2612260
units angstrom
no_reorient  #important for SAPT in psi4, default
symmetry c1  #important for SAPT in psi4, default
}

set PROPERTIES_ORIGIN ["COM"]
properties('MP2/aug-cc-pvtz', properties = ['dipole'])
--------------------------------------------------------------------------

    Molecular point group: c1
  Charge       = 0
  Multiplicity = 1
  Basis Set: AUG-CC-PVTZ
    Blend: AUG-CC-PVTZ
  Basis Set: (AUG-CC-PVTZ AUX)
    Blend: AUG-CC-PVTZ-JKFIT

    Orbital Energies [Eh]
    ---------------------

    Doubly Occupied:

       1A    -11.222932     2A    -11.208440     3A    -11.208233
       4A    -11.208198     5A     -1.080816     6A     -0.925071
       7A     -0.924725     8A     -0.765051     9A     -0.630976
      10A     -0.589145    11A     -0.585664    12A     -0.537648
      13A     -0.531797    14A     -0.505464    15A     -0.461669
      16A     -0.459874    17A     -0.458746

  @DF-RHF Final Energy:  -157.35567967822442

   => Energetics <=

    Nuclear Repulsion Energy =            134.7996242930846051
    One-Electron Energy =                -477.7017111757199359
    Two-Electron Energy =                 185.5464072044109116
    Total Energy =                       -157.3556796782244191
  Basis Set: (AUG-CC-PVTZ AUX)
    Blend: AUG-CC-PVTZ-RI
    Molecular point group: c1

    Geometry (in Angstrom), charge = 0, multiplicity = 1:

       Center              X                  Y                   Z               Mass
    ------------   -----------------  -----------------  -----------------  -----------------
         C            0.001448830638    -0.000974372233    -0.373123753292    12.000000000000
         C           -0.007399169362     1.451013627767     0.100141246708    12.000000000000
         C            1.256259630638    -0.714835372233     0.125388446708    12.000000000000
         C           -1.251578169362    -0.734480372233     0.100119246708    12.000000000000
         H            0.001648830638    -0.000706372233    -1.471732753292     1.007825032230
         H           -0.007728169362     1.494851627767     1.195087246708     1.007825032230
         H            0.875084830638     1.990675627767    -0.257984753292     1.007825032230
         H           -0.896596169362     1.979458627767    -0.258108753292     1.007825032230
         H            1.302386830638    -0.739691372233     1.195033246708     1.007825032230
         H            2.166051830638    -0.213998372233    -0.258900753292     1.007825032230
         H            1.289185830638    -1.753471372233    -0.257012753292     1.007825032230
         H           -1.289530169362    -0.757632372233     1.195084246708     1.007825032230
         H           -1.265212169362    -1.768531372233    -0.258752753292     1.007825032230
         H           -2.160183169362    -0.239569372233    -0.257437753292     1.007825032230

  Basis Set: AUG-CC-PVTZ
    Blend: AUG-CC-PVTZ
  Basis Set: (AUG-CC-PVTZ AUX)
    Blend: AUG-CC-PVTZ-JKFIT
	 Reference Energy          =    -157.3556796782244191 [Eh]
	 Singles Energy            =      -0.0000000000000000 [Eh]
	 Same-Spin Energy          =      -0.1664707642358660 [Eh]
	 Opposite-Spin Energy      =      -0.6409167573354080 [Eh]
	 Correlation Energy        =      -0.8073875215712740 [Eh]
	 Total Energy              =    -158.1630671997957052 [Eh]

	 ================> DF-SCS-MP2 Energies <==================
	-----------------------------------------------------------
	 SCS Same-Spin Scale       =       0.3333333333333333 [-]
	 SCS Opposite-Spin Scale   =       1.2000000000000000 [-]
	 SCS Same-Spin Energy      =      -0.0554902547452887 [Eh]
	 SCS Opposite-Spin Energy  =      -0.7691001088024896 [Eh]
	 SCS Correlation Energy    =      -0.8245903635477783 [Eh]
	 SCS Total Energy          =    -158.1802700417721894 [Eh]
	-----------------------------------------------------------

  Dipole Moment: [D]
     X:    -0.0013      Y:     0.0005      Z:    -0.1259     Total:     0.1259

*** Psi4 exiting successfully. Buy a developer a beer!
