                               Psi4 1.4a3.dev225

  ==> Input File <==

--------------------------------------------------------------------------
#psi4
#
memory 32 gb

molecule  {
0 1
  C       -0.0000280    -0.0000010    -0.3767930
  C        0.2480718     1.4114369     0.0900907
  C        1.1128890    -0.9327640     0.0962290
  C       -1.3642330    -0.4974010     0.0964060
  H       -0.0001040    -0.0000030    -1.4753930
  H        0.2590560     1.4736460     1.1912410
  H        1.2162880     1.8028580    -0.2619280
  H       -0.5286700     2.1095640    -0.2618470
  H        1.1468010    -0.9611080     1.1911810
  H        2.0912440    -0.5969440    -0.2620190
  H        0.9531640    -1.9547810    -0.2619140
  H       -1.4056140    -0.5125330     1.1913650
  H       -1.5626250    -1.5126120    -0.2617590
  H       -2.1694990     0.1519130    -0.2616900
units angstrom
no_reorient  #important for SAPT in psi4, default
symmetry c1  #important for SAPT in psi4, default
}

set PROPERTIES_ORIGIN ["COM"]
properties('MP2/aug-cc-pvtz', properties = ['dipole'])
--------------------------------------------------------------------------

    Molecular point group: c1
  Charge       = 0
  Multiplicity = 1
  Basis Set: AUG-CC-PVTZ
    Blend: AUG-CC-PVTZ
  Basis Set: (AUG-CC-PVTZ AUX)
    Blend: AUG-CC-PVTZ-JKFIT

    Orbital Energies [Eh]
    ---------------------

    Doubly Occupied:

       1A    -11.221962     2A    -11.209493     3A    -11.208511
       4A    -11.208486     5A     -1.083204     6A     -0.925405
       7A     -0.924735     8A     -0.764816     9A     -0.631537
      10A     -0.589977    11A     -0.588507    12A     -0.531855
      13A     -0.529431    14A     -0.506819    15A     -0.466173
      16A     -0.460182    17A     -0.456856

  @DF-RHF Final Energy:  -157.35587597732442

   => Energetics <=

    Nuclear Repulsion Energy =            134.9939398783247952
    One-Electron Energy =                -478.0837372834212147
    Two-Electron Energy =                 185.7339214277720032
    Total Energy =                       -157.3558759773244162
  Basis Set: (AUG-CC-PVTZ AUX)
    Blend: AUG-CC-PVTZ-RI
    Molecular point group: c1

    Geometry (in Angstrom), charge = 0, multiplicity = 1:

       Center              X                  Y                   Z               Mass
    ------------   -----------------  -----------------  -----------------  -----------------
         C            0.000653168578     0.003868765338    -0.366506103439    12.000000000000
         C            0.248752968578     1.415306665338     0.100377596561    12.000000000000
         C            1.113570168578    -0.928894234662     0.106515896561    12.000000000000
         C           -1.363551831422    -0.493531234662     0.106692896561    12.000000000000
         H            0.000577168578     0.003866765338    -1.465106103439     1.007825032230
         H            0.259737168578     1.477515765338     1.201527896561     1.007825032230
         H            1.216969168578     1.806727765338    -0.251641103439     1.007825032230
         H           -0.527988831422     2.113433765338    -0.251560103439     1.007825032230
         H            1.147482168578    -0.957238234662     1.201467896561     1.007825032230
         H            2.091925168578    -0.593074234662    -0.251732103439     1.007825032230
         H            0.953845168578    -1.950911234662    -0.251627103439     1.007825032230
         H           -1.404932831422    -0.508663234662     1.201651896561     1.007825032230
         H           -1.561943831422    -1.508742234662    -0.251472103439     1.007825032230
         H           -2.168817831422     0.155782765338    -0.251403103439     1.007825032230

  Basis Set: AUG-CC-PVTZ
    Blend: AUG-CC-PVTZ
  Basis Set: (AUG-CC-PVTZ AUX)
    Blend: AUG-CC-PVTZ-JKFIT
	 Reference Energy          =    -157.3558759773244162 [Eh]
	 Singles Energy            =      -0.0000000000000000 [Eh]
	 Same-Spin Energy          =      -0.1666056373414386 [Eh]
	 Opposite-Spin Energy      =      -0.6410056068938774 [Eh]
	 Correlation Energy        =      -0.8076112442353161 [Eh]
	 Total Energy              =    -158.1634872215597341 [Eh]

	 ================> DF-SCS-MP2 Energies <==================
	-----------------------------------------------------------
	 SCS Same-Spin Scale       =       0.3333333333333333 [-]
	 SCS Opposite-Spin Scale   =       1.2000000000000000 [-]
	 SCS Same-Spin Energy      =      -0.0555352124471462 [Eh]
	 SCS Opposite-Spin Energy  =      -0.7692067282726529 [Eh]
	 SCS Correlation Energy    =      -0.8247419407197991 [Eh]
	 SCS Total Energy          =    -158.1806179180442200 [Eh]
	-----------------------------------------------------------

  Dipole Moment: [D]
     X:     0.0002      Y:     0.0009      Z:    -0.1379     Total:     0.1379

*** Psi4 exiting successfully. Buy a developer a beer!
