                               Psi4 1.3.2 release

  ==> Input File <==

--------------------------------------------------------------------------
#psi4
#
memory 32 gb

molecule  {
0 1
  C       -0.0000730    -0.0001100    -0.3769120
  C       -0.0089210     1.4518780     0.0963530
  C        1.2303282    -0.7001138     0.1964722
  C       -1.2531000    -0.7336160     0.0963310
  H        0.0001270     0.0001580    -1.4755210
  H       -0.0092500     1.4957160     1.1912990
  H        0.8735630     1.9915400    -0.2617730
  H       -0.8981180     1.9803230    -0.2618970
  H        1.3008650    -0.7388270     1.1912450
  H        2.1645300    -0.2131340    -0.2626890
  H        1.2876640    -1.7526070    -0.2608010
  H       -1.2910520    -0.7567680     1.1912960
  H       -1.2667340    -1.7676670    -0.2625410
  H       -2.1617050    -0.2387050    -0.2612260
units angstrom
no_reorient  #important for SAPT in psi4, default
symmetry c1  #important for SAPT in psi4, default
}

set PROPERTIES_ORIGIN ["COM"]
properties('MP2/aug-cc-pvtz', properties = ['dipole'])
--------------------------------------------------------------------------

    Molecular point group: c1
  Charge       = 0
  Multiplicity = 1
  Basis Set: AUG-CC-PVTZ
    Blend: AUG-CC-PVTZ
  Basis Set: (AUG-CC-PVTZ AUX)
    Blend: AUG-CC-PVTZ-JKFIT

    Orbital Energies [Eh]
    ---------------------

    Doubly Occupied:

       1A    -11.223913     2A    -11.209981     3A    -11.207861
       4A    -11.207829     5A     -1.082211     6A     -0.925190
       7A     -0.924919     8A     -0.768605     9A     -0.631844
      10A     -0.593581    11A     -0.578311    12A     -0.552598
      13A     -0.531945    14A     -0.496571    15A     -0.469785
      16A     -0.452711    17A     -0.451711

  @DF-RHF Final Energy:  -157.34289573837930

   => Energetics <=

    Nuclear Repulsion Energy =            134.9751886681713700
    One-Electron Energy =                -478.0170365153428520
    Two-Electron Energy =                 185.6989521087921844
    Total Energy =                       -157.3428957383792977
  Basis Set: (AUG-CC-PVTZ AUX)
    Blend: AUG-CC-PVTZ-RI
    Molecular point group: c1

    Geometry (in Angstrom), charge = 0, multiplicity = 1:

       Center              X                  Y                   Z               Mass
    ------------   -----------------  -----------------  -----------------  -----------------
         C            0.006492288359    -0.003837516337    -0.388593640814    12.000000000000
         C           -0.002355711641     1.448150483663     0.084671359186    12.000000000000
         C            1.236893488359    -0.703841316337     0.184790559186    12.000000000000
         C           -1.246534711641    -0.737343516337     0.084649359186    12.000000000000
         H            0.006692288359    -0.003569516337    -1.487202640814     1.007825032230
         H           -0.002684711641     1.491988483663     1.179617359186     1.007825032230
         H            0.880128288359     1.987812483663    -0.273454640814     1.007825032230
         H           -0.891552711641     1.976595483663    -0.273578640814     1.007825032230
         H            1.307430288359    -0.742554516337     1.179563359186     1.007825032230
         H            2.171095288359    -0.216861516337    -0.274370640814     1.007825032230
         H            1.294229288359    -1.756334516337    -0.272482640814     1.007825032230
         H           -1.284486711641    -0.760495516337     1.179614359186     1.007825032230
         H           -1.260168711641    -1.771394516337    -0.274222640814     1.007825032230
         H           -2.155139711641    -0.242432516337    -0.272907640814     1.007825032230

  Basis Set: AUG-CC-PVTZ
    Blend: AUG-CC-PVTZ
  Basis Set: (AUG-CC-PVTZ AUX)
    Blend: AUG-CC-PVTZ-JKFIT
	 Reference Energy          =    -157.3428957383792977 [Eh]
	 Singles Energy            =      -0.0000000000000000 [Eh]
	 Same-Spin Energy          =      -0.1666641898863210 [Eh]
	 Opposite-Spin Energy      =      -0.6415354337457868 [Eh]
	 Correlation Energy        =      -0.8081996236321078 [Eh]
	 Total Energy              =    -158.1510953620114037 [Eh]

	 ================> DF-SCS-MP2 Energies <==================
	-----------------------------------------------------------
	 SCS Same-Spin Scale       =       0.3333333333333333 [-]
	 SCS Opposite-Spin Scale   =       1.2000000000000000 [-]
	 SCS Same-Spin Energy      =      -0.0555547299621070 [Eh]
	 SCS Opposite-Spin Energy  =      -0.7698425204949442 [Eh]
	 SCS Correlation Energy    =      -0.8253972504570511 [Eh]
	 SCS Total Energy          =    -158.1682929888363560 [Eh]
	-----------------------------------------------------------

  Dipole Moment: [D]
     X:    -0.0170      Y:     0.0094      Z:    -0.1036     Total:     0.1054

*** Psi4 exiting successfully. Buy a developer a beer!
