                               Psi4 1.3.2 release

  ==> Input File <==

--------------------------------------------------------------------------
#psi4
#
memory 32 gb

molecule  {
0 1
  C       -0.4426020    -0.8338200     0.2172010
  C       -2.7550300    -0.2335230    -0.2686280
  C       -1.3727340    -0.3393290    -0.9144000
  C       -1.1456910    -0.3766540     1.5340440
  C       -2.4139240     0.3715680     1.0951880
  C        0.9762580    -0.3476150     0.0696660
  C       -3.7696470     0.5602740    -1.0788290
  C        1.2785260     1.0190760     0.1766520
  C        2.0077953    -1.2280805    -0.2940968
  C        2.5868840     1.4777510     0.0263980
  C        3.3346800    -0.7855870    -0.3490730
  C        3.6209360     0.5756970    -0.2390260
  H       -0.4241810    -1.9311060     0.1924250
  H       -3.1414670    -1.2511910    -0.1070860
  H       -1.0573430     0.6588960    -1.2471640
  H       -1.3450850    -0.9967850    -1.7909970
  H       -0.4862050     0.2392810     2.1528250
  H       -1.4122900    -1.2543580     2.1330320
  H       -3.2323950     0.2935880     1.8197160
  H       -2.2008590     1.4410770     0.9595580
  H       -3.4037750     1.5784440    -1.2516650
  H       -3.9506210     0.0965540    -2.0538340
  H       -4.7289130     0.6299820    -0.5557020
  H        0.4812350     1.7322070     0.3831320
  H        1.8065840    -2.3037040    -0.2799060
  H        2.8010350     2.5405970     0.1152150
  H        4.1326410    -1.4960120    -0.5534930
  H        4.6413930     0.9324010    -0.3562540
units angstrom
no_reorient  #important for SAPT in psi4, default
symmetry c1  #important for SAPT in psi4, default
}

set PROPERTIES_ORIGIN ["COM"]
properties('MP2/aug-cc-pvtz', properties = ['dipole'])
--------------------------------------------------------------------------

    Molecular point group: c1
  Charge       = 0
  Multiplicity = 1
  Basis Set: AUG-CC-PVTZ
    Blend: AUG-CC-PVTZ
  Basis Set: (AUG-CC-PVTZ AUX)
    Blend: AUG-CC-PVTZ-JKFIT

    Orbital Energies [Eh]
    ---------------------

    Doubly Occupied:

       1A    -11.237453     2A    -11.234065     3A    -11.233601
       4A    -11.229003     5A    -11.228787     6A    -11.228454
       7A    -11.228313     8A    -11.221165     9A    -11.216801
      10A    -11.214947    11A    -11.214782    12A    -11.211600
      13A     -1.155800    14A     -1.124765    15A     -1.039434
      16A     -1.008107    17A     -0.988515    18A     -0.953587
      19A     -0.892719    20A     -0.826001    21A     -0.815997
      22A     -0.763622    23A     -0.756947    24A     -0.689320
      25A     -0.660445    26A     -0.634975    27A     -0.621020
      28A     -0.606525    29A     -0.586127    30A     -0.580124
      31A     -0.572682    32A     -0.555960    33A     -0.528594
      34A     -0.511091    35A     -0.510155    36A     -0.488369
      37A     -0.475478    38A     -0.463707    39A     -0.460142
      40A     -0.453905    41A     -0.450392    42A     -0.444283
      43A     -0.332404    44A     -0.318492

  @DF-RHF Final Energy:  -463.89123904816211

   => Energetics <=

    Nuclear Repulsion Energy =            675.8742775797769582
    One-Electron Energy =               -1967.5937253811457595
    Two-Electron Energy =                 827.8282087532068090
    Total Energy =                       -463.8912390481621060
  Basis Set: (AUG-CC-PVTZ AUX)
    Blend: AUG-CC-PVTZ-RI
    Molecular point group: c1

    Geometry (in Angstrom), charge = 0, multiplicity = 1:

       Center              X                  Y                   Z               Mass
    ------------   -----------------  -----------------  -----------------  -----------------
         C           -0.512890894362    -0.829036747722     0.221837922615    12.000000000000
         C           -2.825318894362    -0.228739747722    -0.263991077385    12.000000000000
         C           -1.443022894362    -0.334545747722    -0.909763077385    12.000000000000
         C           -1.215979894362    -0.371870747722     1.538680922615    12.000000000000
         C           -2.484212894362     0.376351252278     1.099824922615    12.000000000000
         C            0.905969105638    -0.342831747722     0.074302922615    12.000000000000
         C           -3.839935894362     0.565057252278    -1.074192077385    12.000000000000
         C            1.208237105638     1.023859252278     0.181288922615    12.000000000000
         C            1.937506405638    -1.223297247722    -0.289459877385    12.000000000000
         C            2.516595105638     1.482534252278     0.031034922615    12.000000000000
         C            3.264391105638    -0.780803747722    -0.344436077385    12.000000000000
         C            3.550647105638     0.580480252278    -0.234389077385    12.000000000000
         H           -0.494469894362    -1.926322747722     0.197061922615     1.007825032230
         H           -3.211755894362    -1.246407747722    -0.102449077385     1.007825032230
         H           -1.127631894362     0.663679252278    -1.242527077385     1.007825032230
         H           -1.415373894362    -0.992001747722    -1.786360077385     1.007825032230
         H           -0.556493894362     0.244064252278     2.157461922615     1.007825032230
         H           -1.482578894362    -1.249574747722     2.137668922615     1.007825032230
         H           -3.302683894362     0.298371252278     1.824352922615     1.007825032230
         H           -2.271147894362     1.445860252278     0.964194922615     1.007825032230
         H           -3.474063894362     1.583227252278    -1.247028077385     1.007825032230
         H           -4.020909894362     0.101337252278    -2.049197077385     1.007825032230
         H           -4.799201894362     0.634765252278    -0.551065077385     1.007825032230
         H            0.410946105638     1.736990252278     0.387768922615     1.007825032230
         H            1.736295105638    -2.298920747722    -0.275269077385     1.007825032230
         H            2.730746105638     2.545380252278     0.119851922615     1.007825032230
         H            4.062352105638    -1.491228747722    -0.548856077385     1.007825032230
         H            4.571104105638     0.937184252278    -0.351617077385     1.007825032230

  Basis Set: AUG-CC-PVTZ
    Blend: AUG-CC-PVTZ
  Basis Set: (AUG-CC-PVTZ AUX)
    Blend: AUG-CC-PVTZ-JKFIT
	 Reference Energy          =    -463.8912390481621060 [Eh]
	 Singles Energy            =      -0.0000000000000000 [Eh]
	 Same-Spin Energy          =      -0.5196714066933166 [Eh]
	 Opposite-Spin Energy      =      -1.7268435638858441 [Eh]
	 Correlation Energy        =      -2.2465149705791605 [Eh]
	 Total Energy              =    -466.1377540187412478 [Eh]

	 ================> DF-SCS-MP2 Energies <==================
	-----------------------------------------------------------
	 SCS Same-Spin Scale       =       0.3333333333333333 [-]
	 SCS Opposite-Spin Scale   =       1.2000000000000000 [-]
	 SCS Same-Spin Energy      =      -0.1732238022311055 [Eh]
	 SCS Opposite-Spin Energy  =      -2.0722122766630129 [Eh]
	 SCS Correlation Energy    =      -2.2454360788941186 [Eh]
	 SCS Total Energy          =    -466.1366751270562077 [Eh]
	-----------------------------------------------------------

  Dipole Moment: [D]
     X:    -0.5617      Y:    -0.1884      Z:     0.0941     Total:     0.5998

*** Psi4 exiting successfully. Buy a developer a beer!
