                               Psi4 1.3.2 release

  ==> Input File <==

--------------------------------------------------------------------------
#psi4
#
memory 32 gb

molecule  {
0 1
  C       -0.4426020    -0.8338200     0.2172010
  C       -2.7550300    -0.2335230    -0.2686280
  C       -1.3727340    -0.3393290    -0.9144000
  C       -1.1456910    -0.3766540     1.5340440
  C       -2.4139240     0.3715680     1.0951880
  C        0.9762580    -0.3476150     0.0696660
  C       -3.7696470     0.5602740    -1.0788290
  C        1.2785260     1.0190760     0.1766520
  C        1.9859109    -1.2109781    -0.4415030
  C        2.5868840     1.4777510     0.0263980
  C        3.3346800    -0.7855870    -0.3490730
  C        3.6209360     0.5756970    -0.2390260
  H       -0.4241810    -1.9311060     0.1924250
  H       -3.1414670    -1.2511910    -0.1070860
  H       -1.0573430     0.6588960    -1.2471640
  H       -1.3450850    -0.9967850    -1.7909970
  H       -0.4862050     0.2392810     2.1528250
  H       -1.4122900    -1.2543580     2.1330320
  H       -3.2323950     0.2935880     1.8197160
  H       -2.2008590     1.4410770     0.9595580
  H       -3.4037750     1.5784440    -1.2516650
  H       -3.9506210     0.0965540    -2.0538340
  H       -4.7289130     0.6299820    -0.5557020
  H        0.4812350     1.7322070     0.3831320
  H        1.8065840    -2.3037040    -0.2799060
  H        2.8010350     2.5405970     0.1152150
  H        4.1326410    -1.4960120    -0.5534930
  H        4.6413930     0.9324010    -0.3562540
units angstrom
no_reorient  #important for SAPT in psi4, default
symmetry c1  #important for SAPT in psi4, default
}

set PROPERTIES_ORIGIN ["COM"]
properties('MP2/aug-cc-pvtz', properties = ['dipole'])
--------------------------------------------------------------------------

    Molecular point group: c1
  Charge       = 0
  Multiplicity = 1
  Basis Set: AUG-CC-PVTZ
    Blend: AUG-CC-PVTZ
  Basis Set: (AUG-CC-PVTZ AUX)
    Blend: AUG-CC-PVTZ-JKFIT

    Orbital Energies [Eh]
    ---------------------

    Doubly Occupied:

       1A    -11.242185     2A    -11.237793     3A    -11.236717
       4A    -11.233142     5A    -11.228765     6A    -11.228398
       7A    -11.228011     8A    -11.221339     9A    -11.217254
      10A    -11.215230    11A    -11.215137    12A    -11.211746
      13A     -1.154820    14A     -1.124536    15A     -1.039368
      16A     -1.006156    17A     -0.988564    18A     -0.953233
      19A     -0.892895    20A     -0.824299    21A     -0.815104
      22A     -0.763862    23A     -0.755993    24A     -0.687052
      25A     -0.660239    26A     -0.634192    27A     -0.618834
      28A     -0.605161    29A     -0.585988    30A     -0.580105
      31A     -0.569228    32A     -0.555558    33A     -0.528615
      34A     -0.511595    35A     -0.509551    36A     -0.482823
      37A     -0.475917    38A     -0.464157    39A     -0.458018
      40A     -0.454016    41A     -0.450472    42A     -0.444865
      43A     -0.332571    44A     -0.317323

  @DF-RHF Final Energy:  -463.87466570581188

   => Energetics <=

    Nuclear Repulsion Energy =            675.3599837304329867
    One-Electron Energy =               -1966.5476440384406942
    Two-Electron Energy =                 827.3129946021958858
    Total Energy =                       -463.8746657058118217
  Basis Set: (AUG-CC-PVTZ AUX)
    Blend: AUG-CC-PVTZ-RI
    Molecular point group: c1

    Geometry (in Angstrom), charge = 0, multiplicity = 1:

       Center              X                  Y                   Z               Mass
    ------------   -----------------  -----------------  -----------------  -----------------
         C           -0.511250847704    -0.830318424806     0.232884743442    12.000000000000
         C           -2.823678847704    -0.230021424806    -0.252944256558    12.000000000000
         C           -1.441382847704    -0.335827424806    -0.898716256558    12.000000000000
         C           -1.214339847704    -0.373152424806     1.549727743442    12.000000000000
         C           -2.482572847704     0.375069575194     1.110871743442    12.000000000000
         C            0.907609152296    -0.344113424806     0.085349743442    12.000000000000
         C           -3.838295847704     0.563775575194    -1.063145256558    12.000000000000
         C            1.209877152296     1.022577575194     0.192335743442    12.000000000000
         C            1.917262052296    -1.207476524806    -0.425819256558    12.000000000000
         C            2.518235152296     1.481252575194     0.042081743442    12.000000000000
         C            3.266031152296    -0.782085424806    -0.333389256558    12.000000000000
         C            3.552287152296     0.579198575194    -0.223342256558    12.000000000000
         H           -0.492829847704    -1.927604424806     0.208108743442     1.007825032230
         H           -3.210115847704    -1.247689424806    -0.091402256558     1.007825032230
         H           -1.125991847704     0.662397575194    -1.231480256558     1.007825032230
         H           -1.413733847704    -0.993283424806    -1.775313256558     1.007825032230
         H           -0.554853847704     0.242782575194     2.168508743442     1.007825032230
         H           -1.480938847704    -1.250856424806     2.148715743442     1.007825032230
         H           -3.301043847704     0.297089575194     1.835399743442     1.007825032230
         H           -2.269507847704     1.444578575194     0.975241743442     1.007825032230
         H           -3.472423847704     1.581945575194    -1.235981256558     1.007825032230
         H           -4.019269847704     0.100055575194    -2.038150256558     1.007825032230
         H           -4.797561847704     0.633483575194    -0.540018256558     1.007825032230
         H            0.412586152296     1.735708575194     0.398815743442     1.007825032230
         H            1.737935152296    -2.300202424806    -0.264222256558     1.007825032230
         H            2.732386152296     2.544098575194     0.130898743442     1.007825032230
         H            4.063992152296    -1.492510424806    -0.537809256558     1.007825032230
         H            4.572744152296     0.935902575194    -0.340570256558     1.007825032230

  Basis Set: AUG-CC-PVTZ
    Blend: AUG-CC-PVTZ
  Basis Set: (AUG-CC-PVTZ AUX)
    Blend: AUG-CC-PVTZ-JKFIT
	 Reference Energy          =    -463.8746657058118785 [Eh]
	 Singles Energy            =      -0.0000000000000000 [Eh]
	 Same-Spin Energy          =      -0.5204342145099679 [Eh]
	 Opposite-Spin Energy      =      -1.7292010413454988 [Eh]
	 Correlation Energy        =      -2.2496352558554666 [Eh]
	 Total Energy              =    -466.1243009616673589 [Eh]

	 ================> DF-SCS-MP2 Energies <==================
	-----------------------------------------------------------
	 SCS Same-Spin Scale       =       0.3333333333333333 [-]
	 SCS Opposite-Spin Scale   =       1.2000000000000000 [-]
	 SCS Same-Spin Energy      =      -0.1734780715033226 [Eh]
	 SCS Opposite-Spin Energy  =      -2.0750412496145985 [Eh]
	 SCS Correlation Energy    =      -2.2485193211179211 [Eh]
	 SCS Total Energy          =    -466.1231850269297752 [Eh]
	-----------------------------------------------------------

  Dipole Moment: [D]
     X:    -0.5499      Y:    -0.0921      Z:     0.1918     Total:     0.5896

*** Psi4 exiting successfully. Buy a developer a beer!
