                               Psi4 1.3.2 release

  ==> Input File <==

--------------------------------------------------------------------------
#psi4
#
memory 32 gb

molecule  {
0 1
  C       -0.4426020    -0.8338200     0.2172010
  C       -2.7550300    -0.2335230    -0.2686280
  C       -1.3727340    -0.3393290    -0.9144000
  C       -1.1456910    -0.3766540     1.5340440
  C       -2.4139240     0.3715680     1.0951880
  C        0.9762580    -0.3476150     0.0696660
  C       -3.7696470     0.5602740    -1.0788290
  C        1.2785260     1.0190760     0.1766520
  C        1.9932057    -1.2166789    -0.3923676
  C        2.5868840     1.4777510     0.0263980
  C        3.3346800    -0.7855870    -0.3490730
  C        3.6209360     0.5756970    -0.2390260
  H       -0.4241810    -1.9311060     0.1924250
  H       -3.1414670    -1.2511910    -0.1070860
  H       -1.0573430     0.6588960    -1.2471640
  H       -1.3450850    -0.9967850    -1.7909970
  H       -0.4862050     0.2392810     2.1528250
  H       -1.4122900    -1.2543580     2.1330320
  H       -3.2323950     0.2935880     1.8197160
  H       -2.2008590     1.4410770     0.9595580
  H       -3.4037750     1.5784440    -1.2516650
  H       -3.9506210     0.0965540    -2.0538340
  H       -4.7289130     0.6299820    -0.5557020
  H        0.4812350     1.7322070     0.3831320
  H        1.8065840    -2.3037040    -0.2799060
  H        2.8010350     2.5405970     0.1152150
  H        4.1326410    -1.4960120    -0.5534930
  H        4.6413930     0.9324010    -0.3562540
units angstrom
no_reorient  #important for SAPT in psi4, default
symmetry c1  #important for SAPT in psi4, default
}

set PROPERTIES_ORIGIN ["COM"]
properties('MP2/aug-cc-pvtz', properties = ['dipole'])
--------------------------------------------------------------------------

    Molecular point group: c1
  Charge       = 0
  Multiplicity = 1
  Basis Set: AUG-CC-PVTZ
    Blend: AUG-CC-PVTZ
  Basis Set: (AUG-CC-PVTZ AUX)
    Blend: AUG-CC-PVTZ-JKFIT

    Orbital Energies [Eh]
    ---------------------

    Doubly Occupied:

       1A    -11.240194     2A    -11.236017     3A    -11.235558
       4A    -11.231397     5A    -11.228635     6A    -11.228565
       7A    -11.228131     8A    -11.221259     9A    -11.217065
      10A    -11.215110    11A    -11.214983    12A    -11.211682
      13A     -1.155225    14A     -1.124632    15A     -1.039384
      16A     -1.006997    17A     -0.988555    18A     -0.953366
      19A     -0.892827    20A     -0.824991    21A     -0.815474
      22A     -0.763757    23A     -0.756370    24A     -0.687919
      25A     -0.660334    26A     -0.634492    27A     -0.619613
      28A     -0.605847    29A     -0.586057    30A     -0.580097
      31A     -0.570679    32A     -0.555738    33A     -0.528626
      34A     -0.511459    35A     -0.509789    36A     -0.485099
      37A     -0.475761    38A     -0.464028    39A     -0.458751
      40A     -0.454030    41A     -0.450468    42A     -0.444681
      43A     -0.332481    44A     -0.317796

  @DF-RHF Final Energy:  -463.88179844866585

   => Energetics <=

    Nuclear Repulsion Energy =            675.5849910114332033
    One-Electron Energy =               -1967.0057385431421153
    Two-Electron Energy =                 827.5389490830431214
    Total Energy =                       -463.8817984486657906
  Basis Set: (AUG-CC-PVTZ AUX)
    Blend: AUG-CC-PVTZ-RI
    Molecular point group: c1

    Geometry (in Angstrom), charge = 0, multiplicity = 1:

       Center              X                  Y                   Z               Mass
    ------------   -----------------  -----------------  -----------------  -----------------
         C           -0.511797529923    -0.829891199111     0.229202469833    12.000000000000
         C           -2.824225529923    -0.229594199111    -0.256626530167    12.000000000000
         C           -1.441929529923    -0.335400199111    -0.902398530167    12.000000000000
         C           -1.214886529923    -0.372725199111     1.546045469833    12.000000000000
         C           -2.483119529923     0.375496800889     1.107189469833    12.000000000000
         C            0.907062470077    -0.343686199111     0.081667469833    12.000000000000
         C           -3.838842529923     0.564202800889    -1.066827530167    12.000000000000
         C            1.209330470077     1.023004800889     0.188653469833    12.000000000000
         C            1.924010170077    -1.212750099111    -0.380366130167    12.000000000000
         C            2.517688470077     1.481679800889     0.038399469833    12.000000000000
         C            3.265484470077    -0.781658199111    -0.337071530167    12.000000000000
         C            3.551740470077     0.579625800889    -0.227024530167    12.000000000000
         H           -0.493376529923    -1.927177199111     0.204426469833     1.007825032230
         H           -3.210662529923    -1.247262199111    -0.095084530167     1.007825032230
         H           -1.126538529923     0.662824800889    -1.235162530167     1.007825032230
         H           -1.414280529923    -0.992856199111    -1.778995530167     1.007825032230
         H           -0.555400529923     0.243209800889     2.164826469833     1.007825032230
         H           -1.481485529923    -1.250429199111     2.145033469833     1.007825032230
         H           -3.301590529923     0.297516800889     1.831717469833     1.007825032230
         H           -2.270054529923     1.445005800889     0.971559469833     1.007825032230
         H           -3.472970529923     1.582372800889    -1.239663530167     1.007825032230
         H           -4.019816529923     0.100482800889    -2.041832530167     1.007825032230
         H           -4.798108529923     0.633910800889    -0.543700530167     1.007825032230
         H            0.412039470077     1.736135800889     0.395133469833     1.007825032230
         H            1.737388470077    -2.299775199111    -0.267904530167     1.007825032230
         H            2.731839470077     2.544525800889     0.127216469833     1.007825032230
         H            4.063445470077    -1.492083199111    -0.541491530167     1.007825032230
         H            4.572197470077     0.936329800889    -0.344252530167     1.007825032230

  Basis Set: AUG-CC-PVTZ
    Blend: AUG-CC-PVTZ
  Basis Set: (AUG-CC-PVTZ AUX)
    Blend: AUG-CC-PVTZ-JKFIT
	 Reference Energy          =    -463.8817984486658474 [Eh]
	 Singles Energy            =      -0.0000000000000000 [Eh]
	 Same-Spin Energy          =      -0.5201165741333285 [Eh]
	 Opposite-Spin Energy      =      -1.7281883500603890 [Eh]
	 Correlation Energy        =      -2.2483049241937172 [Eh]
	 Total Energy              =    -466.1301033728595371 [Eh]

	 ================> DF-SCS-MP2 Energies <==================
	-----------------------------------------------------------
	 SCS Same-Spin Scale       =       0.3333333333333333 [-]
	 SCS Opposite-Spin Scale   =       1.2000000000000000 [-]
	 SCS Same-Spin Energy      =      -0.1733721913777762 [Eh]
	 SCS Opposite-Spin Energy  =      -2.0738260200724667 [Eh]
	 SCS Correlation Energy    =      -2.2471982114502431 [Eh]
	 SCS Total Energy          =    -466.1289966601161154 [Eh]
	-----------------------------------------------------------

  Dipole Moment: [D]
     X:    -0.5539      Y:    -0.1338      Z:     0.1574     Total:     0.5912

*** Psi4 exiting successfully. Buy a developer a beer!
