                               Psi4 1.3.2 release

  ==> Input File <==

--------------------------------------------------------------------------
#psi4
#
memory 32 gb

molecule  {
0 1
  C       -0.4426020    -0.8338200     0.2172010
  C       -2.7550300    -0.2335230    -0.2686280
  C       -1.3727340    -0.3393290    -0.9144000
  C       -1.1456910    -0.3766540     1.5340440
  C       -2.4139240     0.3715680     1.0951880
  C        0.9762580    -0.3476150     0.0696660
  C       -3.7696470     0.5602740    -1.0788290
  C        1.2785260     1.0190760     0.1766520
  C        2.0150902    -1.2337812    -0.2449614
  C        2.5868840     1.4777510     0.0263980
  C        3.3346800    -0.7855870    -0.3490730
  C        3.6209360     0.5756970    -0.2390260
  H       -0.4241810    -1.9311060     0.1924250
  H       -3.1414670    -1.2511910    -0.1070860
  H       -1.0573430     0.6588960    -1.2471640
  H       -1.3450850    -0.9967850    -1.7909970
  H       -0.4862050     0.2392810     2.1528250
  H       -1.4122900    -1.2543580     2.1330320
  H       -3.2323950     0.2935880     1.8197160
  H       -2.2008590     1.4410770     0.9595580
  H       -3.4037750     1.5784440    -1.2516650
  H       -3.9506210     0.0965540    -2.0538340
  H       -4.7289130     0.6299820    -0.5557020
  H        0.4812350     1.7322070     0.3831320
  H        1.8065840    -2.3037040    -0.2799060
  H        2.8010350     2.5405970     0.1152150
  H        4.1326410    -1.4960120    -0.5534930
  H        4.6413930     0.9324010    -0.3562540
units angstrom
no_reorient  #important for SAPT in psi4, default
symmetry c1  #important for SAPT in psi4, default
}

set PROPERTIES_ORIGIN ["COM"]
properties('MP2/aug-cc-pvtz', properties = ['dipole'])
--------------------------------------------------------------------------

    Molecular point group: c1
  Charge       = 0
  Multiplicity = 1
  Basis Set: AUG-CC-PVTZ
    Blend: AUG-CC-PVTZ
  Basis Set: (AUG-CC-PVTZ AUX)
    Blend: AUG-CC-PVTZ-JKFIT

    Orbital Energies [Eh]
    ---------------------

    Doubly Occupied:

       1A    -11.236744     2A    -11.233699     3A    -11.233015
       4A    -11.228897     5A    -11.228421     6A    -11.228404
       7A    -11.228282     8A    -11.221153     9A    -11.216726
      10A    -11.214903    11A    -11.214738    12A    -11.211583
      13A     -1.155949    14A     -1.124799    15A     -1.039459
      16A     -1.008370    17A     -0.988486    18A     -0.953684
      19A     -0.892681    20A     -0.826271    21A     -0.816138
      22A     -0.763593    23A     -0.757119    24A     -0.689727
      25A     -0.660451    26A     -0.635120    27A     -0.621532
      28A     -0.606586    29A     -0.586139    30A     -0.580090
      31A     -0.573225    32A     -0.556043    33A     -0.528571
      34A     -0.510929    35A     -0.510205    36A     -0.489390
      37A     -0.475362    38A     -0.463539    39A     -0.460748
      40A     -0.453820    41A     -0.450340    42A     -0.444074
      43A     -0.332377    44A     -0.318696

  @DF-RHF Final Energy:  -463.89359889695606

   => Energetics <=

    Nuclear Repulsion Energy =            675.9354000950661430
    One-Electron Energy =               -1967.7178421310602516
    Two-Electron Energy =                 827.8888431390380447
    Total Energy =                       -463.8935988969560640
  Basis Set: (AUG-CC-PVTZ AUX)
    Blend: AUG-CC-PVTZ-RI
    Molecular point group: c1

    Geometry (in Angstrom), charge = 0, multiplicity = 1:

       Center              X                  Y                   Z               Mass
    ------------   -----------------  -----------------  -----------------  -----------------
         C           -0.513437584076    -0.828609529522     0.218155649006    12.000000000000
         C           -2.825865584076    -0.228312529522    -0.267673350994    12.000000000000
         C           -1.443569584076    -0.334118529522    -0.913445350994    12.000000000000
         C           -1.216526584076    -0.371443529522     1.534998649006    12.000000000000
         C           -2.484759584076     0.376778470478     1.096142649006    12.000000000000
         C            0.905422415924    -0.342404529522     0.070620649006    12.000000000000
         C           -3.840482584076     0.565484470478    -1.077874350994    12.000000000000
         C            1.207690415924     1.024286470478     0.177606649006    12.000000000000
         C            1.944254615924    -1.228570729522    -0.244006750994    12.000000000000
         C            2.516048415924     1.482961470478     0.027352649006    12.000000000000
         C            3.263844415924    -0.780376529522    -0.348118350994    12.000000000000
         C            3.550100415924     0.580907470478    -0.238071350994    12.000000000000
         H           -0.495016584076    -1.925895529522     0.193379649006     1.007825032230
         H           -3.212302584076    -1.245980529522    -0.106131350994     1.007825032230
         H           -1.128178584076     0.664106470478    -1.246209350994     1.007825032230
         H           -1.415920584076    -0.991574529522    -1.790042350994     1.007825032230
         H           -0.557040584076     0.244491470478     2.153779649006     1.007825032230
         H           -1.483125584076    -1.249147529522     2.133986649006     1.007825032230
         H           -3.303230584076     0.298798470478     1.820670649006     1.007825032230
         H           -2.271694584076     1.446287470478     0.960512649006     1.007825032230
         H           -3.474610584076     1.583654470478    -1.250710350994     1.007825032230
         H           -4.021456584076     0.101764470478    -2.052879350994     1.007825032230
         H           -4.799748584076     0.635192470478    -0.554747350994     1.007825032230
         H            0.410399415924     1.737417470478     0.384086649006     1.007825032230
         H            1.735748415924    -2.298493529522    -0.278951350994     1.007825032230
         H            2.730199415924     2.545807470478     0.116169649006     1.007825032230
         H            4.061805415924    -1.490801529522    -0.552538350994     1.007825032230
         H            4.570557415924     0.937611470478    -0.355299350994     1.007825032230

  Basis Set: AUG-CC-PVTZ
    Blend: AUG-CC-PVTZ
  Basis Set: (AUG-CC-PVTZ AUX)
    Blend: AUG-CC-PVTZ-JKFIT
	 Reference Energy          =    -463.8935988969560640 [Eh]
	 Singles Energy            =      -0.0000000000000000 [Eh]
	 Same-Spin Energy          =      -0.5195534624736409 [Eh]
	 Opposite-Spin Energy      =      -1.7265315616332804 [Eh]
	 Correlation Energy        =      -2.2460850241069212 [Eh]
	 Total Energy              =    -466.1396839210630105 [Eh]

	 ================> DF-SCS-MP2 Energies <==================
	-----------------------------------------------------------
	 SCS Same-Spin Scale       =       0.3333333333333333 [-]
	 SCS Opposite-Spin Scale   =       1.2000000000000000 [-]
	 SCS Same-Spin Energy      =      -0.1731844874912136 [Eh]
	 SCS Opposite-Spin Energy  =      -2.0718378739599363 [Eh]
	 SCS Correlation Energy    =      -2.2450223614511500 [Eh]
	 SCS Total Energy          =    -466.1386212584072268 [Eh]
	-----------------------------------------------------------

  Dipole Moment: [D]
     X:    -0.5654      Y:    -0.2006      Z:     0.0650     Total:     0.6035

*** Psi4 exiting successfully. Buy a developer a beer!
