                               Psi4 1.3.2 release

  ==> Input File <==

--------------------------------------------------------------------------
#psi4
#
memory 32 gb

molecule  {
0 1
  C       -0.4426020    -0.8338200     0.2172010
  C       -2.7550300    -0.2335230    -0.2686280
  C       -1.3727340    -0.3393290    -0.9144000
  C       -1.1456910    -0.3766540     1.5340440
  C       -2.4139240     0.3715680     1.0951880
  C        0.9762580    -0.3476150     0.0696660
  C       -3.7696470     0.5602740    -1.0788290
  C        1.2785260     1.0190760     0.1766520
  C        2.0005005    -1.2223797    -0.3432322
  C        2.5868840     1.4777510     0.0263980
  C        3.3346800    -0.7855870    -0.3490730
  C        3.6209360     0.5756970    -0.2390260
  H       -0.4241810    -1.9311060     0.1924250
  H       -3.1414670    -1.2511910    -0.1070860
  H       -1.0573430     0.6588960    -1.2471640
  H       -1.3450850    -0.9967850    -1.7909970
  H       -0.4862050     0.2392810     2.1528250
  H       -1.4122900    -1.2543580     2.1330320
  H       -3.2323950     0.2935880     1.8197160
  H       -2.2008590     1.4410770     0.9595580
  H       -3.4037750     1.5784440    -1.2516650
  H       -3.9506210     0.0965540    -2.0538340
  H       -4.7289130     0.6299820    -0.5557020
  H        0.4812350     1.7322070     0.3831320
  H        1.8065840    -2.3037040    -0.2799060
  H        2.8010350     2.5405970     0.1152150
  H        4.1326410    -1.4960120    -0.5534930
  H        4.6413930     0.9324010    -0.3562540
units angstrom
no_reorient  #important for SAPT in psi4, default
symmetry c1  #important for SAPT in psi4, default
}

set PROPERTIES_ORIGIN ["COM"]
properties('MP2/aug-cc-pvtz', properties = ['dipole'])
--------------------------------------------------------------------------

    Molecular point group: c1
  Charge       = 0
  Multiplicity = 1
  Basis Set: AUG-CC-PVTZ
    Blend: AUG-CC-PVTZ
  Basis Set: (AUG-CC-PVTZ AUX)
    Blend: AUG-CC-PVTZ-JKFIT

    Orbital Energies [Eh]
    ---------------------

    Doubly Occupied:

       1A    -11.238609     2A    -11.234707     3A    -11.234581
       4A    -11.229999     5A    -11.228705     6A    -11.228530
       7A    -11.228236     8A    -11.221200     9A    -11.216914
      10A    -11.215016    11A    -11.214864    12A    -11.211633
      13A     -1.155556    14A     -1.124709    15A     -1.039407
      16A     -1.007649    17A     -0.988538    18A     -0.953483
      19A     -0.892768    20A     -0.825567    21A     -0.815774
      22A     -0.763677    23A     -0.756693    24A     -0.688698
      25A     -0.660405    26A     -0.634760    27A     -0.620364
      28A     -0.606289    29A     -0.586100    30A     -0.580113
      31A     -0.571838    32A     -0.555863    33A     -0.528615
      34A     -0.511287    35A     -0.509996    36A     -0.486944
      37A     -0.475613    38A     -0.463874    39A     -0.459470
      40A     -0.453981    41A     -0.450437    42A     -0.444486
      43A     -0.332433    44A     -0.318190

  @DF-RHF Final Energy:  -463.88731392334711

   => Energetics <=

    Nuclear Repulsion Energy =            675.7570287651309400
    One-Electron Energy =               -1967.3555410467838556
    Two-Electron Energy =                 827.7111983583056372
    Total Energy =                       -463.8873139233471647
  Basis Set: (AUG-CC-PVTZ AUX)
    Blend: AUG-CC-PVTZ-RI
    Molecular point group: c1

    Geometry (in Angstrom), charge = 0, multiplicity = 1:

       Center              X                  Y                   Z               Mass
    ------------   -----------------  -----------------  -----------------  -----------------
         C           -0.512344212143    -0.829463973417     0.225520196224    12.000000000000
         C           -2.824772212143    -0.229166973417    -0.260308803776    12.000000000000
         C           -1.442476212143    -0.334972973417    -0.906080803776    12.000000000000
         C           -1.215433212143    -0.372297973417     1.542363196224    12.000000000000
         C           -2.483666212143     0.375924026583     1.103507196224    12.000000000000
         C            0.906515787857    -0.343258973417     0.077985196224    12.000000000000
         C           -3.839389212143     0.564630026583    -1.070509803776    12.000000000000
         C            1.208783787857     1.023432026583     0.184971196224    12.000000000000
         C            1.930758287857    -1.218023673417    -0.334913003776    12.000000000000
         C            2.517141787857     1.482107026583     0.034717196224    12.000000000000
         C            3.264937787857    -0.781230973417    -0.340753803776    12.000000000000
         C            3.551193787857     0.580053026583    -0.230706803776    12.000000000000
         H           -0.493923212143    -1.926749973417     0.200744196224     1.007825032230
         H           -3.211209212143    -1.246834973417    -0.098766803776     1.007825032230
         H           -1.127085212143     0.663252026583    -1.238844803776     1.007825032230
         H           -1.414827212143    -0.992428973417    -1.782677803776     1.007825032230
         H           -0.555947212143     0.243637026583     2.161144196224     1.007825032230
         H           -1.482032212143    -1.250001973417     2.141351196224     1.007825032230
         H           -3.302137212143     0.297944026583     1.828035196224     1.007825032230
         H           -2.270601212143     1.445433026583     0.967877196224     1.007825032230
         H           -3.473517212143     1.582800026583    -1.243345803776     1.007825032230
         H           -4.020363212143     0.100910026583    -2.045514803776     1.007825032230
         H           -4.798655212143     0.634338026583    -0.547382803776     1.007825032230
         H            0.411492787857     1.736563026583     0.391451196224     1.007825032230
         H            1.736841787857    -2.299347973417    -0.271586803776     1.007825032230
         H            2.731292787857     2.544953026583     0.123534196224     1.007825032230
         H            4.062898787857    -1.491655973417    -0.545173803776     1.007825032230
         H            4.571650787857     0.936757026583    -0.347934803776     1.007825032230

  Basis Set: AUG-CC-PVTZ
    Blend: AUG-CC-PVTZ
  Basis Set: (AUG-CC-PVTZ AUX)
    Blend: AUG-CC-PVTZ-JKFIT
	 Reference Energy          =    -463.8873139233471079 [Eh]
	 Singles Energy            =      -0.0000000000000000 [Eh]
	 Same-Spin Energy          =      -0.5198603597940246 [Eh]
	 Opposite-Spin Energy      =      -1.7273978201786351 [Eh]
	 Correlation Energy        =      -2.2472581799726594 [Eh]
	 Total Energy              =    -466.1345721033197833 [Eh]

	 ================> DF-SCS-MP2 Energies <==================
	-----------------------------------------------------------
	 SCS Same-Spin Scale       =       0.3333333333333333 [-]
	 SCS Opposite-Spin Scale   =       1.2000000000000000 [-]
	 SCS Same-Spin Energy      =      -0.1732867865980082 [Eh]
	 SCS Opposite-Spin Energy  =      -2.0728773842143622 [Eh]
	 SCS Correlation Energy    =      -2.2461641708123703 [Eh]
	 SCS Total Energy          =    -466.1334780941595000 [Eh]
	-----------------------------------------------------------

  Dipole Moment: [D]
     X:    -0.5579      Y:    -0.1660      Z:     0.1248     Total:     0.5953

*** Psi4 exiting successfully. Buy a developer a beer!
