                               Psi4 1.3.2 release

  ==> Input File <==

--------------------------------------------------------------------------
#psi4
#
memory 32 gb

molecule  {
0 1
  O       -1.5172650    -0.9302590     0.3397410
  O       -1.1248250     1.1536050    -0.4487800
  C        0.7689838    -0.2807432     0.1386560
  C        1.2675140    -1.2018710    -0.6496400
  C        1.5623690     1.0900120     0.3921910
  C       -0.7032450     0.1210870     0.0433830
  H        0.7409090    -0.6606070     1.3569650
  H        2.3072410    -1.4506340    -0.4222570
  H        1.2308120    -0.7800070    -1.6583810
  H        0.6786320    -2.1214010    -0.6338280
  H        1.5507090     1.5673140    -0.5898900
  H        2.5972890     0.8640450     0.6623340
  H        1.1628250     1.8055600     1.1144870
  H       -2.4138720    -0.6456040     0.0659830
units angstrom
no_reorient  #important for SAPT in psi4, default
symmetry c1  #important for SAPT in psi4, default
}

set PROPERTIES_ORIGIN ["COM"]
properties('MP2/aug-cc-pvtz', properties = ['dipole'])
--------------------------------------------------------------------------

    Molecular point group: c1
  Charge       = 0
  Multiplicity = 1
  Basis Set: AUG-CC-PVTZ
    Blend: AUG-CC-PVTZ
  Basis Set: (AUG-CC-PVTZ AUX)
    Blend: AUG-CC-PVTZ-JKFIT

    Orbital Energies [Eh]
    ---------------------

    Doubly Occupied:

       1A    -20.615146     2A    -20.553390     3A    -11.390032
       4A    -11.264911     5A    -11.226689     6A    -11.221045
       7A     -1.459845     8A     -1.356986     9A     -1.128693
      10A     -0.954911    11A     -0.894752    12A     -0.763777
      13A     -0.706229    14A     -0.686435    15A     -0.655414
      16A     -0.626017    17A     -0.604435    18A     -0.585221
      19A     -0.549546    20A     -0.537130    21A     -0.509011
      22A     -0.482384    23A     -0.444808    24A     -0.419143

  @DF-RHF Final Energy:  -305.92689525170010

   => Energetics <=

    Nuclear Repulsion Energy =            248.8774902861474345
    One-Electron Energy =                -910.3368723772509838
    Two-Electron Energy =                 355.5324868394034183
    Total Energy =                       -305.9268952517001026
  Basis Set: (AUG-CC-PVTZ AUX)
    Blend: AUG-CC-PVTZ-RI
    Molecular point group: c1

    Geometry (in Angstrom), charge = 0, multiplicity = 1:

       Center              X                  Y                   Z               Mass
    ------------   -----------------  -----------------  -----------------  -----------------
         O           -1.521847096177    -0.917559314255     0.371022304872    15.994914619570
         O           -1.129407096177     1.166304685745    -0.417498695128    15.994914619570
         C            0.764401703823    -0.268043514255     0.169937304872    12.000000000000
         C            1.262931903823    -1.189171314255    -0.618358695128    12.000000000000
         C            1.557786903823     1.102711685745     0.423472304872    12.000000000000
         C           -0.707827096177     0.133786685745     0.074664304872    12.000000000000
         H            0.736326903823    -0.647907314255     1.388246304872     1.007825032230
         H            2.302658903823    -1.437934314255    -0.390975695128     1.007825032230
         H            1.226229903823    -0.767307314255    -1.627099695128     1.007825032230
         H            0.674049903823    -2.108701314255    -0.602546695128     1.007825032230
         H            1.546126903823     1.580013685745    -0.558608695128     1.007825032230
         H            2.592706903823     0.876744685745     0.693615304872     1.007825032230
         H            1.158242903823     1.818259685745     1.145768304872     1.007825032230
         H           -2.418454096177    -0.632904314255     0.097264304872     1.007825032230

  Basis Set: AUG-CC-PVTZ
    Blend: AUG-CC-PVTZ
  Basis Set: (AUG-CC-PVTZ AUX)
    Blend: AUG-CC-PVTZ-JKFIT
	 Reference Energy          =    -305.9268952517001026 [Eh]
	 Singles Energy            =      -0.0000000000000000 [Eh]
	 Same-Spin Energy          =      -0.3045315984385050 [Eh]
	 Opposite-Spin Energy      =      -0.9855837378813739 [Eh]
	 Correlation Energy        =      -1.2901153363198787 [Eh]
	 Total Energy              =    -307.2170105880200026 [Eh]

	 ================> DF-SCS-MP2 Energies <==================
	-----------------------------------------------------------
	 SCS Same-Spin Scale       =       0.3333333333333333 [-]
	 SCS Opposite-Spin Scale   =       1.2000000000000000 [-]
	 SCS Same-Spin Energy      =      -0.1015105328128350 [Eh]
	 SCS Opposite-Spin Energy  =      -1.1827004854576486 [Eh]
	 SCS Correlation Energy    =      -1.2842110182704836 [Eh]
	 SCS Total Energy          =    -307.2111062699705712 [Eh]
	-----------------------------------------------------------

  Dipole Moment: [D]
     X:     0.6113      Y:    -1.4216      Z:     0.2951     Total:     1.5754

*** Psi4 exiting successfully. Buy a developer a beer!
