                               Psi4 1.3.2 release

  ==> Input File <==

--------------------------------------------------------------------------
#psi4
#
memory 32 gb

molecule  {
0 1
  O       -1.5172650    -0.9302590     0.3397410
  O       -1.1248250     1.1536050    -0.4487800
  C        0.7420856    -0.2061942     0.3222832
  C        1.2675140    -1.2018710    -0.6496400
  C        1.5623690     1.0900120     0.3921910
  C       -0.7032450     0.1210870     0.0433830
  H        0.7409090    -0.6606070     1.3569650
  H        2.3072410    -1.4506340    -0.4222570
  H        1.2308120    -0.7800070    -1.6583810
  H        0.6786320    -2.1214010    -0.6338280
  H        1.5507090     1.5673140    -0.5898900
  H        2.5972890     0.8640450     0.6623340
  H        1.1628250     1.8055600     1.1144870
  H       -2.4138720    -0.6456040     0.0659830
units angstrom
no_reorient  #important for SAPT in psi4, default
symmetry c1  #important for SAPT in psi4, default
}

set PROPERTIES_ORIGIN ["COM"]
properties('MP2/aug-cc-pvtz', properties = ['dipole'])
--------------------------------------------------------------------------

    Molecular point group: c1
  Charge       = 0
  Multiplicity = 1
  Basis Set: AUG-CC-PVTZ
    Blend: AUG-CC-PVTZ
  Basis Set: (AUG-CC-PVTZ AUX)
    Blend: AUG-CC-PVTZ-JKFIT

    Orbital Energies [Eh]
    ---------------------

    Doubly Occupied:

       1A    -20.614650     2A    -20.550988     3A    -11.385793
       4A    -11.254597     5A    -11.229443     6A    -11.221563
       7A     -1.458998     8A     -1.355548     9A     -1.100904
      10A     -0.946429    11A     -0.896950    12A     -0.770646
      13A     -0.705652    14A     -0.689860    15A     -0.643743
      16A     -0.612875    17A     -0.602299    18A     -0.562810
      19A     -0.549333    20A     -0.526080    21A     -0.503927
      22A     -0.483025    23A     -0.479907    24A     -0.445774

  @DF-RHF Final Energy:  -305.99530541305688

   => Energetics <=

    Nuclear Repulsion Energy =            248.0451535867955215
    One-Electron Energy =                -908.8973354406166436
    Two-Electron Energy =                 354.8568764407642107
    Total Energy =                       -305.9953054130568830
  Basis Set: (AUG-CC-PVTZ AUX)
    Blend: AUG-CC-PVTZ-RI
    Molecular point group: c1

    Geometry (in Angstrom), charge = 0, multiplicity = 1:

       Center              X                  Y                   Z               Mass
    ------------   -----------------  -----------------  -----------------  -----------------
         O           -1.518181343831    -0.927719033925     0.345997141880    15.994914619570
         O           -1.125741343831     1.156144966075    -0.442523858120    15.994914619570
         C            0.741169256169    -0.203654233925     0.328539341880    12.000000000000
         C            1.266597656169    -1.199331033925    -0.643383858120    12.000000000000
         C            1.561452656169     1.092551966075     0.398447141880    12.000000000000
         C           -0.704161343831     0.123626966075     0.049639141880    12.000000000000
         H            0.739992656169    -0.658067033925     1.363221141880     1.007825032230
         H            2.306324656169    -1.448094033925    -0.416000858120     1.007825032230
         H            1.229895656169    -0.777467033925    -1.652124858120     1.007825032230
         H            0.677715656169    -2.118861033925    -0.627571858120     1.007825032230
         H            1.549792656169     1.569853966075    -0.583633858120     1.007825032230
         H            2.596372656169     0.866584966075     0.668590141880     1.007825032230
         H            1.161908656169     1.808099966075     1.120743141880     1.007825032230
         H           -2.414788343831    -0.643064033925     0.072239141880     1.007825032230

  Basis Set: AUG-CC-PVTZ
    Blend: AUG-CC-PVTZ
  Basis Set: (AUG-CC-PVTZ AUX)
    Blend: AUG-CC-PVTZ-JKFIT
	 Reference Energy          =    -305.9953054130568830 [Eh]
	 Singles Energy            =      -0.0000000000000000 [Eh]
	 Same-Spin Energy          =      -0.3018899578452240 [Eh]
	 Opposite-Spin Energy      =      -0.9807526902175935 [Eh]
	 Correlation Energy        =      -1.2826426480628175 [Eh]
	 Total Energy              =    -307.2779480611196732 [Eh]

	 ================> DF-SCS-MP2 Energies <==================
	-----------------------------------------------------------
	 SCS Same-Spin Scale       =       0.3333333333333333 [-]
	 SCS Opposite-Spin Scale   =       1.2000000000000000 [-]
	 SCS Same-Spin Energy      =      -0.1006299859484080 [Eh]
	 SCS Opposite-Spin Energy  =      -1.1769032282611120 [Eh]
	 SCS Correlation Energy    =      -1.2775332142095202 [Eh]
	 SCS Total Energy          =    -307.2728386272664238 [Eh]
	-----------------------------------------------------------

  Dipole Moment: [D]
     X:     0.6546      Y:    -1.3909      Z:     0.5041     Total:     1.6178

*** Psi4 exiting successfully. Buy a developer a beer!
