                               Psi4 1.3.2 release

  ==> Input File <==

--------------------------------------------------------------------------
#psi4
#
memory 32 gb

molecule  {
0 1
  O       -1.5172650    -0.9302590     0.3397410
  O       -1.1248250     1.1536050    -0.4487800
  C        0.7757083    -0.2993804     0.0927492
  C        1.2675140    -1.2018710    -0.6496400
  C        1.5623690     1.0900120     0.3921910
  C       -0.7032450     0.1210870     0.0433830
  H        0.7409090    -0.6606070     1.3569650
  H        2.3072410    -1.4506340    -0.4222570
  H        1.2308120    -0.7800070    -1.6583810
  H        0.6786320    -2.1214010    -0.6338280
  H        1.5507090     1.5673140    -0.5898900
  H        2.5972890     0.8640450     0.6623340
  H        1.1628250     1.8055600     1.1144870
  H       -2.4138720    -0.6456040     0.0659830
units angstrom
no_reorient  #important for SAPT in psi4, default
symmetry c1  #important for SAPT in psi4, default
}

set PROPERTIES_ORIGIN ["COM"]
properties('MP2/aug-cc-pvtz', properties = ['dipole'])
--------------------------------------------------------------------------

    Molecular point group: c1
  Charge       = 0
  Multiplicity = 1
  Basis Set: AUG-CC-PVTZ
    Blend: AUG-CC-PVTZ
  Basis Set: (AUG-CC-PVTZ AUX)
    Blend: AUG-CC-PVTZ-JKFIT

    Orbital Energies [Eh]
    ---------------------

    Doubly Occupied:

       1A    -20.615167     2A    -20.554005     3A    -11.391765
       4A    -11.268321     5A    -11.228338     6A    -11.219392
       7A     -1.459966     8A     -1.357326     9A     -1.139789
      10A     -0.956239    11A     -0.893690    12A     -0.762454
      13A     -0.706570    14A     -0.687698    15A     -0.659111
      16A     -0.630647    17A     -0.605198    18A     -0.592136
      19A     -0.549814    20A     -0.540265    21A     -0.506581
      22A     -0.482557    23A     -0.439075    24A     -0.405715

  @DF-RHF Final Energy:  -305.89317582965276

   => Energetics <=

    Nuclear Repulsion Energy =            249.0862064277326056
    One-Electron Energy =                -910.6551246315506205
    Two-Electron Energy =                 355.6757423741652815
    Total Energy =                       -305.8931758296527619
  Basis Set: (AUG-CC-PVTZ AUX)
    Blend: AUG-CC-PVTZ-RI
    Molecular point group: c1

    Geometry (in Angstrom), charge = 0, multiplicity = 1:

       Center              X                  Y                   Z               Mass
    ------------   -----------------  -----------------  -----------------  -----------------
         O           -1.522763527449    -0.915019391151     0.377278595620    15.994914619570
         O           -1.130323527449     1.168844608849    -0.411242404380    15.994914619570
         C            0.770209772551    -0.284140791151     0.130286795620    12.000000000000
         C            1.262015472551    -1.186631391151    -0.612102404380    12.000000000000
         C            1.556870472551     1.105251608849     0.429728595620    12.000000000000
         C           -0.708743527449     0.136326608849     0.080920595620    12.000000000000
         H            0.735410472551    -0.645367391151     1.394502595620     1.007825032230
         H            2.301742472551    -1.435394391151    -0.384719404380     1.007825032230
         H            1.225313472551    -0.764767391151    -1.620843404380     1.007825032230
         H            0.673133472551    -2.106161391151    -0.596290404380     1.007825032230
         H            1.545210472551     1.582553608849    -0.552352404380     1.007825032230
         H            2.591790472551     0.879284608849     0.699871595620     1.007825032230
         H            1.157326472551     1.820799608849     1.152024595620     1.007825032230
         H           -2.419370527449    -0.630364391151     0.103520595620     1.007825032230

  Basis Set: AUG-CC-PVTZ
    Blend: AUG-CC-PVTZ
  Basis Set: (AUG-CC-PVTZ AUX)
    Blend: AUG-CC-PVTZ-JKFIT
	 Reference Energy          =    -305.8931758296527619 [Eh]
	 Singles Energy            =      -0.0000000000000000 [Eh]
	 Same-Spin Energy          =      -0.3056679088308460 [Eh]
	 Opposite-Spin Energy      =      -0.9876110828901469 [Eh]
	 Correlation Energy        =      -1.2932789917209928 [Eh]
	 Total Energy              =    -307.1864548213737294 [Eh]

	 ================> DF-SCS-MP2 Energies <==================
	-----------------------------------------------------------
	 SCS Same-Spin Scale       =       0.3333333333333333 [-]
	 SCS Opposite-Spin Scale   =       1.2000000000000000 [-]
	 SCS Same-Spin Energy      =      -0.1018893029436153 [Eh]
	 SCS Opposite-Spin Energy  =      -1.1851332994681762 [Eh]
	 SCS Correlation Energy    =      -1.2870226024117917 [Eh]
	 SCS Total Energy          =    -307.1801984320645715 [Eh]
	-----------------------------------------------------------

  Dipole Moment: [D]
     X:     0.6094      Y:    -1.4397      Z:     0.2088     Total:     1.5772

*** Psi4 exiting successfully. Buy a developer a beer!
