                               Psi4 1.3.2 release

  ==> Input File <==

--------------------------------------------------------------------------
#psi4
#
memory 32 gb

molecule  {
0 1
  O       -1.5172650    -0.9302590     0.3397410
  O       -1.1248250     1.1536050    -0.4487800
  C        0.7555347    -0.2434687     0.2304696
  C        1.2675140    -1.2018710    -0.6496400
  C        1.5623690     1.0900120     0.3921910
  C       -0.7032450     0.1210870     0.0433830
  H        0.7409090    -0.6606070     1.3569650
  H        2.3072410    -1.4506340    -0.4222570
  H        1.2308120    -0.7800070    -1.6583810
  H        0.6786320    -2.1214010    -0.6338280
  H        1.5507090     1.5673140    -0.5898900
  H        2.5972890     0.8640450     0.6623340
  H        1.1628250     1.8055600     1.1144870
  H       -2.4138720    -0.6456040     0.0659830
units angstrom
no_reorient  #important for SAPT in psi4, default
symmetry c1  #important for SAPT in psi4, default
}

set PROPERTIES_ORIGIN ["COM"]
properties('MP2/aug-cc-pvtz', properties = ['dipole'])
--------------------------------------------------------------------------

    Molecular point group: c1
  Charge       = 0
  Multiplicity = 1
  Basis Set: AUG-CC-PVTZ
    Blend: AUG-CC-PVTZ
  Basis Set: (AUG-CC-PVTZ AUX)
    Blend: AUG-CC-PVTZ-JKFIT

    Orbital Energies [Eh]
    ---------------------

    Doubly Occupied:

       1A    -20.614979     2A    -20.552180     3A    -11.387362
       4A    -11.259003     5A    -11.225082     6A    -11.223760
       7A     -1.459493     8A     -1.356280     9A     -1.111797
      10A     -0.951018    11A     -0.896246    12A     -0.766797
      13A     -0.705760    14A     -0.686764    15A     -0.649042
      16A     -0.618492    17A     -0.603364    18A     -0.571764
      19A     -0.549288    20A     -0.529746    21A     -0.511671
      22A     -0.481806    23A     -0.459724    24A     -0.438903

  @DF-RHF Final Energy:  -305.97326164903870

   => Energetics <=

    Nuclear Repulsion Energy =            248.4674468463293238
    One-Electron Energy =                -909.6607682904721059
    Two-Electron Energy =                 355.2200597951041345
    Total Energy =                       -305.9732616490387045
  Basis Set: (AUG-CC-PVTZ AUX)
    Blend: AUG-CC-PVTZ-RI
    Molecular point group: c1

    Geometry (in Angstrom), charge = 0, multiplicity = 1:

       Center              X                  Y                   Z               Mass
    ------------   -----------------  -----------------  -----------------  -----------------
         O           -1.520014220004    -0.922639174090     0.358509723376    15.994914619570
         O           -1.127574220004     1.161224825910    -0.430011276624    15.994914619570
         C            0.752785479996    -0.235848874090     0.249238323376    12.000000000000
         C            1.264764779996    -1.194251174090    -0.630871276624    12.000000000000
         C            1.559619779996     1.097631825910     0.410959723376    12.000000000000
         C           -0.705994220004     0.128706825910     0.062151723376    12.000000000000
         H            0.738159779996    -0.652987174090     1.375733723376     1.007825032230
         H            2.304491779996    -1.443014174090    -0.403488276624     1.007825032230
         H            1.228062779996    -0.772387174090    -1.639612276624     1.007825032230
         H            0.675882779996    -2.113781174090    -0.615059276624     1.007825032230
         H            1.547959779996     1.574933825910    -0.571121276624     1.007825032230
         H            2.594539779996     0.871664825910     0.681102723376     1.007825032230
         H            1.160075779996     1.813179825910     1.133255723376     1.007825032230
         H           -2.416621220004    -0.637984174090     0.084751723376     1.007825032230

  Basis Set: AUG-CC-PVTZ
    Blend: AUG-CC-PVTZ
  Basis Set: (AUG-CC-PVTZ AUX)
    Blend: AUG-CC-PVTZ-JKFIT
	 Reference Energy          =    -305.9732616490387045 [Eh]
	 Singles Energy            =      -0.0000000000000000 [Eh]
	 Same-Spin Energy          =      -0.3028492563906320 [Eh]
	 Opposite-Spin Energy      =      -0.9825127018901335 [Eh]
	 Correlation Energy        =      -1.2853619582807656 [Eh]
	 Total Energy              =    -307.2586236073194641 [Eh]

	 ================> DF-SCS-MP2 Energies <==================
	-----------------------------------------------------------
	 SCS Same-Spin Scale       =       0.3333333333333333 [-]
	 SCS Opposite-Spin Scale   =       1.2000000000000000 [-]
	 SCS Same-Spin Energy      =      -0.1009497521302107 [Eh]
	 SCS Opposite-Spin Energy  =      -1.1790152422681601 [Eh]
	 SCS Correlation Energy    =      -1.2799649943983709 [Eh]
	 SCS Total Energy          =    -307.2532266434370740 [Eh]
	-----------------------------------------------------------

  Dipole Moment: [D]
     X:     0.6267      Y:    -1.4005      Z:     0.4217     Total:     1.5912

*** Psi4 exiting successfully. Buy a developer a beer!
