                               Psi4 1.3.2 release

  ==> Input File <==

--------------------------------------------------------------------------
#psi4
#
memory 32 gb

molecule  {
0 1
  O       -1.5172650    -0.9302590     0.3397410
  O       -1.1248250     1.1536050    -0.4487800
  C        0.7353610    -0.1875570     0.3681900
  C        1.2675140    -1.2018710    -0.6496400
  C        1.5623690     1.0900120     0.3921910
  C       -0.7032450     0.1210870     0.0433830
  H        0.7409090    -0.6606070     1.3569650
  H        2.3072410    -1.4506340    -0.4222570
  H        1.2308120    -0.7800070    -1.6583810
  H        0.6786320    -2.1214010    -0.6338280
  H        1.5507090     1.5673140    -0.5898900
  H        2.5972890     0.8640450     0.6623340
  H        1.1628250     1.8055600     1.1144870
  H       -2.4138720    -0.6456040     0.0659830
units angstrom
no_reorient  #important for SAPT in psi4, default
symmetry c1  #important for SAPT in psi4, default
}

set PROPERTIES_ORIGIN ["COM"]
properties('MP2/aug-cc-pvtz', properties = ['dipole'])
--------------------------------------------------------------------------

    Molecular point group: c1
  Charge       = 0
  Multiplicity = 1
  Basis Set: AUG-CC-PVTZ
    Blend: AUG-CC-PVTZ
  Basis Set: (AUG-CC-PVTZ AUX)
    Blend: AUG-CC-PVTZ-JKFIT

    Orbital Energies [Eh]
    ---------------------

    Doubly Occupied:

       1A    -20.614425     2A    -20.550399     3A    -11.385430
       4A    -11.253079     5A    -11.231571     6A    -11.220829
       7A     -1.458700     8A     -1.355175     9A     -1.097179
      10A     -0.944198    11A     -0.897057    12A     -0.773063
      13A     -0.705838    14A     -0.691897    15A     -0.641452
      16A     -0.610872    17A     -0.601473    18A     -0.560796
      19A     -0.549269    20A     -0.526161    21A     -0.498276
      22A     -0.492565    23A     -0.478562    24A     -0.446630

  @DF-RHF Final Energy:  -305.99832458296055

   => Energetics <=

    Nuclear Repulsion Energy =            247.8216453272984552
    One-Electron Energy =                -908.4701493448258134
    Two-Electron Energy =                 354.6501794345667804
    Total Energy =                       -305.9983245829605494
  Basis Set: (AUG-CC-PVTZ AUX)
    Blend: AUG-CC-PVTZ-RI
    Molecular point group: c1

    Geometry (in Angstrom), charge = 0, multiplicity = 1:

       Center              X                  Y                   Z               Mass
    ------------   -----------------  -----------------  -----------------  -----------------
         O           -1.517264898930    -0.930258957029     0.339740851132    15.994914619570
         O           -1.124824898930     1.153605042971    -0.448780148868    15.994914619570
         C            0.735361101070    -0.187556957029     0.368189851132    12.000000000000
         C            1.267514101070    -1.201870957029    -0.649640148868    12.000000000000
         C            1.562369101070     1.090012042971     0.392190851132    12.000000000000
         C           -0.703244898930     0.121087042971     0.043382851132    12.000000000000
         H            0.740909101070    -0.660606957029     1.356964851132     1.007825032230
         H            2.307241101070    -1.450633957029    -0.422257148868     1.007825032230
         H            1.230812101070    -0.780006957029    -1.658381148868     1.007825032230
         H            0.678632101070    -2.121400957029    -0.633828148868     1.007825032230
         H            1.550709101070     1.567314042971    -0.589890148868     1.007825032230
         H            2.597289101070     0.864045042971     0.662333851132     1.007825032230
         H            1.162825101070     1.805560042971     1.114486851132     1.007825032230
         H           -2.413871898930    -0.645603957029     0.065982851132     1.007825032230

  Basis Set: AUG-CC-PVTZ
    Blend: AUG-CC-PVTZ
  Basis Set: (AUG-CC-PVTZ AUX)
    Blend: AUG-CC-PVTZ-JKFIT
	 Reference Energy          =    -305.9983245829605494 [Eh]
	 Singles Energy            =      -0.0000000000000000 [Eh]
	 Same-Spin Energy          =      -0.3016555243015588 [Eh]
	 Opposite-Spin Energy      =      -0.9803583259601377 [Eh]
	 Correlation Energy        =      -1.2820138502616967 [Eh]
	 Total Energy              =    -307.2803384332222549 [Eh]

	 ================> DF-SCS-MP2 Energies <==================
	-----------------------------------------------------------
	 SCS Same-Spin Scale       =       0.3333333333333333 [-]
	 SCS Opposite-Spin Scale   =       1.2000000000000000 [-]
	 SCS Same-Spin Energy      =      -0.1005518414338529 [Eh]
	 SCS Opposite-Spin Energy  =      -1.1764299911521652 [Eh]
	 SCS Correlation Energy    =      -1.2769818325860181 [Eh]
	 SCS Total Energy          =    -307.2753064155465950 [Eh]
	-----------------------------------------------------------

  Dipole Moment: [D]
     X:     0.6727      Y:    -1.3874      Z:     0.5340     Total:     1.6318

*** Psi4 exiting successfully. Buy a developer a beer!
