                               Psi4 1.3.2 release

  ==> Input File <==

--------------------------------------------------------------------------
#psi4
#
memory 32 gb

molecule  {
0 1
  O       -1.5172650    -0.9302590     0.3397410
  O       -1.1248250     1.1536050    -0.4487800
  C        0.7488101    -0.2248315     0.2763764
  C        1.2675140    -1.2018710    -0.6496400
  C        1.5623690     1.0900120     0.3921910
  C       -0.7032450     0.1210870     0.0433830
  H        0.7409090    -0.6606070     1.3569650
  H        2.3072410    -1.4506340    -0.4222570
  H        1.2308120    -0.7800070    -1.6583810
  H        0.6786320    -2.1214010    -0.6338280
  H        1.5507090     1.5673140    -0.5898900
  H        2.5972890     0.8640450     0.6623340
  H        1.1628250     1.8055600     1.1144870
  H       -2.4138720    -0.6456040     0.0659830
units angstrom
no_reorient  #important for SAPT in psi4, default
symmetry c1  #important for SAPT in psi4, default
}

set PROPERTIES_ORIGIN ["COM"]
properties('MP2/aug-cc-pvtz', properties = ['dipole'])
--------------------------------------------------------------------------

    Molecular point group: c1
  Charge       = 0
  Multiplicity = 1
  Basis Set: AUG-CC-PVTZ
    Blend: AUG-CC-PVTZ
  Basis Set: (AUG-CC-PVTZ AUX)
    Blend: AUG-CC-PVTZ-JKFIT

    Orbital Energies [Eh]
    ---------------------

    Doubly Occupied:

       1A    -20.614835     2A    -20.551582     3A    -11.386437
       4A    -11.256589     5A    -11.227260     6A    -11.222551
       7A     -1.459263     8A     -1.355917     9A     -1.105703
      10A     -0.948740    11A     -0.896689    12A     -0.768585
      13A     -0.705646    14A     -0.688067    15A     -0.646269
      16A     -0.615442    17A     -0.602879    18A     -0.566510
      19A     -0.549300    20A     -0.526988    21A     -0.509542
      22A     -0.481353    23A     -0.470618    24A     -0.443468

  @DF-RHF Final Energy:  -305.98708287980185

   => Energetics <=

    Nuclear Repulsion Energy =            248.2594246573371493
    One-Electron Energy =                -909.2925486093372456
    Two-Electron Energy =                 355.0460410721982498
    Total Energy =                       -305.9870828798018465
  Basis Set: (AUG-CC-PVTZ AUX)
    Blend: AUG-CC-PVTZ-RI
    Molecular point group: c1

    Geometry (in Angstrom), charge = 0, multiplicity = 1:

       Center              X                  Y                   Z               Mass
    ------------   -----------------  -----------------  -----------------  -----------------
         O           -1.519097775103    -0.925179097193     0.352253432628    15.994914619570
         O           -1.126657775103     1.158684902807    -0.436267567372    15.994914619570
         C            0.746977324897    -0.219751597193     0.288888832628    12.000000000000
         C            1.265681224897    -1.196791097193    -0.637127567372    12.000000000000
         C            1.560536224897     1.095091902807     0.404703432628    12.000000000000
         C           -0.705077775103     0.126166902807     0.055895432628    12.000000000000
         H            0.739076224897    -0.655527097193     1.369477432628     1.007825032230
         H            2.305408224897    -1.445554097193    -0.409744567372     1.007825032230
         H            1.228979224897    -0.774927097193    -1.645868567372     1.007825032230
         H            0.676799224897    -2.116321097193    -0.621315567372     1.007825032230
         H            1.548876224897     1.572393902807    -0.577377567372     1.007825032230
         H            2.595456224897     0.869124902807     0.674846432628     1.007825032230
         H            1.160992224897     1.810639902807     1.126999432628     1.007825032230
         H           -2.415704775103    -0.640524097193     0.078495432628     1.007825032230

  Basis Set: AUG-CC-PVTZ
    Blend: AUG-CC-PVTZ
  Basis Set: (AUG-CC-PVTZ AUX)
    Blend: AUG-CC-PVTZ-JKFIT
	 Reference Energy          =    -305.9870828798018465 [Eh]
	 Singles Energy            =      -0.0000000000000000 [Eh]
	 Same-Spin Energy          =      -0.3022845077022771 [Eh]
	 Opposite-Spin Energy      =      -0.9814698911981401 [Eh]
	 Correlation Energy        =      -1.2837543989004172 [Eh]
	 Total Energy              =    -307.2708372787022881 [Eh]

	 ================> DF-SCS-MP2 Energies <==================
	-----------------------------------------------------------
	 SCS Same-Spin Scale       =       0.3333333333333333 [-]
	 SCS Opposite-Spin Scale   =       1.2000000000000000 [-]
	 SCS Same-Spin Energy      =      -0.1007615025674257 [Eh]
	 SCS Opposite-Spin Energy  =      -1.1777638694377681 [Eh]
	 SCS Correlation Energy    =      -1.2785253720051939 [Eh]
	 SCS Total Energy          =    -307.2656082518070662 [Eh]
	-----------------------------------------------------------

  Dipole Moment: [D]
     X:     0.6392      Y:    -1.3949      Z:     0.4673     Total:     1.6040

*** Psi4 exiting successfully. Buy a developer a beer!
