                               Psi4 1.3.2 release

  ==> Input File <==

--------------------------------------------------------------------------
#psi4
#
memory 32 gb

molecule  {
0 1
  O       -1.5172650    -0.9302590     0.3397410
  O       -1.1248250     1.1536050    -0.4487800
  C        0.7622592    -0.2621059     0.1845628
  C        1.2675140    -1.2018710    -0.6496400
  C        1.5623690     1.0900120     0.3921910
  C       -0.7032450     0.1210870     0.0433830
  H        0.7409090    -0.6606070     1.3569650
  H        2.3072410    -1.4506340    -0.4222570
  H        1.2308120    -0.7800070    -1.6583810
  H        0.6786320    -2.1214010    -0.6338280
  H        1.5507090     1.5673140    -0.5898900
  H        2.5972890     0.8640450     0.6623340
  H        1.1628250     1.8055600     1.1144870
  H       -2.4138720    -0.6456040     0.0659830
units angstrom
no_reorient  #important for SAPT in psi4, default
symmetry c1  #important for SAPT in psi4, default
}

set PROPERTIES_ORIGIN ["COM"]
properties('MP2/aug-cc-pvtz', properties = ['dipole'])
--------------------------------------------------------------------------

    Molecular point group: c1
  Charge       = 0
  Multiplicity = 1
  Basis Set: AUG-CC-PVTZ
    Blend: AUG-CC-PVTZ
  Basis Set: (AUG-CC-PVTZ AUX)
    Blend: AUG-CC-PVTZ-JKFIT

    Orbital Energies [Eh]
    ---------------------

    Doubly Occupied:

       1A    -20.615083     2A    -20.552782     3A    -11.388562
       4A    -11.261792     5A    -11.225152     6A    -11.222979
       7A     -1.459687     8A     -1.356637     9A     -1.119400
      10A     -0.953125    11A     -0.895604    12A     -0.765213
      13A     -0.705959    14A     -0.686163    15A     -0.652081
      16A     -0.622001    17A     -0.603858    18A     -0.578199
      19A     -0.549365    20A     -0.533515    21A     -0.510987
      22A     -0.482139    23A     -0.451161    24A     -0.430735

  @DF-RHF Final Energy:  -305.95337971368025

   => Energetics <=

    Nuclear Repulsion Energy =            248.6723718913433743
    One-Electron Energy =                -910.0071409330478218
    Two-Electron Energy =                 355.3813893280242269
    Total Energy =                       -305.9533797136802491
  Basis Set: (AUG-CC-PVTZ AUX)
    Blend: AUG-CC-PVTZ-RI
    Molecular point group: c1

    Geometry (in Angstrom), charge = 0, multiplicity = 1:

       Center              X                  Y                   Z               Mass
    ------------   -----------------  -----------------  -----------------  -----------------
         O           -1.520930651276    -0.920099250986     0.364766014124    15.994914619570
         O           -1.128490651276     1.163764749014    -0.423754985876    15.994914619570
         C            0.758593548724    -0.251946150986     0.209587814124    12.000000000000
         C            1.263848348724    -1.191711250986    -0.624614985876    12.000000000000
         C            1.558703348724     1.100171749014     0.417216014124    12.000000000000
         C           -0.706910651276     0.131246749014     0.068408014124    12.000000000000
         H            0.737243348724    -0.650447250986     1.381990014124     1.007825032230
         H            2.303575348724    -1.440474250986    -0.397231985876     1.007825032230
         H            1.227146348724    -0.769847250986    -1.633355985876     1.007825032230
         H            0.674966348724    -2.111241250986    -0.608802985876     1.007825032230
         H            1.547043348724     1.577473749014    -0.564864985876     1.007825032230
         H            2.593623348724     0.874204749014     0.687359014124     1.007825032230
         H            1.159159348724     1.815719749014     1.139512014124     1.007825032230
         H           -2.417537651276    -0.635444250986     0.091008014124     1.007825032230

  Basis Set: AUG-CC-PVTZ
    Blend: AUG-CC-PVTZ
  Basis Set: (AUG-CC-PVTZ AUX)
    Blend: AUG-CC-PVTZ-JKFIT
	 Reference Energy          =    -305.9533797136802491 [Eh]
	 Singles Energy            =      -0.0000000000000000 [Eh]
	 Same-Spin Energy          =      -0.3035948609111876 [Eh]
	 Opposite-Spin Energy      =      -0.9838836037382963 [Eh]
	 Correlation Energy        =      -1.2874784646494839 [Eh]
	 Total Energy              =    -307.2408581783297450 [Eh]

	 ================> DF-SCS-MP2 Energies <==================
	-----------------------------------------------------------
	 SCS Same-Spin Scale       =       0.3333333333333333 [-]
	 SCS Opposite-Spin Scale   =       1.2000000000000000 [-]
	 SCS Same-Spin Energy      =      -0.1011982869703959 [Eh]
	 SCS Opposite-Spin Energy  =      -1.1806603244859555 [Eh]
	 SCS Correlation Energy    =      -1.2818586114563513 [Eh]
	 SCS Total Energy          =    -307.2352383251366064 [Eh]
	-----------------------------------------------------------

  Dipole Moment: [D]
     X:     0.6173      Y:    -1.4090      Z:     0.3652     Total:     1.5810

*** Psi4 exiting successfully. Buy a developer a beer!
