                               Psi4 1.3.2 release

  ==> Input File <==

--------------------------------------------------------------------------
#psi4
#
memory 32 gb

molecule  {
0 1
  O        0.0053289     1.3982892     0.0001251
  C       -0.0054050     0.1710240    -0.0004320
  C        1.2809990    -0.6351670     0.0000570
  C       -1.3071510    -0.5956450     0.0000600
  H        1.1065290    -1.7126840     0.0002500
  H        1.8687580    -0.3632970    -0.8809030
  H        1.8683850    -0.3629330     0.8811560
  H       -1.3615300    -1.2438660     0.8812950
  H       -2.1446900     0.1021110     0.0002990
  H       -1.3620790    -1.2439230    -0.8810940
units angstrom
no_reorient  #important for SAPT in psi4, default
symmetry c1  #important for SAPT in psi4, default
}

set PROPERTIES_ORIGIN ["COM"]
properties('MP2/aug-cc-pvtz', properties = ['dipole'])
--------------------------------------------------------------------------

    Molecular point group: c1
  Charge       = 0
  Multiplicity = 1
  Basis Set: AUG-CC-PVTZ
    Blend: AUG-CC-PVTZ
  Basis Set: (AUG-CC-PVTZ AUX)
    Blend: AUG-CC-PVTZ-JKFIT

    Orbital Energies [Eh]
    ---------------------

    Doubly Occupied:

       1A    -20.543934     2A    -11.336652     3A    -11.238302
       4A    -11.237726     5A     -1.375506     6A     -1.041729
       7A     -0.969136     8A     -0.742090     9A     -0.641296
      10A     -0.635489    11A     -0.620149    12A     -0.565291
      13A     -0.563400    14A     -0.536320    15A     -0.480266
      16A     -0.414730

  @DF-RHF Final Energy:  -192.03327330519096

   => Energetics <=

    Nuclear Repulsion Energy =            118.9690557029145594
    One-Electron Energy =                -496.1206249931274215
    Two-Electron Energy =                 185.1182959850219163
    Total Energy =                       -192.0332733051909599
  Basis Set: (AUG-CC-PVTZ AUX)
    Blend: AUG-CC-PVTZ-RI
    Molecular point group: c1

    Geometry (in Angstrom), charge = 0, multiplicity = 1:

       Center              X                  Y                   Z               Mass
    ------------   -----------------  -----------------  -----------------  -----------------
         O            0.010812328342     1.315836374010     0.000138335062    15.994914619570
         C            0.000078428342     0.088571174010    -0.000418764938    12.000000000000
         C            1.286482428342    -0.717619825990     0.000070235062    12.000000000000
         C           -1.301667571658    -0.678097825990     0.000073235062    12.000000000000
         H            1.112012428342    -1.795136825990     0.000263235062     1.007825032230
         H            1.874241428342    -0.445749825990    -0.880889764938     1.007825032230
         H            1.873868428342    -0.445385825990     0.881169235062     1.007825032230
         H           -1.356046571658    -1.326318825990     0.881308235062     1.007825032230
         H           -2.139206571658     0.019658174010     0.000312235062     1.007825032230
         H           -1.356595571658    -1.326375825990    -0.881080764938     1.007825032230

  Basis Set: AUG-CC-PVTZ
    Blend: AUG-CC-PVTZ
  Basis Set: (AUG-CC-PVTZ AUX)
    Blend: AUG-CC-PVTZ-JKFIT
	 Reference Energy          =    -192.0332733051909599 [Eh]
	 Singles Energy            =      -0.0000000000000000 [Eh]
	 Same-Spin Energy          =      -0.1873860290514553 [Eh]
	 Opposite-Spin Energy      =      -0.6384157912085218 [Eh]
	 Correlation Energy        =      -0.8258018202599771 [Eh]
	 Total Energy              =    -192.8590751254509428 [Eh]

	 ================> DF-SCS-MP2 Energies <==================
	-----------------------------------------------------------
	 SCS Same-Spin Scale       =       0.3333333333333333 [-]
	 SCS Opposite-Spin Scale   =       1.2000000000000000 [-]
	 SCS Same-Spin Energy      =      -0.0624620096838184 [Eh]
	 SCS Opposite-Spin Energy  =      -0.7660989494502261 [Eh]
	 SCS Correlation Energy    =      -0.8285609591340445 [Eh]
	 SCS Total Energy          =    -192.8618342643250116 [Eh]
	-----------------------------------------------------------

  Dipole Moment: [D]
     X:     0.0119      Y:    -2.9437      Z:    -0.0003     Total:     2.9438

*** Psi4 exiting successfully. Buy a developer a beer!
