                               Psi4 1.3.2 release

  ==> Input File <==

--------------------------------------------------------------------------
#psi4
#
memory 32 gb

molecule  {
0 1
  O        0.0267460     1.3979150     0.0001110
  C       -0.0054050     0.1710240    -0.0004320
  C        1.1896820    -0.7652164     0.0001391
  C       -1.3071510    -0.5956450     0.0000600
  H        1.1065290    -1.7126840     0.0002500
  H        1.8687580    -0.3632970    -0.8809030
  H        1.8683850    -0.3629330     0.8811560
  H       -1.3615300    -1.2438660     0.8812950
  H       -2.1446900     0.1021110     0.0002990
  H       -1.3620790    -1.2439230    -0.8810940
units angstrom
no_reorient  #important for SAPT in psi4, default
symmetry c1  #important for SAPT in psi4, default
}

set PROPERTIES_ORIGIN ["COM"]
properties('MP2/aug-cc-pvtz', properties = ['dipole'])
--------------------------------------------------------------------------

    Molecular point group: c1
  Charge       = 0
  Multiplicity = 1
  Basis Set: AUG-CC-PVTZ
    Blend: AUG-CC-PVTZ
  Basis Set: (AUG-CC-PVTZ AUX)
    Blend: AUG-CC-PVTZ-JKFIT

    Orbital Energies [Eh]
    ---------------------

    Doubly Occupied:

       1A    -20.546807     2A    -11.341311     3A    -11.243602
       4A    -11.235493     5A     -1.376278     6A     -1.050153
       7A     -0.966684     8A     -0.751648     9A     -0.661754
      10A     -0.634673    11A     -0.611713    12A     -0.584693
      13A     -0.538892    14A     -0.530968    15A     -0.472743
      16A     -0.413876

  @DF-RHF Final Energy:  -192.00039505887457

   => Energetics <=

    Nuclear Repulsion Energy =            119.0272632890555968
    One-Electron Energy =                -496.1327422866215215
    Two-Electron Energy =                 185.1050839386913367
    Total Energy =                       -192.0003950588745738
  Basis Set: (AUG-CC-PVTZ AUX)
    Blend: AUG-CC-PVTZ-RI
    Molecular point group: c1

    Geometry (in Angstrom), charge = 0, multiplicity = 1:

       Center              X                  Y                   Z               Mass
    ------------   -----------------  -----------------  -----------------  -----------------
         O            0.045206945804     1.342452659276     0.000111146721    15.994914619570
         C            0.013055945804     0.115561659276    -0.000431853279    12.000000000000
         C            1.208142945804    -0.820678740724     0.000139246721    12.000000000000
         C           -1.288690054196    -0.651107340724     0.000060146721    12.000000000000
         H            1.124989945804    -1.768146340724     0.000250146721     1.007825032230
         H            1.887218945804    -0.418759340724    -0.880902853279     1.007825032230
         H            1.886845945804    -0.418395340724     0.881156146721     1.007825032230
         H           -1.343069054196    -1.299328340724     0.881295146721     1.007825032230
         H           -2.126229054196     0.046648659276     0.000299146721     1.007825032230
         H           -1.343618054196    -1.299385340724    -0.881093853279     1.007825032230

  Basis Set: AUG-CC-PVTZ
    Blend: AUG-CC-PVTZ
  Basis Set: (AUG-CC-PVTZ AUX)
    Blend: AUG-CC-PVTZ-JKFIT
	 Reference Energy          =    -192.0003950588745738 [Eh]
	 Singles Energy            =      -0.0000000000000000 [Eh]
	 Same-Spin Energy          =      -0.1884254061569544 [Eh]
	 Opposite-Spin Energy      =      -0.6401134180529253 [Eh]
	 Correlation Energy        =      -0.8285388242098797 [Eh]
	 Total Energy              =    -192.8289338830844599 [Eh]

	 ================> DF-SCS-MP2 Energies <==================
	-----------------------------------------------------------
	 SCS Same-Spin Scale       =       0.3333333333333333 [-]
	 SCS Opposite-Spin Scale   =       1.2000000000000000 [-]
	 SCS Same-Spin Energy      =      -0.0628084687189848 [Eh]
	 SCS Opposite-Spin Energy  =      -0.7681361016635103 [Eh]
	 SCS Correlation Energy    =      -0.8309445703824951 [Eh]
	 SCS Total Energy          =    -192.8313396292570587 [Eh]
	-----------------------------------------------------------

  Dipole Moment: [D]
     X:     0.0325      Y:    -2.9806      Z:    -0.0002     Total:     2.9808

*** Psi4 exiting successfully. Buy a developer a beer!
