                               Psi4 1.3.2 release

  ==> Input File <==

--------------------------------------------------------------------------
#psi4
#
memory 32 gb

molecule  {
0 1
  O        0.0481533     1.3971670     0.0000968
  C       -0.0054050     0.1710240    -0.0004320
  C        1.2809990    -0.6351670     0.0000570
  C       -1.3071510    -0.5956450     0.0000600
  H        1.1065290    -1.7126840     0.0002500
  H        1.8687580    -0.3632970    -0.8809030
  H        1.8683850    -0.3629330     0.8811560
  H       -1.3615300    -1.2438660     0.8812950
  H       -2.1446900     0.1021110     0.0002990
  H       -1.3620790    -1.2439230    -0.8810940
units angstrom
no_reorient  #important for SAPT in psi4, default
symmetry c1  #important for SAPT in psi4, default
}

set PROPERTIES_ORIGIN ["COM"]
properties('MP2/aug-cc-pvtz', properties = ['dipole'])
--------------------------------------------------------------------------

    Molecular point group: c1
  Charge       = 0
  Multiplicity = 1
  Basis Set: AUG-CC-PVTZ
    Blend: AUG-CC-PVTZ
  Basis Set: (AUG-CC-PVTZ AUX)
    Blend: AUG-CC-PVTZ-JKFIT

    Orbital Energies [Eh]
    ---------------------

    Doubly Occupied:

       1A    -20.543961     2A    -11.336723     3A    -11.239898
       4A    -11.236183     5A     -1.375552     6A     -1.041807
       7A     -0.969028     8A     -0.742097     9A     -0.641056
      10A     -0.635788    11A     -0.620273    12A     -0.565363
      13A     -0.563208    14A     -0.536474    15A     -0.480063
      16A     -0.414760

  @DF-RHF Final Energy:  -192.03320752627349

   => Energetics <=

    Nuclear Repulsion Energy =            118.9733516711876291
    One-Electron Energy =                -496.1286502516921360
    Two-Electron Energy =                 185.1220910542310207
    Total Energy =                       -192.0332075262734861
  Basis Set: (AUG-CC-PVTZ AUX)
    Blend: AUG-CC-PVTZ-RI
    Molecular point group: c1

    Geometry (in Angstrom), charge = 0, multiplicity = 1:

       Center              X                  Y                   Z               Mass
    ------------   -----------------  -----------------  -----------------  -----------------
         O            0.041835373857     1.315023424811     0.000117833848    15.994914619570
         C           -0.011722926143     0.088880424811    -0.000410966152    12.000000000000
         C            1.274681073857    -0.717310575189     0.000078033848    12.000000000000
         C           -1.313468926143    -0.677788575189     0.000081033848    12.000000000000
         H            1.100211073857    -1.794827575189     0.000271033848     1.007825032230
         H            1.862440073857    -0.445440575189    -0.880881966152     1.007825032230
         H            1.862067073857    -0.445076575189     0.881177033848     1.007825032230
         H           -1.367847926143    -1.326009575189     0.881316033848     1.007825032230
         H           -2.151007926143     0.019967424811     0.000320033848     1.007825032230
         H           -1.368396926143    -1.326066575189    -0.881072966152     1.007825032230

  Basis Set: AUG-CC-PVTZ
    Blend: AUG-CC-PVTZ
  Basis Set: (AUG-CC-PVTZ AUX)
    Blend: AUG-CC-PVTZ-JKFIT
	 Reference Energy          =    -192.0332075262734861 [Eh]
	 Singles Energy            =      -0.0000000000000000 [Eh]
	 Same-Spin Energy          =      -0.1873870054607593 [Eh]
	 Opposite-Spin Energy      =      -0.6384398392656201 [Eh]
	 Correlation Energy        =      -0.8258268447263793 [Eh]
	 Total Energy              =    -192.8590343709998649 [Eh]

	 ================> DF-SCS-MP2 Energies <==================
	-----------------------------------------------------------
	 SCS Same-Spin Scale       =       0.3333333333333333 [-]
	 SCS Opposite-Spin Scale   =       1.2000000000000000 [-]
	 SCS Same-Spin Energy      =      -0.0624623351535864 [Eh]
	 SCS Opposite-Spin Energy  =      -0.7661278071187441 [Eh]
	 SCS Correlation Energy    =      -0.8285901422723305 [Eh]
	 SCS Total Energy          =    -192.8617976685458189 [Eh]
	-----------------------------------------------------------

  Dipole Moment: [D]
     X:    -0.1092      Y:    -2.9400      Z:    -0.0002     Total:     2.9421

*** Psi4 exiting successfully. Buy a developer a beer!
