                               Psi4 1.4a3.dev225

  ==> Input File <==

--------------------------------------------------------------------------
#psi4
#
memory 32 gb

molecule  {
0 1
  O        0.0000000     1.4067160     0.0000000
  C        0.0000000     0.1791110     0.0000000
  C       -1.3297751    -0.6431829     0.0000000
  C        1.2872490    -0.6168860     0.0000000
  H       -1.3336080    -1.2647610    -0.8814040
  H       -1.3336090    -1.2647590     0.8814050
  H       -2.1366480     0.0666380    -0.0000020
  H        1.3336080    -1.2647610    -0.8814040
  H        2.1366480     0.0666370    -0.0000010
  H        1.3336080    -1.2647590     0.8814050
units angstrom
no_reorient  #important for SAPT in psi4, default
symmetry c1  #important for SAPT in psi4, default
}

set PROPERTIES_ORIGIN ["COM"]
properties('MP2/aug-cc-pvtz', properties = ['dipole'])
--------------------------------------------------------------------------

    Molecular point group: c1
  Charge       = 0
  Multiplicity = 1
  Basis Set: AUG-CC-PVTZ
    Blend: AUG-CC-PVTZ
  Basis Set: (AUG-CC-PVTZ AUX)
    Blend: AUG-CC-PVTZ-JKFIT

    Orbital Energies [Eh]
    ---------------------

    Doubly Occupied:

       1A    -20.547367     2A    -11.338446     3A    -11.238510
       4A    -11.236253     5A     -1.375898     6A     -1.038387
       7A     -0.967936     8A     -0.739816     9A     -0.639732
      10A     -0.632806    11A     -0.623652    12A     -0.566547
      13A     -0.564750    14A     -0.538572    15A     -0.486867
      16A     -0.411071

  @DF-RHF Final Energy:  -192.03251960576446

   => Energetics <=

    Nuclear Repulsion Energy =            118.3855584045888492
    One-Electron Energy =                -494.9429348141245555
    Two-Electron Energy =                 184.5248568037712573
    Total Energy =                       -192.0325196057644632
  Basis Set: (AUG-CC-PVTZ AUX)
    Blend: AUG-CC-PVTZ-RI
    Molecular point group: c1

    Geometry (in Angstrom), charge = 0, multiplicity = 1:

       Center              X                  Y                   Z               Mass
    ------------   -----------------  -----------------  -----------------  -----------------
         O            0.008792174570     1.328074518393     0.000000017364    15.994914619570
         C            0.008792174570     0.100469518393     0.000000017364    12.000000000000
         C           -1.320982925430    -0.721824381607     0.000000017364    12.000000000000
         C            1.296041174570    -0.695527481607     0.000000017364    12.000000000000
         H           -1.324815825430    -1.343402481607    -0.881403982636     1.007825032230
         H           -1.324816825430    -1.343400481607     0.881405017364     1.007825032230
         H           -2.127855825430    -0.012003481607    -0.000001982636     1.007825032230
         H            1.342400174570    -1.343402481607    -0.881403982636     1.007825032230
         H            2.145440174570    -0.012004481607    -0.000000982636     1.007825032230
         H            1.342400174570    -1.343400481607     0.881405017364     1.007825032230

  Basis Set: AUG-CC-PVTZ
    Blend: AUG-CC-PVTZ
  Basis Set: (AUG-CC-PVTZ AUX)
    Blend: AUG-CC-PVTZ-JKFIT
	 Reference Energy          =    -192.0325196057644632 [Eh]
	 Singles Energy            =      -0.0000000000000000 [Eh]
	 Same-Spin Energy          =      -0.1871736288649833 [Eh]
	 Opposite-Spin Energy      =      -0.6381229520791354 [Eh]
	 Correlation Energy        =      -0.8252965809441187 [Eh]
	 Total Energy              =    -192.8578161867085896 [Eh]

	 ================> DF-SCS-MP2 Energies <==================
	-----------------------------------------------------------
	 SCS Same-Spin Scale       =       0.3333333333333333 [-]
	 SCS Opposite-Spin Scale   =       1.2000000000000000 [-]
	 SCS Same-Spin Energy      =      -0.0623912096216611 [Eh]
	 SCS Opposite-Spin Energy  =      -0.7657475424949625 [Eh]
	 SCS Correlation Energy    =      -0.8281387521166236 [Eh]
	 SCS Total Energy          =    -192.8606583578810785 [Eh]
	-----------------------------------------------------------

  Dipole Moment: [D]
     X:     0.0797      Y:    -2.9436      Z:    -0.0000     Total:     2.9447

*** Psi4 exiting successfully. Buy a developer a beer!
