                               Psi4 1.4a3.dev225

  ==> Input File <==

--------------------------------------------------------------------------
#psi4
#
memory 32 gb

molecule  {
0 1
  O        0.0000000     1.4067160     0.0000000
  C        0.0000000     0.1791110     0.0000000
  C       -1.2702385    -0.6063672     0.0000000
  C        1.2872490    -0.6168860     0.0000000
  H       -1.3336080    -1.2647610    -0.8814040
  H       -1.3336090    -1.2647590     0.8814050
  H       -2.1366480     0.0666380    -0.0000020
  H        1.3336080    -1.2647610    -0.8814040
  H        2.1366480     0.0666370    -0.0000010
  H        1.3336080    -1.2647590     0.8814050
units angstrom
no_reorient  #important for SAPT in psi4, default
symmetry c1  #important for SAPT in psi4, default
}

set PROPERTIES_ORIGIN ["COM"]
properties('MP2/aug-cc-pvtz', properties = ['dipole'])
--------------------------------------------------------------------------

    Molecular point group: c1
  Charge       = 0
  Multiplicity = 1
  Basis Set: AUG-CC-PVTZ
    Blend: AUG-CC-PVTZ
  Basis Set: (AUG-CC-PVTZ AUX)
    Blend: AUG-CC-PVTZ-JKFIT

    Orbital Energies [Eh]
    ---------------------

    Doubly Occupied:

       1A    -20.545946     2A    -11.335108     3A    -11.238716
       4A    -11.237623     5A     -1.376513     6A     -1.045641
       7A     -0.968258     8A     -0.743484     9A     -0.644684
      10A     -0.635686    11A     -0.622913    12A     -0.560311
      13A     -0.559280    14A     -0.534690    15A     -0.483381
      16A     -0.417928

  @DF-RHF Final Energy:  -192.03394952205218

   => Energetics <=

    Nuclear Repulsion Energy =            119.2698214403592374
    One-Electron Energy =                -496.7072131756424369
    Two-Electron Energy =                 185.4034422132310169
    Total Energy =                       -192.0339495220521826
  Basis Set: (AUG-CC-PVTZ AUX)
    Blend: AUG-CC-PVTZ-RI
    Molecular point group: c1

    Geometry (in Angstrom), charge = 0, multiplicity = 1:

       Center              X                  Y                   Z               Mass
    ------------   -----------------  -----------------  -----------------  -----------------
         O           -0.003516857924     1.320462971083     0.000000017364    15.994914619570
         C           -0.003516857924     0.092857971083     0.000000017364    12.000000000000
         C           -1.273755357924    -0.692620228917     0.000000017364    12.000000000000
         C            1.283732142076    -0.703139028917     0.000000017364    12.000000000000
         H           -1.337124857924    -1.351014028917    -0.881403982636     1.007825032230
         H           -1.337125857924    -1.351012028917     0.881405017364     1.007825032230
         H           -2.140164857924    -0.019615028917    -0.000001982636     1.007825032230
         H            1.330091142076    -1.351014028917    -0.881403982636     1.007825032230
         H            2.133131142076    -0.019616028917    -0.000000982636     1.007825032230
         H            1.330091142076    -1.351012028917     0.881405017364     1.007825032230

  Basis Set: AUG-CC-PVTZ
    Blend: AUG-CC-PVTZ
  Basis Set: (AUG-CC-PVTZ AUX)
    Blend: AUG-CC-PVTZ-JKFIT
	 Reference Energy          =    -192.0339495220521826 [Eh]
	 Singles Energy            =      -0.0000000000000000 [Eh]
	 Same-Spin Energy          =      -0.1874839250166756 [Eh]
	 Opposite-Spin Energy      =      -0.6382453512032253 [Eh]
	 Correlation Energy        =      -0.8257292762199009 [Eh]
	 Total Energy              =    -192.8596787982720855 [Eh]

	 ================> DF-SCS-MP2 Energies <==================
	-----------------------------------------------------------
	 SCS Same-Spin Scale       =       0.3333333333333333 [-]
	 SCS Opposite-Spin Scale   =       1.2000000000000000 [-]
	 SCS Same-Spin Energy      =      -0.0624946416722252 [Eh]
	 SCS Opposite-Spin Energy  =      -0.7658944214438704 [Eh]
	 SCS Correlation Energy    =      -0.8283890631160956 [Eh]
	 SCS Total Energy          =    -192.8623385851682883 [Eh]
	-----------------------------------------------------------

  Dipole Moment: [D]
     X:    -0.0317      Y:    -3.0198      Z:    -0.0000     Total:     3.0200

*** Psi4 exiting successfully. Buy a developer a beer!
