                               Psi4 1.3.2 release

  ==> Input File <==

--------------------------------------------------------------------------
#psi4
#
memory 32 gb

molecule  {
0 1
  O        0.0267460     1.3979150     0.0001110
  C       -0.0054050     0.1710240    -0.0004320
  C        1.3341024    -0.5434682    -0.0000008
  C       -1.3071510    -0.5956450     0.0000600
  H        1.1065290    -1.7126840     0.0002500
  H        1.8687580    -0.3632970    -0.8809030
  H        1.8683850    -0.3629330     0.8811560
  H       -1.3615300    -1.2438660     0.8812950
  H       -2.1446900     0.1021110     0.0002990
  H       -1.3620790    -1.2439230    -0.8810940
units angstrom
no_reorient  #important for SAPT in psi4, default
symmetry c1  #important for SAPT in psi4, default
}

set PROPERTIES_ORIGIN ["COM"]
properties('MP2/aug-cc-pvtz', properties = ['dipole'])
--------------------------------------------------------------------------

    Molecular point group: c1
  Charge       = 0
  Multiplicity = 1
  Basis Set: AUG-CC-PVTZ
    Blend: AUG-CC-PVTZ
  Basis Set: (AUG-CC-PVTZ AUX)
    Blend: AUG-CC-PVTZ-JKFIT

    Orbital Energies [Eh]
    ---------------------

    Doubly Occupied:

       1A    -20.543124     2A    -11.335952     3A    -11.241457
       4A    -11.237677     5A     -1.376491     6A     -1.038289
       7A     -0.972809     8A     -0.743476     9A     -0.642120
      10A     -0.633387    11A     -0.630190    12A     -0.579833
      13A     -0.552384    14A     -0.521791    15A     -0.482914
      16A     -0.414251

  @DF-RHF Final Energy:  -192.02251252035461

   => Energetics <=

    Nuclear Repulsion Energy =            118.9973317721886161
    One-Electron Energy =                -496.1473967832536118
    Two-Electron Energy =                 185.1275524907104000
    Total Energy =                       -192.0225125203546099
  Basis Set: (AUG-CC-PVTZ AUX)
    Blend: AUG-CC-PVTZ-RI
    Molecular point group: c1

    Geometry (in Angstrom), charge = 0, multiplicity = 1:

       Center              X                  Y                   Z               Mass
    ------------   -----------------  -----------------  -----------------  -----------------
         O            0.015348415145     1.296606813203     0.000140070671    15.994914619570
         C           -0.016802584855     0.069715813203    -0.000402929329    12.000000000000
         C            1.322704815145    -0.644776386797     0.000028270671    12.000000000000
         C           -1.318548584855    -0.696953186797     0.000089070671    12.000000000000
         H            1.095131415145    -1.813992186797     0.000279070671     1.007825032230
         H            1.857360415145    -0.464605186797    -0.880873929329     1.007825032230
         H            1.856987415145    -0.464241186797     0.881185070671     1.007825032230
         H           -1.372927584855    -1.345174186797     0.881324070671     1.007825032230
         H           -2.156087584855     0.000802813203     0.000328070671     1.007825032230
         H           -1.373476584855    -1.345231186797    -0.881064929329     1.007825032230

  Basis Set: AUG-CC-PVTZ
    Blend: AUG-CC-PVTZ
  Basis Set: (AUG-CC-PVTZ AUX)
    Blend: AUG-CC-PVTZ-JKFIT
	 Reference Energy          =    -192.0225125203546099 [Eh]
	 Singles Energy            =      -0.0000000000000000 [Eh]
	 Same-Spin Energy          =      -0.1872202573729303 [Eh]
	 Opposite-Spin Energy      =      -0.6387676977987209 [Eh]
	 Correlation Energy        =      -0.8259879551716511 [Eh]
	 Total Energy              =    -192.8485004755262651 [Eh]

	 ================> DF-SCS-MP2 Energies <==================
	-----------------------------------------------------------
	 SCS Same-Spin Scale       =       0.3333333333333333 [-]
	 SCS Opposite-Spin Scale   =       1.2000000000000000 [-]
	 SCS Same-Spin Energy      =      -0.0624067524576434 [Eh]
	 SCS Opposite-Spin Energy  =      -0.7665212373584650 [Eh]
	 SCS Correlation Energy    =      -0.8289279898161084 [Eh]
	 SCS Total Energy          =    -192.8514405101707325 [Eh]
	-----------------------------------------------------------

  Dipole Moment: [D]
     X:    -0.1154      Y:    -2.8643      Z:    -0.0003     Total:     2.8666

*** Psi4 exiting successfully. Buy a developer a beer!
