                               Psi4 1.3.2 release

  ==> Input File <==

--------------------------------------------------------------------------
#psi4
#
memory 32 gb

molecule  {
0 1
  O        0.0267460     1.3979150     0.0001110
  C       -0.0054050     0.1710240    -0.0004320
  C        1.1962640    -0.5820635     0.0000248
  C       -1.3071510    -0.5956450     0.0000600
  H        1.1065290    -1.7126840     0.0002500
  H        1.8687580    -0.3632970    -0.8809030
  H        1.8683850    -0.3629330     0.8811560
  H       -1.3615300    -1.2438660     0.8812950
  H       -2.1446900     0.1021110     0.0002990
  H       -1.3620790    -1.2439230    -0.8810940
units angstrom
no_reorient  #important for SAPT in psi4, default
symmetry c1  #important for SAPT in psi4, default
}

set PROPERTIES_ORIGIN ["COM"]
properties('MP2/aug-cc-pvtz', properties = ['dipole'])
--------------------------------------------------------------------------

    Molecular point group: c1
  Charge       = 0
  Multiplicity = 1
  Basis Set: AUG-CC-PVTZ
    Blend: AUG-CC-PVTZ
  Basis Set: (AUG-CC-PVTZ AUX)
    Blend: AUG-CC-PVTZ-JKFIT

    Orbital Energies [Eh]
    ---------------------

    Doubly Occupied:

       1A    -20.541068     2A    -11.330787     3A    -11.242607
       4A    -11.237593     5A     -1.376562     6A     -1.054543
       7A     -0.970391     8A     -0.748089     9A     -0.650682
      10A     -0.637440    11A     -0.621096    12A     -0.561296
      13A     -0.556610    14A     -0.522313    15A     -0.472403
      16A     -0.421828

  @DF-RHF Final Energy:  -192.02205739928110

   => Energetics <=

    Nuclear Repulsion Energy =            120.2988421726623756
    One-Electron Energy =                -498.7511827146943801
    Two-Electron Energy =                 186.4302831427509091
    Total Energy =                       -192.0220573992810955
  Basis Set: (AUG-CC-PVTZ AUX)
    Blend: AUG-CC-PVTZ-RI
    Molecular point group: c1

    Geometry (in Angstrom), charge = 0, multiplicity = 1:

       Center              X                  Y                   Z               Mass
    ------------   -----------------  -----------------  -----------------  -----------------
         O            0.043846134943     1.304586288044     0.000134777940    15.994914619570
         C            0.011695134943     0.077695288044    -0.000408222060    12.000000000000
         C            1.213364134943    -0.675392211956     0.000048577940    12.000000000000
         C           -1.290050865057    -0.688973711956     0.000083777940    12.000000000000
         H            1.123629134943    -1.806012711956     0.000273777940     1.007825032230
         H            1.885858134943    -0.456625711956    -0.880879222060     1.007825032230
         H            1.885485134943    -0.456261711956     0.881179777940     1.007825032230
         H           -1.344429865057    -1.337194711956     0.881318777940     1.007825032230
         H           -2.127589865057     0.008782288044     0.000322777940     1.007825032230
         H           -1.344978865057    -1.337251711956    -0.881070222060     1.007825032230

  Basis Set: AUG-CC-PVTZ
    Blend: AUG-CC-PVTZ
  Basis Set: (AUG-CC-PVTZ AUX)
    Blend: AUG-CC-PVTZ-JKFIT
	 Reference Energy          =    -192.0220573992810955 [Eh]
	 Singles Energy            =      -0.0000000000000000 [Eh]
	 Same-Spin Energy          =      -0.1883894304571195 [Eh]
	 Opposite-Spin Energy      =      -0.6395776735023163 [Eh]
	 Correlation Energy        =      -0.8279671039594358 [Eh]
	 Total Energy              =    -192.8500245032405189 [Eh]

	 ================> DF-SCS-MP2 Energies <==================
	-----------------------------------------------------------
	 SCS Same-Spin Scale       =       0.3333333333333333 [-]
	 SCS Opposite-Spin Scale   =       1.2000000000000000 [-]
	 SCS Same-Spin Energy      =      -0.0627964768190398 [Eh]
	 SCS Opposite-Spin Energy  =      -0.7674932082027796 [Eh]
	 SCS Correlation Energy    =      -0.8302896850218194 [Eh]
	 SCS Total Energy          =    -192.8523470843029202 [Eh]
	-----------------------------------------------------------

  Dipole Moment: [D]
     X:     0.1313      Y:    -3.0267      Z:    -0.0002     Total:     3.0296

*** Psi4 exiting successfully. Buy a developer a beer!
