                               Psi4 1.3.2 release

  ==> Input File <==

--------------------------------------------------------------------------
#psi4
#
memory 32 gb

molecule  {
0 1
  O        0.0695443     1.3960456     0.0000824
  C       -0.0054050     0.1710240    -0.0004320
  C        1.2809990    -0.6351670     0.0000570
  C       -1.3071510    -0.5956450     0.0000600
  H        1.1065290    -1.7126840     0.0002500
  H        1.8687580    -0.3632970    -0.8809030
  H        1.8683850    -0.3629330     0.8811560
  H       -1.3615300    -1.2438660     0.8812950
  H       -2.1446900     0.1021110     0.0002990
  H       -1.3620790    -1.2439230    -0.8810940
units angstrom
no_reorient  #important for SAPT in psi4, default
symmetry c1  #important for SAPT in psi4, default
}

set PROPERTIES_ORIGIN ["COM"]
properties('MP2/aug-cc-pvtz', properties = ['dipole'])
--------------------------------------------------------------------------

    Molecular point group: c1
  Charge       = 0
  Multiplicity = 1
  Basis Set: AUG-CC-PVTZ
    Blend: AUG-CC-PVTZ
  Basis Set: (AUG-CC-PVTZ AUX)
    Blend: AUG-CC-PVTZ-JKFIT

    Orbital Energies [Eh]
    ---------------------

    Doubly Occupied:

       1A    -20.543957     2A    -11.336760     3A    -11.240975
       4A    -11.235121     5A     -1.375611     6A     -1.041861
       7A     -0.968915     8A     -0.742114     9A     -0.640998
      10A     -0.635881    11A     -0.620359    12A     -0.565391
      13A     -0.563172    14A     -0.536474    15A     -0.479930
      16A     -0.414643

  @DF-RHF Final Energy:  -192.03293058481128

   => Energetics <=

    Nuclear Repulsion Energy =            118.9808140176168081
    One-Electron Energy =                -496.1431633626262396
    Two-Electron Energy =                 185.1294187601981491
    Total Energy =                       -192.0329305848112824
  Basis Set: (AUG-CC-PVTZ AUX)
    Blend: AUG-CC-PVTZ-RI
    Molecular point group: c1

    Geometry (in Angstrom), charge = 0, multiplicity = 1:

       Center              X                  Y                   Z               Mass
    ------------   -----------------  -----------------  -----------------  -----------------
         O            0.057331538815     1.314211055151     0.000107402135    15.994914619570
         C           -0.017617761185     0.089189455151    -0.000406997865    12.000000000000
         C            1.268786238815    -0.717001544849     0.000082002135    12.000000000000
         C           -1.319363761185    -0.677479544849     0.000085002135    12.000000000000
         H            1.094316238815    -1.794518544849     0.000275002135     1.007825032230
         H            1.856545238815    -0.445131544849    -0.880877997865     1.007825032230
         H            1.856172238815    -0.444767544849     0.881181002135     1.007825032230
         H           -1.373742761185    -1.325700544849     0.881320002135     1.007825032230
         H           -2.156902761185     0.020276455151     0.000324002135     1.007825032230
         H           -1.374291761185    -1.325757544849    -0.881068997865     1.007825032230

  Basis Set: AUG-CC-PVTZ
    Blend: AUG-CC-PVTZ
  Basis Set: (AUG-CC-PVTZ AUX)
    Blend: AUG-CC-PVTZ-JKFIT
	 Reference Energy          =    -192.0329305848112824 [Eh]
	 Singles Energy            =      -0.0000000000000000 [Eh]
	 Same-Spin Energy          =      -0.1873946431972757 [Eh]
	 Opposite-Spin Energy      =      -0.6384700097478064 [Eh]
	 Correlation Energy        =      -0.8258646529450822 [Eh]
	 Total Energy              =    -192.8587952377563681 [Eh]

	 ================> DF-SCS-MP2 Energies <==================
	-----------------------------------------------------------
	 SCS Same-Spin Scale       =       0.3333333333333333 [-]
	 SCS Opposite-Spin Scale   =       1.2000000000000000 [-]
	 SCS Same-Spin Energy      =      -0.0624648810657586 [Eh]
	 SCS Opposite-Spin Energy  =      -0.7661640116973677 [Eh]
	 SCS Correlation Energy    =      -0.8286288927631262 [Eh]
	 SCS Total Energy          =    -192.8615594775744171 [Eh]
	-----------------------------------------------------------

  Dipole Moment: [D]
     X:    -0.1696      Y:    -2.9363      Z:    -0.0002     Total:     2.9412

*** Psi4 exiting successfully. Buy a developer a beer!
