                               Psi4 1.3.2 release

  ==> Input File <==

--------------------------------------------------------------------------
#psi4
#
memory 32 gb

molecule  {
0 1
  O        0.1122513     1.3926836     0.0000531
  C       -0.0054050     0.1710240    -0.0004320
  C        1.2809990    -0.6351670     0.0000570
  C       -1.3071510    -0.5956450     0.0000600
  H        1.1065290    -1.7126840     0.0002500
  H        1.8687580    -0.3632970    -0.8809030
  H        1.8683850    -0.3629330     0.8811560
  H       -1.3615300    -1.2438660     0.8812950
  H       -2.1446900     0.1021110     0.0002990
  H       -1.3620790    -1.2439230    -0.8810940
units angstrom
no_reorient  #important for SAPT in psi4, default
symmetry c1  #important for SAPT in psi4, default
}

set PROPERTIES_ORIGIN ["COM"]
properties('MP2/aug-cc-pvtz', properties = ['dipole'])
--------------------------------------------------------------------------

    Molecular point group: c1
  Charge       = 0
  Multiplicity = 1
  Basis Set: AUG-CC-PVTZ
    Blend: AUG-CC-PVTZ
  Basis Set: (AUG-CC-PVTZ AUX)
    Blend: AUG-CC-PVTZ-JKFIT

    Orbital Energies [Eh]
    ---------------------

    Doubly Occupied:

       1A    -20.543916     2A    -11.336838     3A    -11.243113
       4A    -11.232993     5A     -1.375803     6A     -1.041999
       7A     -0.968570     8A     -0.742174     9A     -0.641020
      10A     -0.635941    11A     -0.620580    12A     -0.565431
      13A     -0.563224    14A     -0.536321    15A     -0.479599
      16A     -0.414146

  @DF-RHF Final Energy:  -192.03188797890908

   => Energetics <=

    Nuclear Repulsion Energy =            119.0063933145545292
    One-Electron Energy =                -496.1932291618346653
    Two-Electron Energy =                 185.1549478683710390
    Total Energy =                       -192.0318879789090829
  Basis Set: (AUG-CC-PVTZ AUX)
    Blend: AUG-CC-PVTZ-RI
    Molecular point group: c1

    Geometry (in Angstrom), charge = 0, multiplicity = 1:

       Center              X                  Y                   Z               Mass
    ------------   -----------------  -----------------  -----------------  -----------------
         O            0.088269536891     1.311775539907     0.000086176496    15.994914619570
         C           -0.029386763109     0.090115939907    -0.000398923504    12.000000000000
         C            1.257017236891    -0.716075060093     0.000090076496    12.000000000000
         C           -1.331132763109    -0.676553060093     0.000093076496    12.000000000000
         H            1.082547236891    -1.793592060093     0.000283076496     1.007825032230
         H            1.844776236891    -0.444205060093    -0.880869923504     1.007825032230
         H            1.844403236891    -0.443841060093     0.881189076496     1.007825032230
         H           -1.385511763109    -1.324774060093     0.881328076496     1.007825032230
         H           -2.168671763109     0.021202939907     0.000332076496     1.007825032230
         H           -1.386060763109    -1.324831060093    -0.881060923504     1.007825032230

  Basis Set: AUG-CC-PVTZ
    Blend: AUG-CC-PVTZ
  Basis Set: (AUG-CC-PVTZ AUX)
    Blend: AUG-CC-PVTZ-JKFIT
	 Reference Energy          =    -192.0318879789090829 [Eh]
	 Singles Energy            =      -0.0000000000000000 [Eh]
	 Same-Spin Energy          =      -0.1874243266242229 [Eh]
	 Opposite-Spin Energy      =      -0.6385650639070590 [Eh]
	 Correlation Energy        =      -0.8259893905312818 [Eh]
	 Total Energy              =    -192.8578773694403594 [Eh]

	 ================> DF-SCS-MP2 Energies <==================
	-----------------------------------------------------------
	 SCS Same-Spin Scale       =       0.3333333333333333 [-]
	 SCS Opposite-Spin Scale   =       1.2000000000000000 [-]
	 SCS Same-Spin Energy      =      -0.0624747755414076 [Eh]
	 SCS Opposite-Spin Energy  =      -0.7662780766884708 [Eh]
	 SCS Correlation Energy    =      -0.8287528522298784 [Eh]
	 SCS Total Energy          =    -192.8606408311389657 [Eh]
	-----------------------------------------------------------

  Dipole Moment: [D]
     X:    -0.2904      Y:    -2.9253      Z:    -0.0002     Total:     2.9397

*** Psi4 exiting successfully. Buy a developer a beer!
