                               Psi4 1.3.2 release

  ==> Input File <==

--------------------------------------------------------------------------
#psi4
#
memory 32 gb

molecule  {
0 1
  O       -0.0589159     1.3971691     0.0001662
  C       -0.0054050     0.1710240    -0.0004320
  C        1.2809990    -0.6351670     0.0000570
  C       -1.3071510    -0.5956450     0.0000600
  H        1.1065290    -1.7126840     0.0002500
  H        1.8687580    -0.3632970    -0.8809030
  H        1.8683850    -0.3629330     0.8811560
  H       -1.3615300    -1.2438660     0.8812950
  H       -2.1446900     0.1021110     0.0002990
  H       -1.3620790    -1.2439230    -0.8810940
units angstrom
no_reorient  #important for SAPT in psi4, default
symmetry c1  #important for SAPT in psi4, default
}

set PROPERTIES_ORIGIN ["COM"]
properties('MP2/aug-cc-pvtz', properties = ['dipole'])
--------------------------------------------------------------------------

    Molecular point group: c1
  Charge       = 0
  Multiplicity = 1
  Basis Set: AUG-CC-PVTZ
    Blend: AUG-CC-PVTZ
  Basis Set: (AUG-CC-PVTZ AUX)
    Blend: AUG-CC-PVTZ-JKFIT

    Orbital Energies [Eh]
    ---------------------

    Doubly Occupied:

       1A    -20.543805     2A    -11.336554     3A    -11.241458
       4A    -11.234435     5A     -1.375617     6A     -1.041687
       7A     -0.968999     8A     -0.742142     9A     -0.641891
      10A     -0.634834    11A     -0.620086    12A     -0.565134
      13A     -0.563983    14A     -0.535726    15A     -0.480415
      16A     -0.414013

  @DF-RHF Final Energy:  -192.03214559699137

   => Energetics <=

    Nuclear Repulsion Energy =            118.9892066250670268
    One-Electron Energy =                -496.1611422481018394
    Two-Electron Energy =                 185.1397900260434426
    Total Energy =                       -192.0321455969913700
  Basis Set: (AUG-CC-PVTZ AUX)
    Blend: AUG-CC-PVTZ-RI
    Molecular point group: c1

    Geometry (in Angstrom), charge = 0, multiplicity = 1:

       Center              X                  Y                   Z               Mass
    ------------   -----------------  -----------------  -----------------  -----------------
         O           -0.035728180211     1.315024946102     0.000168108910    15.994914619570
         C            0.017782719789     0.088879846102    -0.000430091090    12.000000000000
         C            1.304186719789    -0.717311153898     0.000058908910    12.000000000000
         C           -1.283963280211    -0.677789153898     0.000061908910    12.000000000000
         H            1.129716719789    -1.794828153898     0.000251908910     1.007825032230
         H            1.891945719789    -0.445441153898    -0.880901091090     1.007825032230
         H            1.891572719789    -0.445077153898     0.881157908910     1.007825032230
         H           -1.338342280211    -1.326010153898     0.881296908910     1.007825032230
         H           -2.121502280211     0.019966846102     0.000300908910     1.007825032230
         H           -1.338891280211    -1.326067153898    -0.881092091090     1.007825032230

  Basis Set: AUG-CC-PVTZ
    Blend: AUG-CC-PVTZ
  Basis Set: (AUG-CC-PVTZ AUX)
    Blend: AUG-CC-PVTZ-JKFIT
	 Reference Energy          =    -192.0321455969913700 [Eh]
	 Singles Energy            =      -0.0000000000000000 [Eh]
	 Same-Spin Energy          =      -0.1874203274291001 [Eh]
	 Opposite-Spin Energy      =      -0.6384732329302508 [Eh]
	 Correlation Energy        =      -0.8258935603593509 [Eh]
	 Total Energy              =    -192.8580391573507313 [Eh]

	 ================> DF-SCS-MP2 Energies <==================
	-----------------------------------------------------------
	 SCS Same-Spin Scale       =       0.3333333333333333 [-]
	 SCS Opposite-Spin Scale   =       1.2000000000000000 [-]
	 SCS Same-Spin Energy      =      -0.0624734424763667 [Eh]
	 SCS Opposite-Spin Energy  =      -0.7661678795163009 [Eh]
	 SCS Correlation Energy    =      -0.8286413219926676 [Eh]
	 SCS Total Energy          =    -192.8607869189840471 [Eh]
	-----------------------------------------------------------

  Dipole Moment: [D]
     X:     0.1933      Y:    -2.9401      Z:    -0.0003     Total:     2.9465

*** Psi4 exiting successfully. Buy a developer a beer!
