                               Psi4 1.3.2 release

  ==> Input File <==

--------------------------------------------------------------------------
#psi4
#
memory 32 gb

molecule  {
0 1
  O        0.0267460     1.3979150     0.0001110
  C       -0.0054050     0.1710240    -0.0004320
  C        1.3657340    -0.6882705     0.0000892
  C       -1.3071510    -0.5956450     0.0000600
  H        1.1065290    -1.7126840     0.0002500
  H        1.8687580    -0.3632970    -0.8809030
  H        1.8683850    -0.3629330     0.8811560
  H       -1.3615300    -1.2438660     0.8812950
  H       -2.1446900     0.1021110     0.0002990
  H       -1.3620790    -1.2439230    -0.8810940
units angstrom
no_reorient  #important for SAPT in psi4, default
symmetry c1  #important for SAPT in psi4, default
}

set PROPERTIES_ORIGIN ["COM"]
properties('MP2/aug-cc-pvtz', properties = ['dipole'])
--------------------------------------------------------------------------

    Molecular point group: c1
  Charge       = 0
  Multiplicity = 1
  Basis Set: AUG-CC-PVTZ
    Blend: AUG-CC-PVTZ
  Basis Set: (AUG-CC-PVTZ AUX)
    Blend: AUG-CC-PVTZ-JKFIT

    Orbital Energies [Eh]
    ---------------------

    Doubly Occupied:

       1A    -20.546504     2A    -11.340727     3A    -11.239910
       4A    -11.234452     5A     -1.375024     6A     -1.033258
       7A     -0.968552     8A     -0.737447     9A     -0.637280
      10A     -0.630553    11A     -0.620910    12A     -0.574096
      13A     -0.573482    14A     -0.537186    15A     -0.485283
      16A     -0.403866

  @DF-RHF Final Energy:  -192.02572627782760

   => Energetics <=

    Nuclear Repulsion Energy =            117.7443289949234355
    One-Electron Energy =                -493.6630496115031406
    Two-Electron Energy =                 183.8929943387521178
    Total Energy =                       -192.0257262778276015
  Basis Set: (AUG-CC-PVTZ AUX)
    Blend: AUG-CC-PVTZ-RI
    Molecular point group: c1

    Geometry (in Angstrom), charge = 0, multiplicity = 1:

       Center              X                  Y                   Z               Mass
    ------------   -----------------  -----------------  -----------------  -----------------
         O            0.008808666617     1.326544300663     0.000121463412    15.994914619570
         C           -0.023342333383     0.099653300663    -0.000421536588    12.000000000000
         C            1.347796666617    -0.759641199337     0.000099663412    12.000000000000
         C           -1.325088333383    -0.667015699337     0.000070463412    12.000000000000
         H            1.088591666617    -1.784054699337     0.000260463412     1.007825032230
         H            1.850820666617    -0.434667699337    -0.880892536588     1.007825032230
         H            1.850447666617    -0.434303699337     0.881166463412     1.007825032230
         H           -1.379467333383    -1.315236699337     0.881305463412     1.007825032230
         H           -2.162627333383     0.030740300663     0.000309463412     1.007825032230
         H           -1.380016333383    -1.315293699337    -0.881083536588     1.007825032230

  Basis Set: AUG-CC-PVTZ
    Blend: AUG-CC-PVTZ
  Basis Set: (AUG-CC-PVTZ AUX)
    Blend: AUG-CC-PVTZ-JKFIT
	 Reference Energy          =    -192.0257262778276015 [Eh]
	 Singles Energy            =      -0.0000000000000000 [Eh]
	 Same-Spin Energy          =      -0.1872074169874666 [Eh]
	 Opposite-Spin Energy      =      -0.6386809277158545 [Eh]
	 Correlation Energy        =      -0.8258883447033211 [Eh]
	 Total Energy              =    -192.8516146225309171 [Eh]

	 ================> DF-SCS-MP2 Energies <==================
	-----------------------------------------------------------
	 SCS Same-Spin Scale       =       0.3333333333333333 [-]
	 SCS Opposite-Spin Scale   =       1.2000000000000000 [-]
	 SCS Same-Spin Energy      =      -0.0624024723291555 [Eh]
	 SCS Opposite-Spin Energy  =      -0.7664171132590254 [Eh]
	 SCS Correlation Energy    =      -0.8288195855881809 [Eh]
	 SCS Total Energy          =    -192.8545458634157796 [Eh]
	-----------------------------------------------------------

  Dipole Moment: [D]
     X:    -0.2230      Y:    -2.8490      Z:    -0.0003     Total:     2.8577

*** Psi4 exiting successfully. Buy a developer a beer!
