                               Psi4 1.3.2 release

  ==> Input File <==

--------------------------------------------------------------------------
#psi4
#
memory 32 gb

molecule  {
0 1
  O        0.0267460     1.3979150     0.0001110
  C       -0.0054050     0.1710240    -0.0004320
  C        1.2216283    -0.7229381     0.0001124
  C       -1.3071510    -0.5956450     0.0000600
  H        1.1065290    -1.7126840     0.0002500
  H        1.8687580    -0.3632970    -0.8809030
  H        1.8683850    -0.3629330     0.8811560
  H       -1.3615300    -1.2438660     0.8812950
  H       -2.1446900     0.1021110     0.0002990
  H       -1.3620790    -1.2439230    -0.8810940
units angstrom
no_reorient  #important for SAPT in psi4, default
symmetry c1  #important for SAPT in psi4, default
}

set PROPERTIES_ORIGIN ["COM"]
properties('MP2/aug-cc-pvtz', properties = ['dipole'])
--------------------------------------------------------------------------

    Molecular point group: c1
  Charge       = 0
  Multiplicity = 1
  Basis Set: AUG-CC-PVTZ
    Blend: AUG-CC-PVTZ
  Basis Set: (AUG-CC-PVTZ AUX)
    Blend: AUG-CC-PVTZ-JKFIT

    Orbital Energies [Eh]
    ---------------------

    Doubly Occupied:

       1A    -20.545647     2A    -11.339297     3A    -11.240605
       4A    -11.236498     5A     -1.375748     6A     -1.046900
       7A     -0.966949     8A     -0.746100     9A     -0.653645
      10A     -0.635373    11A     -0.613441    12A     -0.579840
      13A     -0.547319    14A     -0.533934    15A     -0.475949
      16A     -0.414355

  @DF-RHF Final Energy:  -192.01897646393996

   => Energetics <=

    Nuclear Repulsion Energy =            118.9914795113730577
    One-Electron Energy =                -496.1177148249072388
    Two-Electron Energy =                 185.1072588495941886
    Total Energy =                       -192.0189764639399641
  Basis Set: (AUG-CC-PVTZ AUX)
    Blend: AUG-CC-PVTZ-RI
    Molecular point group: c1

    Geometry (in Angstrom), charge = 0, multiplicity = 1:

       Center              X                  Y                   Z               Mass
    ------------   -----------------  -----------------  -----------------  -----------------
         O            0.038602133894     1.333711734055     0.000116666875    15.994914619570
         C            0.006451133894     0.106820734055    -0.000426333125    12.000000000000
         C            1.233484433894    -0.787141365945     0.000118066875    12.000000000000
         C           -1.295294866106    -0.659848265945     0.000065666875    12.000000000000
         H            1.118385133894    -1.776887265945     0.000255666875     1.007825032230
         H            1.880614133894    -0.427500265945    -0.880897333125     1.007825032230
         H            1.880241133894    -0.427136265945     0.881161666875     1.007825032230
         H           -1.349673866106    -1.308069265945     0.881300666875     1.007825032230
         H           -2.132833866106     0.037907734055     0.000304666875     1.007825032230
         H           -1.350222866106    -1.308126265945    -0.881088333125     1.007825032230

  Basis Set: AUG-CC-PVTZ
    Blend: AUG-CC-PVTZ
  Basis Set: (AUG-CC-PVTZ AUX)
    Blend: AUG-CC-PVTZ-JKFIT
	 Reference Energy          =    -192.0189764639399641 [Eh]
	 Singles Energy            =      -0.0000000000000000 [Eh]
	 Same-Spin Energy          =      -0.1879637915722494 [Eh]
	 Opposite-Spin Energy      =      -0.6392125343650736 [Eh]
	 Correlation Energy        =      -0.8271763259373230 [Eh]
	 Total Energy              =    -192.8461527898772943 [Eh]

	 ================> DF-SCS-MP2 Energies <==================
	-----------------------------------------------------------
	 SCS Same-Spin Scale       =       0.3333333333333333 [-]
	 SCS Opposite-Spin Scale   =       1.2000000000000000 [-]
	 SCS Same-Spin Energy      =      -0.0626545971907498 [Eh]
	 SCS Opposite-Spin Energy  =      -0.7670550412380883 [Eh]
	 SCS Correlation Energy    =      -0.8297096384288382 [Eh]
	 SCS Total Energy          =    -192.8486861023688164 [Eh]
	-----------------------------------------------------------

  Dipole Moment: [D]
     X:     0.0089      Y:    -2.9781      Z:    -0.0002     Total:     2.9781

*** Psi4 exiting successfully. Buy a developer a beer!
