                               Psi4 1.3.2 release

  ==> Input File <==

--------------------------------------------------------------------------
#psi4
#
memory 32 gb

molecule  {
0 1
  O        0.0267460     1.3979150     0.0001110
  C       -0.0054050     0.1710240    -0.0004320
  C        1.2667331    -0.6574951     0.0000711
  C       -1.3071510    -0.5956450     0.0000600
  H        1.1065290    -1.7126840     0.0002500
  H        1.8687580    -0.3632970    -0.8809030
  H        1.8683850    -0.3629330     0.8811560
  H       -1.3615300    -1.2438660     0.8812950
  H       -2.1446900     0.1021110     0.0002990
  H       -1.3620790    -1.2439230    -0.8810940
units angstrom
no_reorient  #important for SAPT in psi4, default
symmetry c1  #important for SAPT in psi4, default
}

set PROPERTIES_ORIGIN ["COM"]
properties('MP2/aug-cc-pvtz', properties = ['dipole'])
--------------------------------------------------------------------------

    Molecular point group: c1
  Charge       = 0
  Multiplicity = 1
  Basis Set: AUG-CC-PVTZ
    Blend: AUG-CC-PVTZ
  Basis Set: (AUG-CC-PVTZ AUX)
    Blend: AUG-CC-PVTZ-JKFIT

    Orbital Energies [Eh]
    ---------------------

    Doubly Occupied:

       1A    -20.544297     2A    -11.337163     3A    -11.238201
       4A    -11.237743     5A     -1.375466     6A     -1.042882
       7A     -0.968390     8A     -0.742408     9A     -0.643062
      10A     -0.636129    11A     -0.617988    12A     -0.568002
      13A     -0.560933    14A     -0.536537    15A     -0.479317
      16A     -0.414752

  @DF-RHF Final Energy:  -192.03235979814764

   => Energetics <=

    Nuclear Repulsion Energy =            118.9694019774248943
    One-Electron Energy =                -496.1169811086666073
    Two-Electron Energy =                 185.1152193330941031
    Total Energy =                       -192.0323597981476382
  Basis Set: (AUG-CC-PVTZ AUX)
    Blend: AUG-CC-PVTZ-RI
    Molecular point group: c1

    Geometry (in Angstrom), charge = 0, multiplicity = 1:

       Center              X                  Y                   Z               Mass
    ------------   -----------------  -----------------  -----------------  -----------------
         O            0.029276837373     1.320181569190     0.000125205539    15.994914619570
         C           -0.002874162627     0.093290569190    -0.000417794461    12.000000000000
         C            1.269263937373    -0.735228530810     0.000085305539    12.000000000000
         C           -1.304620162627    -0.673378430810     0.000074205539    12.000000000000
         H            1.109059837373    -1.790417430810     0.000264205539     1.007825032230
         H            1.871288837373    -0.441030430810    -0.880888794461     1.007825032230
         H            1.870915837373    -0.440666430810     0.881170205539     1.007825032230
         H           -1.358999162627    -1.321599430810     0.881309205539     1.007825032230
         H           -2.142159162627     0.024377569190     0.000313205539     1.007825032230
         H           -1.359548162627    -1.321656430810    -0.881079794461     1.007825032230

  Basis Set: AUG-CC-PVTZ
    Blend: AUG-CC-PVTZ
  Basis Set: (AUG-CC-PVTZ AUX)
    Blend: AUG-CC-PVTZ-JKFIT
	 Reference Energy          =    -192.0323597981476382 [Eh]
	 Singles Energy            =      -0.0000000000000000 [Eh]
	 Same-Spin Energy          =      -0.1874881519808264 [Eh]
	 Opposite-Spin Energy      =      -0.6385037909980976 [Eh]
	 Correlation Energy        =      -0.8259919429789240 [Eh]
	 Total Energy              =    -192.8583517411265689 [Eh]

	 ================> DF-SCS-MP2 Energies <==================
	-----------------------------------------------------------
	 SCS Same-Spin Scale       =       0.3333333333333333 [-]
	 SCS Opposite-Spin Scale   =       1.2000000000000000 [-]
	 SCS Same-Spin Energy      =      -0.0624960506602755 [Eh]
	 SCS Opposite-Spin Energy  =      -0.7662045491977171 [Eh]
	 SCS Correlation Energy    =      -0.8287005998579926 [Eh]
	 SCS Total Energy          =    -192.8610603980056339 [Eh]
	-----------------------------------------------------------

  Dipole Moment: [D]
     X:    -0.0332      Y:    -2.9554      Z:    -0.0002     Total:     2.9556

*** Psi4 exiting successfully. Buy a developer a beer!
