                               Psi4 1.3.2 release

  ==> Input File <==

--------------------------------------------------------------------------
#psi4
#
memory 32 gb

molecule  {
0 1
  O        0.0267460     1.3979150     0.0001110
  C       -0.0054050     0.1710240    -0.0004320
  C        1.3582219    -0.4962848    -0.0000304
  C       -1.3071510    -0.5956450     0.0000600
  H        1.1065290    -1.7126840     0.0002500
  H        1.8687580    -0.3632970    -0.8809030
  H        1.8683850    -0.3629330     0.8811560
  H       -1.3615300    -1.2438660     0.8812950
  H       -2.1446900     0.1021110     0.0002990
  H       -1.3620790    -1.2439230    -0.8810940
units angstrom
no_reorient  #important for SAPT in psi4, default
symmetry c1  #important for SAPT in psi4, default
}

set PROPERTIES_ORIGIN ["COM"]
properties('MP2/aug-cc-pvtz', properties = ['dipole'])
--------------------------------------------------------------------------

    Molecular point group: c1
  Charge       = 0
  Multiplicity = 1
  Basis Set: AUG-CC-PVTZ
    Blend: AUG-CC-PVTZ
  Basis Set: (AUG-CC-PVTZ AUX)
    Blend: AUG-CC-PVTZ-JKFIT

    Orbital Energies [Eh]
    ---------------------

    Doubly Occupied:

       1A    -20.543038     2A    -11.336263     3A    -11.242869
       4A    -11.239424     5A     -1.377458     6A     -1.037090
       7A     -0.975036     8A     -0.745092     9A     -0.643983
      10A     -0.642207    11A     -0.628427    12A     -0.584782
      13A     -0.552314    14A     -0.507376    15A     -0.484090
      16A     -0.413327

  @DF-RHF Final Energy:  -192.00995911655713

   => Energetics <=

    Nuclear Repulsion Energy =            119.0224094318055990
    One-Electron Energy =                -496.1591833784395931
    Two-Electron Energy =                 185.1268148300768530
    Total Energy =                       -192.0099591165571269
  Basis Set: (AUG-CC-PVTZ AUX)
    Blend: AUG-CC-PVTZ-RI
    Molecular point group: c1

    Geometry (in Angstrom), charge = 0, multiplicity = 1:

       Center              X                  Y                   Z               Mass
    ------------   -----------------  -----------------  -----------------  -----------------
         O            0.010361773159     1.286851771703     0.000146190392    15.994914619570
         C           -0.021789226841     0.059960771703    -0.000396809608    12.000000000000
         C            1.341837673159    -0.607348028297     0.000004790392    12.000000000000
         C           -1.323535226841    -0.706708228297     0.000095190392    12.000000000000
         H            1.090144773159    -1.823747228297     0.000285190392     1.007825032230
         H            1.852373773159    -0.474360228297    -0.880867809608     1.007825032230
         H            1.852000773159    -0.473996228297     0.881191190392     1.007825032230
         H           -1.377914226841    -1.354929228297     0.881330190392     1.007825032230
         H           -2.161074226841    -0.008952228297     0.000334190392     1.007825032230
         H           -1.378463226841    -1.354986228297    -0.881058809608     1.007825032230

  Basis Set: AUG-CC-PVTZ
    Blend: AUG-CC-PVTZ
  Basis Set: (AUG-CC-PVTZ AUX)
    Blend: AUG-CC-PVTZ-JKFIT
	 Reference Energy          =    -192.0099591165571269 [Eh]
	 Singles Energy            =      -0.0000000000000000 [Eh]
	 Same-Spin Energy          =      -0.1872814265587477 [Eh]
	 Opposite-Spin Energy      =      -0.6393124277260329 [Eh]
	 Correlation Energy        =      -0.8265938542847806 [Eh]
	 Total Energy              =    -192.8365529708419217 [Eh]

	 ================> DF-SCS-MP2 Energies <==================
	-----------------------------------------------------------
	 SCS Same-Spin Scale       =       0.3333333333333333 [-]
	 SCS Opposite-Spin Scale   =       1.2000000000000000 [-]
	 SCS Same-Spin Energy      =      -0.0624271421862492 [Eh]
	 SCS Opposite-Spin Energy  =      -0.7671749132712394 [Eh]
	 SCS Correlation Energy    =      -0.8296020554574887 [Eh]
	 SCS Total Energy          =    -192.8395611720146121 [Eh]
	-----------------------------------------------------------

  Dipole Moment: [D]
     X:    -0.1512      Y:    -2.8105      Z:    -0.0003     Total:     2.8146

*** Psi4 exiting successfully. Buy a developer a beer!
