                               Psi4 1.3.2 release

  ==> Input File <==

--------------------------------------------------------------------------
#psi4
#
memory 32 gb

molecule  {
0 1
  O        0.0267460     1.3979150     0.0001110
  C       -0.0080246     0.0710583    -0.0004762
  C        1.2809990    -0.6351670     0.0000570
  C       -1.3071510    -0.5956450     0.0000600
  H        1.1065290    -1.7126840     0.0002500
  H        1.8687580    -0.3632970    -0.8809030
  H        1.8683850    -0.3629330     0.8811560
  H       -1.3615300    -1.2438660     0.8812950
  H       -2.1446900     0.1021110     0.0002990
  H       -1.3620790    -1.2439230    -0.8810940
units angstrom
no_reorient  #important for SAPT in psi4, default
symmetry c1  #important for SAPT in psi4, default
}

set PROPERTIES_ORIGIN ["COM"]
properties('MP2/aug-cc-pvtz', properties = ['dipole'])
--------------------------------------------------------------------------

    Molecular point group: c1
  Charge       = 0
  Multiplicity = 1
  Basis Set: AUG-CC-PVTZ
    Blend: AUG-CC-PVTZ
  Basis Set: (AUG-CC-PVTZ AUX)
    Blend: AUG-CC-PVTZ-JKFIT

    Orbital Energies [Eh]
    ---------------------

    Doubly Occupied:

       1A    -20.534975     2A    -11.344620     3A    -11.244239
       4A    -11.242710     5A     -1.314401     6A     -1.060775
       7A     -0.984436     8A     -0.747334     9A     -0.636152
      10A     -0.634028    11A     -0.625263    12A     -0.572557
      13A     -0.550032    14A     -0.535683    15A     -0.442728
      16A     -0.421242

  @DF-RHF Final Energy:  -192.00825201532740

   => Energetics <=

    Nuclear Repulsion Energy =            118.4421711377971747
    One-Electron Energy =                -495.1184930539656648
    Two-Electron Energy =                 184.6680699008410897
    Total Energy =                       -192.0082520153274004
  Basis Set: (AUG-CC-PVTZ AUX)
    Blend: AUG-CC-PVTZ-RI
    Molecular point group: c1

    Geometry (in Angstrom), charge = 0, multiplicity = 1:

       Center              X                  Y                   Z               Mass
    ------------   -----------------  -----------------  -----------------  -----------------
         O            0.026868996059     1.336232934924     0.000137258908    15.994914619570
         C           -0.007901603941     0.009376234924    -0.000449941092    12.000000000000
         C            1.281121996059    -0.696849065076     0.000083258908    12.000000000000
         C           -1.307028003941    -0.657327065076     0.000086258908    12.000000000000
         H            1.106651996059    -1.774366065076     0.000276258908     1.007825032230
         H            1.868880996059    -0.424979065076    -0.880876741092     1.007825032230
         H            1.868507996059    -0.424615065076     0.881182258908     1.007825032230
         H           -1.361407003941    -1.305548065076     0.881321258908     1.007825032230
         H           -2.144567003941     0.040428934924     0.000325258908     1.007825032230
         H           -1.361956003941    -1.305605065076    -0.881067741092     1.007825032230

  Basis Set: AUG-CC-PVTZ
    Blend: AUG-CC-PVTZ
  Basis Set: (AUG-CC-PVTZ AUX)
    Blend: AUG-CC-PVTZ-JKFIT
	 Reference Energy          =    -192.0082520153274004 [Eh]
	 Singles Energy            =      -0.0000000000000000 [Eh]
	 Same-Spin Energy          =      -0.1907259874774753 [Eh]
	 Opposite-Spin Energy      =      -0.6449572897303678 [Eh]
	 Correlation Energy        =      -0.8356832772078431 [Eh]
	 Total Energy              =    -192.8439352925352352 [Eh]

	 ================> DF-SCS-MP2 Energies <==================
	-----------------------------------------------------------
	 SCS Same-Spin Scale       =       0.3333333333333333 [-]
	 SCS Opposite-Spin Scale   =       1.2000000000000000 [-]
	 SCS Same-Spin Energy      =      -0.0635753291591584 [Eh]
	 SCS Opposite-Spin Energy  =      -0.7739487476764414 [Eh]
	 SCS Correlation Energy    =      -0.8375240768355998 [Eh]
	 SCS Total Energy          =    -192.8457760921629927 [Eh]
	-----------------------------------------------------------

  Dipole Moment: [D]
     X:    -0.0590      Y:    -3.3459      Z:    -0.0001     Total:     3.3465

*** Psi4 exiting successfully. Buy a developer a beer!
