                               Psi4 1.4a3.dev225

  ==> Input File <==

--------------------------------------------------------------------------
#psi4
#
memory 32 gb

molecule  {
0 1
  O        0.0000000     1.4067160     0.0000000
  C        0.0000000     0.1591110     0.0000000
  C       -1.2872490    -0.6168860     0.0000000
  C        1.2872490    -0.6168860     0.0000000
  H       -1.3336080    -1.2647610    -0.8814040
  H       -1.3336090    -1.2647590     0.8814050
  H       -2.1366480     0.0666380    -0.0000020
  H        1.3336080    -1.2647610    -0.8814040
  H        2.1366480     0.0666370    -0.0000010
  H        1.3336080    -1.2647590     0.8814050
units angstrom
no_reorient  #important for SAPT in psi4, default
symmetry c1  #important for SAPT in psi4, default
}

set PROPERTIES_ORIGIN ["COM"]
properties('MP2/aug-cc-pvtz', properties = ['dipole'])
--------------------------------------------------------------------------

    Molecular point group: c1
  Charge       = 0
  Multiplicity = 1
  Basis Set: AUG-CC-PVTZ
    Blend: AUG-CC-PVTZ
  Basis Set: (AUG-CC-PVTZ AUX)
    Blend: AUG-CC-PVTZ-JKFIT

    Orbital Energies [Eh]
    ---------------------

    Doubly Occupied:

       1A    -20.544695     2A    -11.337713     3A    -11.239047
       4A    -11.239026     5A     -1.363000     6A     -1.047408
       7A     -0.971149     8A     -0.743184     9A     -0.640873
      10A     -0.634313    11A     -0.624021    12A     -0.562940
      13A     -0.556883    14A     -0.538690    15A     -0.476404
      16A     -0.418680

  @DF-RHF Final Energy:  -192.03167779921353

   => Energetics <=

    Nuclear Repulsion Energy =            118.8931438938566458
    One-Electron Energy =                -495.9735930628792175
    Two-Electron Energy =                 185.0487713698090602
    Total Energy =                       -192.0316777992135258
  Basis Set: (AUG-CC-PVTZ AUX)
    Blend: AUG-CC-PVTZ-RI
    Molecular point group: c1

    Geometry (in Angstrom), charge = 0, multiplicity = 1:

       Center              X                  Y                   Z               Mass
    ------------   -----------------  -----------------  -----------------  -----------------
         O            0.000000017364     1.326772651194     0.000000017364    15.994914619570
         C            0.000000017364     0.079167651194     0.000000017364    12.000000000000
         C           -1.287248982636    -0.696829348806     0.000000017364    12.000000000000
         C            1.287249017364    -0.696829348806     0.000000017364    12.000000000000
         H           -1.333607982636    -1.344704348806    -0.881403982636     1.007825032230
         H           -1.333608982636    -1.344702348806     0.881405017364     1.007825032230
         H           -2.136647982636    -0.013305348806    -0.000001982636     1.007825032230
         H            1.333608017364    -1.344704348806    -0.881403982636     1.007825032230
         H            2.136648017364    -0.013306348806    -0.000000982636     1.007825032230
         H            1.333608017364    -1.344702348806     0.881405017364     1.007825032230

  Basis Set: AUG-CC-PVTZ
    Blend: AUG-CC-PVTZ
  Basis Set: (AUG-CC-PVTZ AUX)
    Blend: AUG-CC-PVTZ-JKFIT
	 Reference Energy          =    -192.0316777992135258 [Eh]
	 Singles Energy            =      -0.0000000000000000 [Eh]
	 Same-Spin Energy          =      -0.1879597014550089 [Eh]
	 Opposite-Spin Energy      =      -0.6393407559613890 [Eh]
	 Correlation Energy        =      -0.8273004574163978 [Eh]
	 Total Energy              =    -192.8589782566299107 [Eh]

	 ================> DF-SCS-MP2 Energies <==================
	-----------------------------------------------------------
	 SCS Same-Spin Scale       =       0.3333333333333333 [-]
	 SCS Opposite-Spin Scale   =       1.2000000000000000 [-]
	 SCS Same-Spin Energy      =      -0.0626532338183363 [Eh]
	 SCS Opposite-Spin Energy  =      -0.7672089071536667 [Eh]
	 SCS Correlation Energy    =      -0.8298621409720031 [Eh]
	 SCS Total Energy          =    -192.8615399401855370 [Eh]
	-----------------------------------------------------------

  Dipole Moment: [D]
     X:     0.0000      Y:    -3.0945      Z:    -0.0000     Total:     3.0945

*** Psi4 exiting successfully. Buy a developer a beer!
