                               Psi4 1.3.2 release

  ==> Input File <==

--------------------------------------------------------------------------
#psi4
#
memory 32 gb

molecule  {
0 1
  O        0.0267460     1.3979150     0.0001110
  C       -0.0106443    -0.0289073    -0.0005205
  C        1.2809990    -0.6351670     0.0000570
  C       -1.3071510    -0.5956450     0.0000600
  H        1.1065290    -1.7126840     0.0002500
  H        1.8687580    -0.3632970    -0.8809030
  H        1.8683850    -0.3629330     0.8811560
  H       -1.3615300    -1.2438660     0.8812950
  H       -2.1446900     0.1021110     0.0002990
  H       -1.3620790    -1.2439230    -0.8810940
units angstrom
no_reorient  #important for SAPT in psi4, default
symmetry c1  #important for SAPT in psi4, default
}

set PROPERTIES_ORIGIN ["COM"]
properties('MP2/aug-cc-pvtz', properties = ['dipole'])
--------------------------------------------------------------------------

    Molecular point group: c1
  Charge       = 0
  Multiplicity = 1
  Basis Set: AUG-CC-PVTZ
    Blend: AUG-CC-PVTZ
  Basis Set: (AUG-CC-PVTZ AUX)
    Blend: AUG-CC-PVTZ-JKFIT

    Orbital Energies [Eh]
    ---------------------

    Doubly Occupied:

       1A    -20.524320     2A    -11.352355     3A    -11.249526
       4A    -11.247686     5A     -1.266835     6A     -1.077089
       7A     -1.000998     8A     -0.753531     9A     -0.639461
      10A     -0.634546    11A     -0.633584    12A     -0.579482
      13A     -0.569006    14A     -0.499002    15A     -0.415523
      16A     -0.410752

  @DF-RHF Final Energy:  -191.96176678416995

   => Energetics <=

    Nuclear Repulsion Energy =            118.0881001303372386
    One-Electron Energy =                -494.3923388541768418
    Two-Electron Energy =                 184.3424719396696503
    Total Energy =                       -191.9617667841699529
  Basis Set: (AUG-CC-PVTZ AUX)
    Blend: AUG-CC-PVTZ-RI
    Molecular point group: c1

    Geometry (in Angstrom), charge = 0, multiplicity = 1:

       Center              X                  Y                   Z               Mass
    ------------   -----------------  -----------------  -----------------  -----------------
         O            0.027410612014     1.356900554820     0.000146417814    15.994914619570
         C           -0.009979687986    -0.069921745180    -0.000485082186    12.000000000000
         C            1.281663612014    -0.676181445180     0.000092417814    12.000000000000
         C           -1.306486387986    -0.636659445180     0.000095417814    12.000000000000
         H            1.107193612014    -1.753698445180     0.000285417814     1.007825032230
         H            1.869422612014    -0.404311445180    -0.880867582186     1.007825032230
         H            1.869049612014    -0.403947445180     0.881191417814     1.007825032230
         H           -1.360865387986    -1.284880445180     0.881330417814     1.007825032230
         H           -2.144025387986     0.061096554820     0.000334417814     1.007825032230
         H           -1.361414387986    -1.284937445180    -0.881058582186     1.007825032230

  Basis Set: AUG-CC-PVTZ
    Blend: AUG-CC-PVTZ
  Basis Set: (AUG-CC-PVTZ AUX)
    Blend: AUG-CC-PVTZ-JKFIT
	 Reference Energy          =    -191.9617667841699529 [Eh]
	 Singles Energy            =      -0.0000000000000000 [Eh]
	 Same-Spin Energy          =      -0.1947940527001128 [Eh]
	 Opposite-Spin Energy      =      -0.6524975597482487 [Eh]
	 Correlation Energy        =      -0.8472916124483615 [Eh]
	 Total Energy              =    -192.8090583966183260 [Eh]

	 ================> DF-SCS-MP2 Energies <==================
	-----------------------------------------------------------
	 SCS Same-Spin Scale       =       0.3333333333333333 [-]
	 SCS Opposite-Spin Scale   =       1.2000000000000000 [-]
	 SCS Same-Spin Energy      =      -0.0649313509000376 [Eh]
	 SCS Opposite-Spin Energy  =      -0.7829970716978985 [Eh]
	 SCS Correlation Energy    =      -0.8479284225979360 [Eh]
	 SCS Total Energy          =    -192.8096952067678842 [Eh]
	-----------------------------------------------------------

  Dipole Moment: [D]
     X:    -0.0729      Y:    -3.6070      Z:     0.0000     Total:     3.6077

*** Psi4 exiting successfully. Buy a developer a beer!
