                               Psi4 1.4a3.dev225

  ==> Input File <==

--------------------------------------------------------------------------
#psi4
#
memory 32 gb

molecule  {
0 1
  O        0.0000000     1.4067160     0.0000000
  C        0.0000000     0.1991110     0.0000000
  C       -1.2872490    -0.6168860     0.0000000
  C        1.2872490    -0.6168860     0.0000000
  H       -1.3336080    -1.2647610    -0.8814040
  H       -1.3336090    -1.2647590     0.8814050
  H       -2.1366480     0.0666380    -0.0000020
  H        1.3336080    -1.2647610    -0.8814040
  H        2.1366480     0.0666370    -0.0000010
  H        1.3336080    -1.2647590     0.8814050
units angstrom
no_reorient  #important for SAPT in psi4, default
symmetry c1  #important for SAPT in psi4, default
}

set PROPERTIES_ORIGIN ["COM"]
properties('MP2/aug-cc-pvtz', properties = ['dipole'])
--------------------------------------------------------------------------

    Molecular point group: c1
  Charge       = 0
  Multiplicity = 1
  Basis Set: AUG-CC-PVTZ
    Blend: AUG-CC-PVTZ
  Basis Set: (AUG-CC-PVTZ AUX)
    Blend: AUG-CC-PVTZ-JKFIT

    Orbital Energies [Eh]
    ---------------------

    Doubly Occupied:

       1A    -20.548020     2A    -11.334611     3A    -11.236693
       4A    -11.236672     5A     -1.390184     6A     -1.039258
       7A     -0.965169     8A     -0.741684     9A     -0.645476
      10A     -0.636002    11A     -0.622329    12A     -0.564687
      13A     -0.559767    14A     -0.534836    15A     -0.492744
      16A     -0.413011

  @DF-RHF Final Energy:  -192.03589947276510

   => Energetics <=

    Nuclear Repulsion Energy =            119.1413432426941483
    One-Electron Energy =                -496.4321978675044988
    Two-Electron Energy =                 185.2549551520452269
    Total Energy =                       -192.0358994727650952
  Basis Set: (AUG-CC-PVTZ AUX)
    Blend: AUG-CC-PVTZ-RI
    Molecular point group: c1

    Geometry (in Angstrom), charge = 0, multiplicity = 1:

       Center              X                  Y                   Z               Mass
    ------------   -----------------  -----------------  -----------------  -----------------
         O            0.000000017364     1.318502758392     0.000000017364    15.994914619570
         C            0.000000017364     0.110897758392     0.000000017364    12.000000000000
         C           -1.287248982636    -0.705099241608     0.000000017364    12.000000000000
         C            1.287249017364    -0.705099241608     0.000000017364    12.000000000000
         H           -1.333607982636    -1.352974241608    -0.881403982636     1.007825032230
         H           -1.333608982636    -1.352972241608     0.881405017364     1.007825032230
         H           -2.136647982636    -0.021575241608    -0.000001982636     1.007825032230
         H            1.333608017364    -1.352974241608    -0.881403982636     1.007825032230
         H            2.136648017364    -0.021576241608    -0.000000982636     1.007825032230
         H            1.333608017364    -1.352972241608     0.881405017364     1.007825032230

  Basis Set: AUG-CC-PVTZ
    Blend: AUG-CC-PVTZ
  Basis Set: (AUG-CC-PVTZ AUX)
    Blend: AUG-CC-PVTZ-JKFIT
	 Reference Energy          =    -192.0358994727650952 [Eh]
	 Singles Energy            =      -0.0000000000000000 [Eh]
	 Same-Spin Energy          =      -0.1867867269743223 [Eh]
	 Opposite-Spin Energy      =      -0.6369976550620908 [Eh]
	 Correlation Energy        =      -0.8237843820364131 [Eh]
	 Total Energy              =    -192.8596838548015171 [Eh]

	 ================> DF-SCS-MP2 Energies <==================
	-----------------------------------------------------------
	 SCS Same-Spin Scale       =       0.3333333333333333 [-]
	 SCS Opposite-Spin Scale   =       1.2000000000000000 [-]
	 SCS Same-Spin Energy      =      -0.0622622423247741 [Eh]
	 SCS Opposite-Spin Energy  =      -0.7643971860745090 [Eh]
	 SCS Correlation Energy    =      -0.8266594283992831 [Eh]
	 SCS Total Energy          =    -192.8625589011643910 [Eh]
	-----------------------------------------------------------

  Dipole Moment: [D]
     X:     0.0000      Y:    -2.8951      Z:    -0.0000     Total:     2.8951

*** Psi4 exiting successfully. Buy a developer a beer!
