                               Psi4 1.3.2 release

  ==> Input File <==

--------------------------------------------------------------------------
#psi4
#
memory 32 gb

molecule  {
0 1
  O        0.0267460     1.3979150     0.0001110
  C       -0.0054050     0.1710240    -0.0004320
  C        1.1115291    -0.5289600    -0.0000074
  C       -1.3071510    -0.5956450     0.0000600
  H        1.1065290    -1.7126840     0.0002500
  H        1.8687580    -0.3632970    -0.8809030
  H        1.8683850    -0.3629330     0.8811560
  H       -1.3615300    -1.2438660     0.8812950
  H       -2.1446900     0.1021110     0.0002990
  H       -1.3620790    -1.2439230    -0.8810940
units angstrom
no_reorient  #important for SAPT in psi4, default
symmetry c1  #important for SAPT in psi4, default
}

set PROPERTIES_ORIGIN ["COM"]
properties('MP2/aug-cc-pvtz', properties = ['dipole'])
--------------------------------------------------------------------------

    Molecular point group: c1
  Charge       = 0
  Multiplicity = 1
  Basis Set: AUG-CC-PVTZ
    Blend: AUG-CC-PVTZ
  Basis Set: (AUG-CC-PVTZ AUX)
    Blend: AUG-CC-PVTZ-JKFIT

    Orbital Energies [Eh]
    ---------------------

    Doubly Occupied:

       1A    -20.537595     2A    -11.322551     3A    -11.249705
       4A    -11.236194     5A     -1.378341     6A     -1.073054
       7A     -0.972297     8A     -0.753906     9A     -0.658735
      10A     -0.640535    11A     -0.623936    12A     -0.562380
      13A     -0.549799    14A     -0.500503    15A     -0.461197
      16A     -0.425383

  @DF-RHF Final Energy:  -191.98392394857896

   => Energetics <=

    Nuclear Repulsion Energy =            121.7762845356299977
    One-Electron Energy =                -501.6282009240013622
    Two-Electron Energy =                 187.8679924397924026
    Total Energy =                       -191.9839239485789619
  Basis Set: (AUG-CC-PVTZ AUX)
    Blend: AUG-CC-PVTZ-RI
    Molecular point group: c1

    Geometry (in Angstrom), charge = 0, multiplicity = 1:

       Center              X                  Y                   Z               Mass
    ------------   -----------------  -----------------  -----------------  -----------------
         O            0.061364848432     1.293607281734     0.000141435204    15.994914619570
         C            0.029213848432     0.066716281734    -0.000401564796    12.000000000000
         C            1.146147948432    -0.633267718266     0.000023035204    12.000000000000
         C           -1.272532151568    -0.699952718266     0.000090435204    12.000000000000
         H            1.141147848432    -1.816991718266     0.000280435204     1.007825032230
         H            1.903376848432    -0.467604718266    -0.880872564796     1.007825032230
         H            1.903003848432    -0.467240718266     0.881186435204     1.007825032230
         H           -1.326911151568    -1.348173718266     0.881325435204     1.007825032230
         H           -2.110071151568    -0.002196718266     0.000329435204     1.007825032230
         H           -1.327460151568    -1.348230718266    -0.881063564796     1.007825032230

  Basis Set: AUG-CC-PVTZ
    Blend: AUG-CC-PVTZ
  Basis Set: (AUG-CC-PVTZ AUX)
    Blend: AUG-CC-PVTZ-JKFIT
	 Reference Energy          =    -191.9839239485789619 [Eh]
	 Singles Energy            =      -0.0000000000000000 [Eh]
	 Same-Spin Energy          =      -0.1903950524679041 [Eh]
	 Opposite-Spin Energy      =      -0.6423817298603243 [Eh]
	 Correlation Energy        =      -0.8327767823282284 [Eh]
	 Total Energy              =    -192.8167007309072005 [Eh]

	 ================> DF-SCS-MP2 Energies <==================
	-----------------------------------------------------------
	 SCS Same-Spin Scale       =       0.3333333333333333 [-]
	 SCS Opposite-Spin Scale   =       1.2000000000000000 [-]
	 SCS Same-Spin Energy      =      -0.0634650174893013 [Eh]
	 SCS Opposite-Spin Energy  =      -0.7708580758323891 [Eh]
	 SCS Correlation Energy    =      -0.8343230933216904 [Eh]
	 SCS Total Energy          =    -192.8182470419006620 [Eh]
	-----------------------------------------------------------

  Dipole Moment: [D]
     X:     0.3314      Y:    -3.1072      Z:    -0.0002     Total:     3.1248

*** Psi4 exiting successfully. Buy a developer a beer!
