                               Psi4 1.4a3.dev225

  ==> Input File <==

--------------------------------------------------------------------------
#psi4
#
memory 32 gb

molecule  {
0 1
  O        0.0000000     1.4067160     0.0000000
  C        0.0000000     0.1791110     0.0000000
  C       -1.3042595    -0.6274048     0.0000000
  C        1.2872490    -0.6168860     0.0000000
  H       -1.3336080    -1.2647610    -0.8814040
  H       -1.3336090    -1.2647590     0.8814050
  H       -2.1366480     0.0666380    -0.0000020
  H        1.3336080    -1.2647610    -0.8814040
  H        2.1366480     0.0666370    -0.0000010
  H        1.3336080    -1.2647590     0.8814050
units angstrom
no_reorient  #important for SAPT in psi4, default
symmetry c1  #important for SAPT in psi4, default
}

set PROPERTIES_ORIGIN ["COM"]
properties('MP2/aug-cc-pvtz', properties = ['dipole'])
--------------------------------------------------------------------------

    Molecular point group: c1
  Charge       = 0
  Multiplicity = 1
  Basis Set: AUG-CC-PVTZ
    Blend: AUG-CC-PVTZ
  Basis Set: (AUG-CC-PVTZ AUX)
    Blend: AUG-CC-PVTZ-JKFIT

    Orbital Energies [Eh]
    ---------------------

    Doubly Occupied:

       1A    -20.546768     2A    -11.337124     3A    -11.238136
       4A    -11.237150     5A     -1.376129     6A     -1.041249
       7A     -0.968035     8A     -0.741296     9A     -0.641464
      10A     -0.634280    11A     -0.623220    12A     -0.563451
      13A     -0.562251    14A     -0.537820    15A     -0.485527
      16A     -0.414241

  @DF-RHF Final Energy:  -192.03419227569006

   => Energetics <=

    Nuclear Repulsion Energy =            118.7586769929370547
    One-Electron Energy =                -495.6894573000342348
    Two-Electron Energy =                 184.8965880314071057
    Total Energy =                       -192.0341922756900601
  Basis Set: (AUG-CC-PVTZ AUX)
    Blend: AUG-CC-PVTZ-RI
    Molecular point group: c1

    Geometry (in Angstrom), charge = 0, multiplicity = 1:

       Center              X                  Y                   Z               Mass
    ------------   -----------------  -----------------  -----------------  -----------------
         O            0.003516892651     1.324812438503     0.000000017364    15.994914619570
         C            0.003516892651     0.097207438503     0.000000017364    12.000000000000
         C           -1.300742607349    -0.709308361497     0.000000017364    12.000000000000
         C            1.290765892651    -0.698789561497     0.000000017364    12.000000000000
         H           -1.330091107349    -1.346664561497    -0.881403982636     1.007825032230
         H           -1.330092107349    -1.346662561497     0.881405017364     1.007825032230
         H           -2.133131107349    -0.015265561497    -0.000001982636     1.007825032230
         H            1.337124892651    -1.346664561497    -0.881403982636     1.007825032230
         H            2.140164892651    -0.015266561497    -0.000000982636     1.007825032230
         H            1.337124892651    -1.346662561497     0.881405017364     1.007825032230

  Basis Set: AUG-CC-PVTZ
    Blend: AUG-CC-PVTZ
  Basis Set: (AUG-CC-PVTZ AUX)
    Blend: AUG-CC-PVTZ-JKFIT
	 Reference Energy          =    -192.0341922756900601 [Eh]
	 Singles Energy            =      -0.0000000000000000 [Eh]
	 Same-Spin Energy          =      -0.1872581656959682 [Eh]
	 Opposite-Spin Energy      =      -0.6380893888441762 [Eh]
	 Correlation Energy        =      -0.8253475545401444 [Eh]
	 Total Energy              =    -192.8595398302302044 [Eh]

	 ================> DF-SCS-MP2 Energies <==================
	-----------------------------------------------------------
	 SCS Same-Spin Scale       =       0.3333333333333333 [-]
	 SCS Opposite-Spin Scale   =       1.2000000000000000 [-]
	 SCS Same-Spin Energy      =      -0.0624193885653227 [Eh]
	 SCS Opposite-Spin Energy  =      -0.7657072666130115 [Eh]
	 SCS Correlation Energy    =      -0.8281266551783342 [Eh]
	 SCS Total Energy          =    -192.8623189308683834 [Eh]
	-----------------------------------------------------------

  Dipole Moment: [D]
     X:     0.0317      Y:    -2.9764      Z:    -0.0000     Total:     2.9765

*** Psi4 exiting successfully. Buy a developer a beer!
