                               Psi4 1.3.2 release

  ==> Input File <==

--------------------------------------------------------------------------
#psi4
#
memory 32 gb

molecule  {
0 1
  O        0.0267460     1.3979150     0.0001110
  C       -0.0054050     0.1710240    -0.0004320
  C        1.2809990    -0.6351670     0.0000570
  C       -1.3071510    -0.5956450     0.0000600
  H        1.1065290    -1.7126840     0.0002500
  H        1.8687580    -0.3632970    -0.8809030
  H        1.8683850    -0.3629330     0.8811560
  H       -1.3615300    -1.2438660     0.8812950
  H       -2.1446900     0.1021110     0.0002990
  H       -1.3620790    -1.2439230    -0.8810940
units angstrom
no_reorient  #important for SAPT in psi4, default
symmetry c1  #important for SAPT in psi4, default
}

set PROPERTIES_ORIGIN ["COM"]
properties('MP2/aug-cc-pvtz', properties = ['dipole'])
--------------------------------------------------------------------------

    Molecular point group: c1
  Charge       = 0
  Multiplicity = 1
  Basis Set: AUG-CC-PVTZ
    Blend: AUG-CC-PVTZ
  Basis Set: (AUG-CC-PVTZ AUX)
    Blend: AUG-CC-PVTZ-JKFIT

    Orbital Energies [Eh]
    ---------------------

    Doubly Occupied:

       1A    -20.543953     2A    -11.336687     3A    -11.238815
       4A    -11.237243     5A     -1.375517     6A     -1.041763
       7A     -0.969102     8A     -0.742089     9A     -0.641157
      10A     -0.635655    11A     -0.620203    12A     -0.565330
      13A     -0.563284    14A     -0.536422    15A     -0.480175
      16A     -0.414789

  @DF-RHF Final Energy:  -192.03332180389938

   => Energetics <=

    Nuclear Repulsion Energy =            118.9694310959317392
    One-Electron Energy =                -496.1211347348208847
    Two-Electron Energy =                 185.1183818349897763
    Total Energy =                       -192.0333218038993834
  Basis Set: (AUG-CC-PVTZ AUX)
    Blend: AUG-CC-PVTZ-RI
    Molecular point group: c1

    Geometry (in Angstrom), charge = 0, multiplicity = 1:

       Center              X                  Y                   Z               Mass
    ------------   -----------------  -----------------  -----------------  -----------------
         O            0.026327400780     1.315565294354     0.000128120676    15.994914619570
         C           -0.005823599220     0.088674294354    -0.000414879324    12.000000000000
         C            1.280580400780    -0.717516705646     0.000074120676    12.000000000000
         C           -1.307569599220    -0.677994705646     0.000077120676    12.000000000000
         H            1.106110400780    -1.795033705646     0.000267120676     1.007825032230
         H            1.868339400780    -0.445646705646    -0.880885879324     1.007825032230
         H            1.867966400780    -0.445282705646     0.881173120676     1.007825032230
         H           -1.361948599220    -1.326215705646     0.881312120676     1.007825032230
         H           -2.145108599220     0.019761294354     0.000316120676     1.007825032230
         H           -1.362497599220    -1.326272705646    -0.881076879324     1.007825032230

  Basis Set: AUG-CC-PVTZ
    Blend: AUG-CC-PVTZ
  Basis Set: (AUG-CC-PVTZ AUX)
    Blend: AUG-CC-PVTZ-JKFIT
	 Reference Energy          =    -192.0333218038993834 [Eh]
	 Singles Energy            =      -0.0000000000000000 [Eh]
	 Same-Spin Energy          =      -0.1873841393946550 [Eh]
	 Opposite-Spin Energy      =      -0.6384216842272605 [Eh]
	 Correlation Energy        =      -0.8258058236219156 [Eh]
	 Total Energy              =    -192.8591276275213033 [Eh]

	 ================> DF-SCS-MP2 Energies <==================
	-----------------------------------------------------------
	 SCS Same-Spin Scale       =       0.3333333333333333 [-]
	 SCS Opposite-Spin Scale   =       1.2000000000000000 [-]
	 SCS Same-Spin Energy      =      -0.0624613797982183 [Eh]
	 SCS Opposite-Spin Energy  =      -0.7661060210727126 [Eh]
	 SCS Correlation Energy    =      -0.8285674008709309 [Eh]
	 SCS Total Energy          =    -192.8618892047703071 [Eh]
	-----------------------------------------------------------

  Dipole Moment: [D]
     X:    -0.0487      Y:    -2.9425      Z:    -0.0002     Total:     2.9429

*** Psi4 exiting successfully. Buy a developer a beer!
