                               Psi4 1.3.2 release

  ==> Input File <==

--------------------------------------------------------------------------
#psi4
#
memory 32 gb

molecule  {
0 1
  O        0.0267460     1.3979150     0.0001110
  C       -0.0001657     0.3709553    -0.0003435
  C        1.2809990    -0.6351670     0.0000570
  C       -1.3071510    -0.5956450     0.0000600
  H        1.1065290    -1.7126840     0.0002500
  H        1.8687580    -0.3632970    -0.8809030
  H        1.8683850    -0.3629330     0.8811560
  H       -1.3615300    -1.2438660     0.8812950
  H       -2.1446900     0.1021110     0.0002990
  H       -1.3620790    -1.2439230    -0.8810940
units angstrom
no_reorient  #important for SAPT in psi4, default
symmetry c1  #important for SAPT in psi4, default
}

set PROPERTIES_ORIGIN ["COM"]
properties('MP2/aug-cc-pvtz', properties = ['dipole'])
--------------------------------------------------------------------------

    Molecular point group: c1
  Charge       = 0
  Multiplicity = 1
  Basis Set: AUG-CC-PVTZ
    Blend: AUG-CC-PVTZ
  Basis Set: (AUG-CC-PVTZ AUX)
    Blend: AUG-CC-PVTZ-JKFIT

    Orbital Energies [Eh]
    ---------------------

    Doubly Occupied:

       1A    -20.564793     2A    -11.323209     3A    -11.224209
       4A    -11.221754     5A     -1.538825     6A     -1.000483
       7A     -0.942115     8A     -0.749405     9A     -0.691307
      10A     -0.654976    11A     -0.646932    12A     -0.576715
      13A     -0.549499    14A     -0.543090    15A     -0.529657
      16A     -0.362047

  @DF-RHF Final Energy:  -191.96057092258789

   => Energetics <=

    Nuclear Repulsion Energy =            120.8801046964954793
    One-Electron Energy =                -499.4433191971733663
    Two-Electron Energy =                 186.6026435780899817
    Total Energy =                       -191.9605709225878911
  Basis Set: (AUG-CC-PVTZ AUX)
    Blend: AUG-CC-PVTZ-RI
    Molecular point group: c1

    Geometry (in Angstrom), charge = 0, multiplicity = 1:

       Center              X                  Y                   Z               Mass
    ------------   -----------------  -----------------  -----------------  -----------------
         O            0.025244189546     1.274230033887     0.000109823538    15.994914619570
         C           -0.001667510454     0.247270333887    -0.000344676462    12.000000000000
         C            1.279497189546    -0.758851966113     0.000055823538    12.000000000000
         C           -1.308652810454    -0.719329966113     0.000058823538    12.000000000000
         H            1.105027189546    -1.836368966113     0.000248823538     1.007825032230
         H            1.867256189546    -0.486981966113    -0.880904176462     1.007825032230
         H            1.866883189546    -0.486617966113     0.881154823538     1.007825032230
         H           -1.363031810454    -1.367550966113     0.881293823538     1.007825032230
         H           -2.146191810454    -0.021573966113     0.000297823538     1.007825032230
         H           -1.363580810454    -1.367607966113    -0.881095176462     1.007825032230

  Basis Set: AUG-CC-PVTZ
    Blend: AUG-CC-PVTZ
  Basis Set: (AUG-CC-PVTZ AUX)
    Blend: AUG-CC-PVTZ-JKFIT
	 Reference Energy          =    -191.9605709225878911 [Eh]
	 Singles Energy            =      -0.0000000000000000 [Eh]
	 Same-Spin Energy          =      -0.1833470594784173 [Eh]
	 Opposite-Spin Energy      =      -0.6296022377570119 [Eh]
	 Correlation Energy        =      -0.8129492972354291 [Eh]
	 Total Energy              =    -192.7735202198233253 [Eh]

	 ================> DF-SCS-MP2 Energies <==================
	-----------------------------------------------------------
	 SCS Same-Spin Scale       =       0.3333333333333333 [-]
	 SCS Opposite-Spin Scale   =       1.2000000000000000 [-]
	 SCS Same-Spin Energy      =      -0.0611156864928057 [Eh]
	 SCS Opposite-Spin Energy  =      -0.7555226853084142 [Eh]
	 SCS Correlation Energy    =      -0.8166383718012199 [Eh]
	 SCS Total Energy          =    -192.7772092943891096 [Eh]
	-----------------------------------------------------------

  Dipole Moment: [D]
     X:    -0.0358      Y:    -1.6170      Z:    -0.0004     Total:     1.6174

*** Psi4 exiting successfully. Buy a developer a beer!
