                               Psi4 1.3.2 release

  ==> Input File <==

--------------------------------------------------------------------------
#psi4
#
memory 32 gb

molecule  {
0 1
  O       -0.0160915     1.3982897     0.0001390
  C       -0.0054050     0.1710240    -0.0004320
  C        1.2809990    -0.6351670     0.0000570
  C       -1.3071510    -0.5956450     0.0000600
  H        1.1065290    -1.7126840     0.0002500
  H        1.8687580    -0.3632970    -0.8809030
  H        1.8683850    -0.3629330     0.8811560
  H       -1.3615300    -1.2438660     0.8812950
  H       -2.1446900     0.1021110     0.0002990
  H       -1.3620790    -1.2439230    -0.8810940
units angstrom
no_reorient  #important for SAPT in psi4, default
symmetry c1  #important for SAPT in psi4, default
}

set PROPERTIES_ORIGIN ["COM"]
properties('MP2/aug-cc-pvtz', properties = ['dipole'])
--------------------------------------------------------------------------

    Molecular point group: c1
  Charge       = 0
  Multiplicity = 1
  Basis Set: AUG-CC-PVTZ
    Blend: AUG-CC-PVTZ
  Basis Set: (AUG-CC-PVTZ AUX)
    Blend: AUG-CC-PVTZ-JKFIT

    Orbital Energies [Eh]
    ---------------------

    Doubly Occupied:

       1A    -20.543903     2A    -11.336619     3A    -11.239357
       4A    -11.236634     5A     -1.375519     6A     -1.041705
       7A     -0.969130     8A     -0.742098     9A     -0.641468
      10A     -0.635293    11A     -0.620112    12A     -0.565246
      13A     -0.563556    14A     -0.536169    15A     -0.480337
      16A     -0.414581

  @DF-RHF Final Energy:  -192.03306159299140

   => Energetics <=

    Nuclear Repulsion Energy =            118.9722210049224884
    One-Electron Energy =                -496.1271126825425313
    Two-Electron Energy =                 185.1218300846286695
    Total Energy =                       -192.0330615929914018
  Basis Set: (AUG-CC-PVTZ AUX)
    Blend: AUG-CC-PVTZ-RI
    Molecular point group: c1

    Geometry (in Angstrom), charge = 0, multiplicity = 1:

       Center              X                  Y                   Z               Mass
    ------------   -----------------  -----------------  -----------------  -----------------
         O           -0.004705134696     1.315836736222     0.000148404563    15.994914619570
         C            0.005981365304     0.088571036222    -0.000422595437    12.000000000000
         C            1.292385365304    -0.717619963778     0.000066404563    12.000000000000
         C           -1.295764634696    -0.678097963778     0.000069404563    12.000000000000
         H            1.117915365304    -1.795136963778     0.000259404563     1.007825032230
         H            1.880144365304    -0.445749963778    -0.880893595437     1.007825032230
         H            1.879771365304    -0.445385963778     0.881165404563     1.007825032230
         H           -1.350143634696    -1.326318963778     0.881304404563     1.007825032230
         H           -2.133303634696     0.019658036222     0.000308404563     1.007825032230
         H           -1.350692634696    -1.326375963778    -0.881084595437     1.007825032230

  Basis Set: AUG-CC-PVTZ
    Blend: AUG-CC-PVTZ
  Basis Set: (AUG-CC-PVTZ AUX)
    Blend: AUG-CC-PVTZ-JKFIT
	 Reference Energy          =    -192.0330615929914018 [Eh]
	 Singles Energy            =      -0.0000000000000000 [Eh]
	 Same-Spin Energy          =      -0.1873926809986404 [Eh]
	 Opposite-Spin Energy      =      -0.6384223633437722 [Eh]
	 Correlation Energy        =      -0.8258150443424126 [Eh]
	 Total Energy              =    -192.8588766373338217 [Eh]

	 ================> DF-SCS-MP2 Energies <==================
	-----------------------------------------------------------
	 SCS Same-Spin Scale       =       0.3333333333333333 [-]
	 SCS Opposite-Spin Scale   =       1.2000000000000000 [-]
	 SCS Same-Spin Energy      =      -0.0624642269995468 [Eh]
	 SCS Opposite-Spin Energy  =      -0.7661068360125266 [Eh]
	 SCS Correlation Energy    =      -0.8285710630120734 [Eh]
	 SCS Total Energy          =    -192.8616326560034793 [Eh]
	-----------------------------------------------------------

  Dipole Moment: [D]
     X:     0.0724      Y:    -2.9438      Z:    -0.0003     Total:     2.9446

*** Psi4 exiting successfully. Buy a developer a beer!
