                               Psi4 1.3.2 release

  ==> Input File <==

--------------------------------------------------------------------------
#psi4
#
memory 32 gb

molecule  {
0 1
  O        0.0267460     1.3979150     0.0001110
  C       -0.0054050     0.1710240    -0.0004320
  C        1.3083510    -0.5897810     0.0000284
  C       -1.3071510    -0.5956450     0.0000600
  H        1.1065290    -1.7126840     0.0002500
  H        1.8687580    -0.3632970    -0.8809030
  H        1.8683850    -0.3629330     0.8811560
  H       -1.3615300    -1.2438660     0.8812950
  H       -2.1446900     0.1021110     0.0002990
  H       -1.3620790    -1.2439230    -0.8810940
units angstrom
no_reorient  #important for SAPT in psi4, default
symmetry c1  #important for SAPT in psi4, default
}

set PROPERTIES_ORIGIN ["COM"]
properties('MP2/aug-cc-pvtz', properties = ['dipole'])
--------------------------------------------------------------------------

    Molecular point group: c1
  Charge       = 0
  Multiplicity = 1
  Basis Set: AUG-CC-PVTZ
    Blend: AUG-CC-PVTZ
  Basis Set: (AUG-CC-PVTZ AUX)
    Blend: AUG-CC-PVTZ-JKFIT

    Orbital Energies [Eh]
    ---------------------

    Doubly Occupied:

       1A    -20.543429     2A    -11.336089     3A    -11.240101
       4A    -11.236961     5A     -1.375847     6A     -1.039834
       7A     -0.970804     8A     -0.742364     9A     -0.640776
      10A     -0.632858    11A     -0.625922    12A     -0.573323
      13A     -0.555400    14A     -0.532500    15A     -0.481646
      16A     -0.414683

  @DF-RHF Final Energy:  -192.03062108466770

   => Energetics <=

    Nuclear Repulsion Energy =            118.9785873079321163
    One-Electron Energy =                -496.1333442040121895
    Two-Electron Energy =                 185.1241358114123727
    Total Energy =                       -192.0306210846677004
  Basis Set: (AUG-CC-PVTZ AUX)
    Blend: AUG-CC-PVTZ-RI
    Molecular point group: c1

    Geometry (in Angstrom), charge = 0, multiplicity = 1:

       Center              X                  Y                   Z               Mass
    ------------   -----------------  -----------------  -----------------  -----------------
         O            0.020672448082     1.306181860486     0.000134033649    15.994914619570
         C           -0.011478551918     0.079290860486    -0.000408966351    12.000000000000
         C            1.302277448082    -0.681514139514     0.000051433649    12.000000000000
         C           -1.313224551918    -0.687378139514     0.000083033649    12.000000000000
         H            1.100455448082    -1.804417139514     0.000273033649     1.007825032230
         H            1.862684448082    -0.455030139514    -0.880879966351     1.007825032230
         H            1.862311448082    -0.454666139514     0.881179033649     1.007825032230
         H           -1.367603551918    -1.335599139514     0.881318033649     1.007825032230
         H           -2.150763551918     0.010377860486     0.000322033649     1.007825032230
         H           -1.368152551918    -1.335656139514    -0.881070966351     1.007825032230

  Basis Set: AUG-CC-PVTZ
    Blend: AUG-CC-PVTZ
  Basis Set: (AUG-CC-PVTZ AUX)
    Blend: AUG-CC-PVTZ-JKFIT
	 Reference Energy          =    -192.0306210846677004 [Eh]
	 Singles Energy            =      -0.0000000000000000 [Eh]
	 Same-Spin Energy          =      -0.1872531414053114 [Eh]
	 Opposite-Spin Energy      =      -0.6384656582370785 [Eh]
	 Correlation Energy        =      -0.8257187996423898 [Eh]
	 Total Energy              =    -192.8563398843101027 [Eh]

	 ================> DF-SCS-MP2 Energies <==================
	-----------------------------------------------------------
	 SCS Same-Spin Scale       =       0.3333333333333333 [-]
	 SCS Opposite-Spin Scale   =       1.2000000000000000 [-]
	 SCS Same-Spin Energy      =      -0.0624177138017705 [Eh]
	 SCS Opposite-Spin Energy  =      -0.7661587898844942 [Eh]
	 SCS Correlation Energy    =      -0.8285765036862647 [Eh]
	 SCS Total Energy          =    -192.8591975883539646 [Eh]
	-----------------------------------------------------------

  Dipole Moment: [D]
     X:    -0.0812      Y:    -2.9086      Z:    -0.0003     Total:     2.9098

*** Psi4 exiting successfully. Buy a developer a beer!
