                               Psi4 1.4a3.dev225

  ==> Input File <==

--------------------------------------------------------------------------
#psi4
#
memory 32 gb

molecule  {
0 1
  O        0.0000000     1.4067160     0.0000000
  C        0.0000000     0.1791110     0.0000000
  C       -1.2447229    -0.5905891     0.0000000
  C        1.2872490    -0.6168860     0.0000000
  H       -1.3336080    -1.2647610    -0.8814040
  H       -1.3336090    -1.2647590     0.8814050
  H       -2.1366480     0.0666380    -0.0000020
  H        1.3336080    -1.2647610    -0.8814040
  H        2.1366480     0.0666370    -0.0000010
  H        1.3336080    -1.2647590     0.8814050
units angstrom
no_reorient  #important for SAPT in psi4, default
symmetry c1  #important for SAPT in psi4, default
}

set PROPERTIES_ORIGIN ["COM"]
properties('MP2/aug-cc-pvtz', properties = ['dipole'])
--------------------------------------------------------------------------

    Molecular point group: c1
  Charge       = 0
  Multiplicity = 1
  Basis Set: AUG-CC-PVTZ
    Blend: AUG-CC-PVTZ
  Basis Set: (AUG-CC-PVTZ AUX)
    Blend: AUG-CC-PVTZ-JKFIT

    Orbital Energies [Eh]
    ---------------------

    Doubly Occupied:

       1A    -20.545303     2A    -11.333386     3A    -11.240145
       4A    -11.237224     5A     -1.376859     6A     -1.049424
       7A     -0.968499     8A     -0.745256     9A     -0.647460
      10A     -0.636557    11A     -0.622892    12A     -0.559846
      13A     -0.556214    14A     -0.530800    15A     -0.481451
      16A     -0.420296

  @DF-RHF Final Energy:  -192.03165523209009

   => Energetics <=

    Nuclear Repulsion Energy =            119.6648533343611831
    One-Electron Energy =                -497.4897968957086505
    Two-Electron Energy =                 185.7932883292573933
    Total Energy =                       -192.0316552320900882
  Basis Set: (AUG-CC-PVTZ AUX)
    Blend: AUG-CC-PVTZ-RI
    Molecular point group: c1

    Geometry (in Angstrom), charge = 0, multiplicity = 1:

       Center              X                  Y                   Z               Mass
    ------------   -----------------  -----------------  -----------------  -----------------
         O           -0.008792139843     1.317200891193     0.000000017364    15.994914619570
         C           -0.008792139843     0.089595891193     0.000000017364    12.000000000000
         C           -1.253515039843    -0.680104208807     0.000000017364    12.000000000000
         C            1.278456860157    -0.706401108807     0.000000017364    12.000000000000
         H           -1.342400139843    -1.354276108807    -0.881403982636     1.007825032230
         H           -1.342401139843    -1.354274108807     0.881405017364     1.007825032230
         H           -2.145440139843    -0.022877108807    -0.000001982636     1.007825032230
         H            1.324815860157    -1.354276108807    -0.881403982636     1.007825032230
         H            2.127855860157    -0.022878108807    -0.000000982636     1.007825032230
         H            1.324815860157    -1.354274108807     0.881405017364     1.007825032230

  Basis Set: AUG-CC-PVTZ
    Blend: AUG-CC-PVTZ
  Basis Set: (AUG-CC-PVTZ AUX)
    Blend: AUG-CC-PVTZ-JKFIT
	 Reference Energy          =    -192.0316552320900882 [Eh]
	 Singles Energy            =      -0.0000000000000000 [Eh]
	 Same-Spin Energy          =      -0.1877435872114767 [Eh]
	 Opposite-Spin Energy      =      -0.6385205130382479 [Eh]
	 Correlation Energy        =      -0.8262641002497246 [Eh]
	 Total Energy              =    -192.8579193323398044 [Eh]

	 ================> DF-SCS-MP2 Energies <==================
	-----------------------------------------------------------
	 SCS Same-Spin Scale       =       0.3333333333333333 [-]
	 SCS Opposite-Spin Scale   =       1.2000000000000000 [-]
	 SCS Same-Spin Energy      =      -0.0625811957371589 [Eh]
	 SCS Opposite-Spin Energy  =      -0.7662246156458974 [Eh]
	 SCS Correlation Energy    =      -0.8288058113830563 [Eh]
	 SCS Total Energy          =    -192.8604610434731512 [Eh]
	-----------------------------------------------------------

  Dipole Moment: [D]
     X:    -0.0796      Y:    -3.0528      Z:    -0.0000     Total:     3.0538

*** Psi4 exiting successfully. Buy a developer a beer!
