                               Psi4 1.3.2 release

  ==> Input File <==

--------------------------------------------------------------------------
#psi4
#
memory 32 gb

molecule  {
0 1
  O        0.0267460     1.3979150     0.0001110
  C       -0.0054050     0.1710240    -0.0004320
  C        1.2520797    -0.6795707     0.0000850
  C       -1.3071510    -0.5956450     0.0000600
  H        1.1065290    -1.7126840     0.0002500
  H        1.8687580    -0.3632970    -0.8809030
  H        1.8683850    -0.3629330     0.8811560
  H       -1.3615300    -1.2438660     0.8812950
  H       -2.1446900     0.1021110     0.0002990
  H       -1.3620790    -1.2439230    -0.8810940
units angstrom
no_reorient  #important for SAPT in psi4, default
symmetry c1  #important for SAPT in psi4, default
}

set PROPERTIES_ORIGIN ["COM"]
properties('MP2/aug-cc-pvtz', properties = ['dipole'])
--------------------------------------------------------------------------

    Molecular point group: c1
  Charge       = 0
  Multiplicity = 1
  Basis Set: AUG-CC-PVTZ
    Blend: AUG-CC-PVTZ
  Basis Set: (AUG-CC-PVTZ AUX)
    Blend: AUG-CC-PVTZ-JKFIT

    Orbital Energies [Eh]
    ---------------------

    Doubly Occupied:

       1A    -20.544694     2A    -11.337756     3A    -11.238475
       4A    -11.237609     5A     -1.375488     6A     -1.044110
       7A     -0.967787     8A     -0.743127     9A     -0.646042
      10A     -0.636038    11A     -0.616154    12A     -0.572493
      13A     -0.556396    14A     -0.536024    15A     -0.478346
      16A     -0.414665

  @DF-RHF Final Energy:  -192.02971382123701

   => Energetics <=

    Nuclear Repulsion Energy =            118.9728680457523353
    One-Electron Energy =                -496.1147548150583475
    Two-Electron Energy =                 185.1121729480689737
    Total Energy =                       -192.0297138212370101
  Basis Set: (AUG-CC-PVTZ AUX)
    Blend: AUG-CC-PVTZ-RI
    Molecular point group: c1

    Geometry (in Angstrom), charge = 0, multiplicity = 1:

       Center              X                  Y                   Z               Mass
    ------------   -----------------  -----------------  -----------------  -----------------
         O            0.032306388552     1.324745640328     0.000122331751    15.994914619570
         C            0.000155388552     0.097854640328    -0.000420668249    12.000000000000
         C            1.257640088552    -0.752740059672     0.000096331751    12.000000000000
         C           -1.301590611448    -0.668814359672     0.000071331751    12.000000000000
         H            1.112089388552    -1.785853359672     0.000261331751     1.007825032230
         H            1.874318388552    -0.436466359672    -0.880891668249     1.007825032230
         H            1.873945388552    -0.436102359672     0.881167331751     1.007825032230
         H           -1.355969611448    -1.317035359672     0.881306331751     1.007825032230
         H           -2.139129611448     0.028941640328     0.000310331751     1.007825032230
         H           -1.356518611448    -1.317092359672    -0.881082668249     1.007825032230

  Basis Set: AUG-CC-PVTZ
    Blend: AUG-CC-PVTZ
  Basis Set: (AUG-CC-PVTZ AUX)
    Blend: AUG-CC-PVTZ-JKFIT
	 Reference Energy          =    -192.0297138212370101 [Eh]
	 Singles Energy            =      -0.0000000000000000 [Eh]
	 Same-Spin Energy          =      -0.1876188839546561 [Eh]
	 Opposite-Spin Energy      =      -0.6386601691085519 [Eh]
	 Correlation Energy        =      -0.8262790530632080 [Eh]
	 Total Energy              =    -192.8559928743002274 [Eh]

	 ================> DF-SCS-MP2 Energies <==================
	-----------------------------------------------------------
	 SCS Same-Spin Scale       =       0.3333333333333333 [-]
	 SCS Opposite-Spin Scale   =       1.2000000000000000 [-]
	 SCS Same-Spin Energy      =      -0.0625396279848854 [Eh]
	 SCS Opposite-Spin Energy  =      -0.7663922029302623 [Eh]
	 SCS Correlation Energy    =      -0.8289318309151477 [Eh]
	 SCS Total Energy          =    -192.8586456521521484 [Eh]
	-----------------------------------------------------------

  Dipole Moment: [D]
     X:    -0.0184      Y:    -2.9656      Z:    -0.0002     Total:     2.9656

*** Psi4 exiting successfully. Buy a developer a beer!
