                               Psi4 1.4a3.dev225

  ==> Input File <==

--------------------------------------------------------------------------
#psi4
#
memory 32 gb

molecule  {
0 1
  O        0.0000000     1.4067160     0.0000000
  C        0.0000000     0.1291110     0.0000000
  C       -1.2872490    -0.6168860     0.0000000
  C        1.2872490    -0.6168860     0.0000000
  H       -1.3336080    -1.2647610    -0.8814040
  H       -1.3336090    -1.2647590     0.8814050
  H       -2.1366480     0.0666380    -0.0000020
  H        1.3336080    -1.2647610    -0.8814040
  H        2.1366480     0.0666370    -0.0000010
  H        1.3336080    -1.2647590     0.8814050
units angstrom
no_reorient  #important for SAPT in psi4, default
symmetry c1  #important for SAPT in psi4, default
}

set PROPERTIES_ORIGIN ["COM"]
properties('MP2/aug-cc-pvtz', properties = ['dipole'])
--------------------------------------------------------------------------

    Molecular point group: c1
  Charge       = 0
  Multiplicity = 1
  Basis Set: AUG-CC-PVTZ
    Blend: AUG-CC-PVTZ
  Basis Set: (AUG-CC-PVTZ AUX)
    Blend: AUG-CC-PVTZ-JKFIT

    Orbital Energies [Eh]
    ---------------------

    Doubly Occupied:

       1A    -20.542143     2A    -11.340066     3A    -11.240710
       4A    -11.240689     5A     -1.344082     6A     -1.053373
       7A     -0.975778     8A     -0.744616     9A     -0.638394
      10A     -0.633644    11A     -0.625938    12A     -0.565276
      13A     -0.549599    14A     -0.542593    15A     -0.464578
      16A     -0.421271

  @DF-RHF Final Energy:  -192.02530152415284

   => Energetics <=

    Nuclear Repulsion Energy =            118.7321791514182081
    One-Electron Energy =                -495.6694612822712998
    Two-Electron Energy =                 184.9119806067002401
    Total Energy =                       -192.0253015241528374
  Basis Set: (AUG-CC-PVTZ AUX)
    Blend: AUG-CC-PVTZ-RI
    Molecular point group: c1

    Geometry (in Angstrom), charge = 0, multiplicity = 1:

       Center              X                  Y                   Z               Mass
    ------------   -----------------  -----------------  -----------------  -----------------
         O            0.000000017364     1.332975070795     0.000000017364    15.994914619570
         C            0.000000017364     0.055370070795     0.000000017364    12.000000000000
         C           -1.287248982636    -0.690626929205     0.000000017364    12.000000000000
         C            1.287249017364    -0.690626929205     0.000000017364    12.000000000000
         H           -1.333607982636    -1.338501929205    -0.881403982636     1.007825032230
         H           -1.333608982636    -1.338499929205     0.881405017364     1.007825032230
         H           -2.136647982636    -0.007102929205    -0.000001982636     1.007825032230
         H            1.333608017364    -1.338501929205    -0.881403982636     1.007825032230
         H            2.136648017364    -0.007103929205    -0.000000982636     1.007825032230
         H            1.333608017364    -1.338499929205     0.881405017364     1.007825032230

  Basis Set: AUG-CC-PVTZ
    Blend: AUG-CC-PVTZ
  Basis Set: (AUG-CC-PVTZ AUX)
    Blend: AUG-CC-PVTZ-JKFIT
	 Reference Energy          =    -192.0253015241528374 [Eh]
	 Singles Energy            =      -0.0000000000000000 [Eh]
	 Same-Spin Energy          =      -0.1889365338346183 [Eh]
	 Opposite-Spin Energy      =      -0.6412560075366283 [Eh]
	 Correlation Energy        =      -0.8301925413712465 [Eh]
	 Total Energy              =    -192.8554940655240841 [Eh]

	 ================> DF-SCS-MP2 Energies <==================
	-----------------------------------------------------------
	 SCS Same-Spin Scale       =       0.3333333333333333 [-]
	 SCS Opposite-Spin Scale   =       1.2000000000000000 [-]
	 SCS Same-Spin Energy      =      -0.0629788446115394 [Eh]
	 SCS Opposite-Spin Energy  =      -0.7695072090439539 [Eh]
	 SCS Correlation Energy    =      -0.8324860536554933 [Eh]
	 SCS Total Energy          =    -192.8577875778083239 [Eh]
	-----------------------------------------------------------

  Dipole Moment: [D]
     X:     0.0000      Y:    -3.2270      Z:    -0.0000     Total:     3.2270

*** Psi4 exiting successfully. Buy a developer a beer!
