                               Psi4 1.4a3.dev225

  ==> Input File <==

--------------------------------------------------------------------------
#psi4
#
memory 32 gb

molecule  {
0 1
  O        0.0000000     1.4067160     0.0000000
  C        0.0000000     0.2291110     0.0000000
  C       -1.2872490    -0.6168860     0.0000000
  C        1.2872490    -0.6168860     0.0000000
  H       -1.3336080    -1.2647610    -0.8814040
  H       -1.3336090    -1.2647590     0.8814050
  H       -2.1366480     0.0666380    -0.0000020
  H        1.3336080    -1.2647610    -0.8814040
  H        2.1366480     0.0666370    -0.0000010
  H        1.3336080    -1.2647590     0.8814050
units angstrom
no_reorient  #important for SAPT in psi4, default
symmetry c1  #important for SAPT in psi4, default
}

set PROPERTIES_ORIGIN ["COM"]
properties('MP2/aug-cc-pvtz', properties = ['dipole'])
--------------------------------------------------------------------------

    Molecular point group: c1
  Charge       = 0
  Multiplicity = 1
  Basis Set: AUG-CC-PVTZ
    Blend: AUG-CC-PVTZ
  Basis Set: (AUG-CC-PVTZ AUX)
    Blend: AUG-CC-PVTZ-JKFIT

    Orbital Energies [Eh]
    ---------------------

    Doubly Occupied:

       1A    -20.550542     2A    -11.332340     3A    -11.234793
       4A    -11.234772     5A     -1.412053     6A     -1.033034
       7A     -0.960822     8A     -0.741024     9A     -0.650068
      10A     -0.637849    11A     -0.622023    12A     -0.569004
      13A     -0.557328    14A     -0.532904    15A     -0.505182
      16A     -0.407147

  @DF-RHF Final Energy:  -192.03531195805240

   => Energetics <=

    Nuclear Repulsion Energy =            119.3557153927472143
    One-Electron Energy =                -496.8202883777473176
    Two-Electron Energy =                 185.4292610269477279
    Total Energy =                       -192.0353119580524037
  Basis Set: (AUG-CC-PVTZ AUX)
    Blend: AUG-CC-PVTZ-RI
    Molecular point group: c1

    Geometry (in Angstrom), charge = 0, multiplicity = 1:

       Center              X                  Y                   Z               Mass
    ------------   -----------------  -----------------  -----------------  -----------------
         O            0.000000017364     1.312300338791     0.000000017364    15.994914619570
         C            0.000000017364     0.134695338791     0.000000017364    12.000000000000
         C           -1.287248982636    -0.711301661209     0.000000017364    12.000000000000
         C            1.287249017364    -0.711301661209     0.000000017364    12.000000000000
         H           -1.333607982636    -1.359176661209    -0.881403982636     1.007825032230
         H           -1.333608982636    -1.359174661209     0.881405017364     1.007825032230
         H           -2.136647982636    -0.027777661209    -0.000001982636     1.007825032230
         H            1.333608017364    -1.359176661209    -0.881403982636     1.007825032230
         H            2.136648017364    -0.027778661209    -0.000000982636     1.007825032230
         H            1.333608017364    -1.359174661209     0.881405017364     1.007825032230

  Basis Set: AUG-CC-PVTZ
    Blend: AUG-CC-PVTZ
  Basis Set: (AUG-CC-PVTZ AUX)
    Blend: AUG-CC-PVTZ-JKFIT
	 Reference Energy          =    -192.0353119580524037 [Eh]
	 Singles Energy            =      -0.0000000000000000 [Eh]
	 Same-Spin Energy          =      -0.1860062804050761 [Eh]
	 Opposite-Spin Energy      =      -0.6354070764904955 [Eh]
	 Correlation Energy        =      -0.8214133568955717 [Eh]
	 Total Energy              =    -192.8567253149479654 [Eh]

	 ================> DF-SCS-MP2 Energies <==================
	-----------------------------------------------------------
	 SCS Same-Spin Scale       =       0.3333333333333333 [-]
	 SCS Opposite-Spin Scale   =       1.2000000000000000 [-]
	 SCS Same-Spin Energy      =      -0.0620020934683587 [Eh]
	 SCS Opposite-Spin Energy  =      -0.7624884917885947 [Eh]
	 SCS Correlation Energy    =      -0.8244905852569534 [Eh]
	 SCS Total Energy          =    -192.8598025433093710 [Eh]
	-----------------------------------------------------------

  Dipole Moment: [D]
     X:     0.0000      Y:    -2.7277      Z:    -0.0000     Total:     2.7277

*** Psi4 exiting successfully. Buy a developer a beer!
