                               Psi4 1.3.2 release

  ==> Input File <==

--------------------------------------------------------------------------
#psi4
#
memory 32 gb

molecule  {
0 1
  O        0.0267460     1.3979150     0.0001110
  C       -0.0027854     0.2709897    -0.0003878
  C        1.2809990    -0.6351670     0.0000570
  C       -1.3071510    -0.5956450     0.0000600
  H        1.1065290    -1.7126840     0.0002500
  H        1.8687580    -0.3632970    -0.8809030
  H        1.8683850    -0.3629330     0.8811560
  H       -1.3615300    -1.2438660     0.8812950
  H       -2.1446900     0.1021110     0.0002990
  H       -1.3620790    -1.2439230    -0.8810940
units angstrom
no_reorient  #important for SAPT in psi4, default
symmetry c1  #important for SAPT in psi4, default
}

set PROPERTIES_ORIGIN ["COM"]
properties('MP2/aug-cc-pvtz', properties = ['dipole'])
--------------------------------------------------------------------------

    Molecular point group: c1
  Charge       = 0
  Multiplicity = 1
  Basis Set: AUG-CC-PVTZ
    Blend: AUG-CC-PVTZ
  Basis Set: (AUG-CC-PVTZ AUX)
    Blend: AUG-CC-PVTZ-JKFIT

    Orbital Energies [Eh]
    ---------------------

    Doubly Occupied:

       1A    -20.553066     2A    -11.329170     3A    -11.232354
       4A    -11.230460     5A     -1.450711     6A     -1.021409
       7A     -0.954954     8A     -0.740757     9A     -0.658317
      10A     -0.641281    11A     -0.624318    12A     -0.576681
      13A     -0.557506    14A     -0.531261    15A     -0.518866
      16A     -0.393562

  @DF-RHF Final Energy:  -192.02469167714119

   => Energetics <=

    Nuclear Repulsion Energy =            119.7492663953670018
    One-Electron Energy =                -497.5185686352288030
    Two-Electron Energy =                 185.7446105627206236
    Total Energy =                       -192.0246916771411918
  Basis Set: (AUG-CC-PVTZ AUX)
    Blend: AUG-CC-PVTZ-RI
    Molecular point group: c1

    Geometry (in Angstrom), charge = 0, multiplicity = 1:

       Center              X                  Y                   Z               Mass
    ------------   -----------------  -----------------  -----------------  -----------------
         O            0.025785805500     1.294897653783     0.000118982445    15.994914619570
         C           -0.003745594500     0.167972353783    -0.000379817555    12.000000000000
         C            1.280038805500    -0.738184346217     0.000064982445    12.000000000000
         C           -1.308111194500    -0.698662346217     0.000067982445    12.000000000000
         H            1.105568805500    -1.815701346217     0.000257982445     1.007825032230
         H            1.867797805500    -0.466314346217    -0.880895017555     1.007825032230
         H            1.867424805500    -0.465950346217     0.881163982445     1.007825032230
         H           -1.362490194500    -1.346883346217     0.881302982445     1.007825032230
         H           -2.145650194500    -0.000906346217     0.000306982445     1.007825032230
         H           -1.363039194500    -1.346940346217    -0.881086017555     1.007825032230

  Basis Set: AUG-CC-PVTZ
    Blend: AUG-CC-PVTZ
  Basis Set: (AUG-CC-PVTZ AUX)
    Blend: AUG-CC-PVTZ-JKFIT
	 Reference Energy          =    -192.0246916771411918 [Eh]
	 Singles Energy            =      -0.0000000000000000 [Eh]
	 Same-Spin Energy          =      -0.1849539158224647 [Eh]
	 Opposite-Spin Energy      =      -0.6333389885104540 [Eh]
	 Correlation Energy        =      -0.8182929043329187 [Eh]
	 Total Energy              =    -192.8429845814740986 [Eh]

	 ================> DF-SCS-MP2 Energies <==================
	-----------------------------------------------------------
	 SCS Same-Spin Scale       =       0.3333333333333333 [-]
	 SCS Opposite-Spin Scale   =       1.2000000000000000 [-]
	 SCS Same-Spin Energy      =      -0.0616513052741549 [Eh]
	 SCS Opposite-Spin Energy  =      -0.7600067862125448 [Eh]
	 SCS Correlation Energy    =      -0.8216580914866997 [Eh]
	 SCS Total Energy          =    -192.8463497686279027 [Eh]
	-----------------------------------------------------------

  Dipole Moment: [D]
     X:    -0.0412      Y:    -2.3687      Z:    -0.0003     Total:     2.3690

*** Psi4 exiting successfully. Buy a developer a beer!
