                               Psi4 1.3.2 release

  ==> Input File <==

--------------------------------------------------------------------------
#psi4
#
memory 32 gb

molecule  {
0 1
  O        0.0267460     1.3979150     0.0001110
  C       -0.0054050     0.1710240    -0.0004320
  C        1.2948731    -0.6125934     0.0000428
  C       -1.3071510    -0.5956450     0.0000600
  H        1.1065290    -1.7126840     0.0002500
  H        1.8687580    -0.3632970    -0.8809030
  H        1.8683850    -0.3629330     0.8811560
  H       -1.3615300    -1.2438660     0.8812950
  H       -2.1446900     0.1021110     0.0002990
  H       -1.3620790    -1.2439230    -0.8810940
units angstrom
no_reorient  #important for SAPT in psi4, default
symmetry c1  #important for SAPT in psi4, default
}

set PROPERTIES_ORIGIN ["COM"]
properties('MP2/aug-cc-pvtz', properties = ['dipole'])
--------------------------------------------------------------------------

    Molecular point group: c1
  Charge       = 0
  Multiplicity = 1
  Basis Set: AUG-CC-PVTZ
    Blend: AUG-CC-PVTZ
  Basis Set: (AUG-CC-PVTZ AUX)
    Blend: AUG-CC-PVTZ-JKFIT

    Orbital Energies [Eh]
    ---------------------

    Doubly Occupied:

       1A    -20.543664     2A    -11.336329     3A    -11.239448
       4A    -11.236980     5A     -1.375643     6A     -1.040748
       7A     -0.969910     8A     -0.742096     9A     -0.640557
      10A     -0.634410    11A     -0.622839    12A     -0.569488
      13A     -0.558855    14A     -0.535261    15A     -0.480944
      16A     -0.414770

  @DF-RHF Final Energy:  -192.03270539380409

   => Energetics <=

    Nuclear Repulsion Energy =            118.9726138802584217
    One-Electron Energy =                -496.1267507332649984
    Two-Electron Energy =                 185.1214314592024550
    Total Energy =                       -192.0327053938040933
  Basis Set: (AUG-CC-PVTZ AUX)
    Blend: AUG-CC-PVTZ-RI
    Molecular point group: c1

    Geometry (in Angstrom), charge = 0, multiplicity = 1:

       Center              X                  Y                   Z               Mass
    ------------   -----------------  -----------------  -----------------  -----------------
         O            0.023458967787     1.310898263050     0.000131056488    15.994914619570
         C           -0.008692032213     0.084007263050    -0.000411943512    12.000000000000
         C            1.291586067787    -0.699610136950     0.000062856488    12.000000000000
         C           -1.310438032213    -0.682661736950     0.000080056488    12.000000000000
         H            1.103241967787    -1.799700736950     0.000270056488     1.007825032230
         H            1.865470967787    -0.450313736950    -0.880882943512     1.007825032230
         H            1.865097967787    -0.449949736950     0.881176056488     1.007825032230
         H           -1.364817032213    -1.330882736950     0.881315056488     1.007825032230
         H           -2.147977032213     0.015094263050     0.000319056488     1.007825032230
         H           -1.365366032213    -1.330939736950    -0.881073943512     1.007825032230

  Basis Set: AUG-CC-PVTZ
    Blend: AUG-CC-PVTZ
  Basis Set: (AUG-CC-PVTZ AUX)
    Blend: AUG-CC-PVTZ-JKFIT
	 Reference Energy          =    -192.0327053938040933 [Eh]
	 Singles Energy            =      -0.0000000000000000 [Eh]
	 Same-Spin Energy          =      -0.1873060510391232 [Eh]
	 Opposite-Spin Energy      =      -0.6384100786654705 [Eh]
	 Correlation Energy        =      -0.8257161297045936 [Eh]
	 Total Energy              =    -192.8584215235086958 [Eh]

	 ================> DF-SCS-MP2 Energies <==================
	-----------------------------------------------------------
	 SCS Same-Spin Scale       =       0.3333333333333333 [-]
	 SCS Opposite-Spin Scale   =       1.2000000000000000 [-]
	 SCS Same-Spin Energy      =      -0.0624353503463744 [Eh]
	 SCS Opposite-Spin Energy  =      -0.7660920943985646 [Eh]
	 SCS Correlation Energy    =      -0.8285274447449390 [Eh]
	 SCS Total Energy          =    -192.8612328385490287 [Eh]
	-----------------------------------------------------------

  Dipole Moment: [D]
     X:    -0.0647      Y:    -2.9269      Z:    -0.0002     Total:     2.9276

*** Psi4 exiting successfully. Buy a developer a beer!
