                               Psi4 1.3.2 release

  ==> Input File <==

--------------------------------------------------------------------------
#psi4
#
memory 32 gb

molecule  {
0 1
  O        0.0267460     1.3979150     0.0001110
  C       -0.0054050     0.1710240    -0.0004320
  C        1.4504689    -0.7413740     0.0001214
  C       -1.3071510    -0.5956450     0.0000600
  H        1.1065290    -1.7126840     0.0002500
  H        1.8687580    -0.3632970    -0.8809030
  H        1.8683850    -0.3629330     0.8811560
  H       -1.3615300    -1.2438660     0.8812950
  H       -2.1446900     0.1021110     0.0002990
  H       -1.3620790    -1.2439230    -0.8810940
units angstrom
no_reorient  #important for SAPT in psi4, default
symmetry c1  #important for SAPT in psi4, default
}

set PROPERTIES_ORIGIN ["COM"]
properties('MP2/aug-cc-pvtz', properties = ['dipole'])
--------------------------------------------------------------------------

    Molecular point group: c1
  Charge       = 0
  Multiplicity = 1
  Basis Set: AUG-CC-PVTZ
    Blend: AUG-CC-PVTZ
  Basis Set: (AUG-CC-PVTZ AUX)
    Blend: AUG-CC-PVTZ-JKFIT

    Orbital Energies [Eh]
    ---------------------

    Doubly Occupied:

       1A    -20.549103     2A    -11.343626     3A    -11.241072
       4A    -11.234581     5A     -1.375155     6A     -1.027644
       7A     -0.968471     8A     -0.734591     9A     -0.639131
      10A     -0.623773    11A     -0.622576    12A     -0.584870
      13A     -0.581161    14A     -0.532068    15A     -0.488850
      16A     -0.389404

  @DF-RHF Final Energy:  -192.00600752594184

   => Energetics <=

    Nuclear Repulsion Energy =            116.5856888137442837
    One-Electron Energy =                -491.3112356086921864
    Two-Electron Energy =                 182.7195392690060487
    Total Energy =                       -192.0060075259418397
  Basis Set: (AUG-CC-PVTZ AUX)
    Blend: AUG-CC-PVTZ-RI
    Molecular point group: c1

    Geometry (in Angstrom), charge = 0, multiplicity = 1:

       Center              X                  Y                   Z               Mass
    ------------   -----------------  -----------------  -----------------  -----------------
         O           -0.008710046872     1.337523306973     0.000114806149    15.994914619570
         C           -0.040861046872     0.110632306973    -0.000428193851    12.000000000000
         C            1.415012853128    -0.801765693027     0.000125206149    12.000000000000
         C           -1.342607046872    -0.656036693027     0.000063806149    12.000000000000
         H            1.071072953128    -1.773075693027     0.000253806149     1.007825032230
         H            1.833301953128    -0.423688693027    -0.880899193851     1.007825032230
         H            1.832928953128    -0.423324693027     0.881159806149     1.007825032230
         H           -1.396986046872    -1.304257693027     0.881298806149     1.007825032230
         H           -2.180146046872     0.041719306973     0.000302806149     1.007825032230
         H           -1.397535046872    -1.304314693027    -0.881090193851     1.007825032230

  Basis Set: AUG-CC-PVTZ
    Blend: AUG-CC-PVTZ
  Basis Set: (AUG-CC-PVTZ AUX)
    Blend: AUG-CC-PVTZ-JKFIT
	 Reference Energy          =    -192.0060075259418397 [Eh]
	 Singles Energy            =      -0.0000000000000000 [Eh]
	 Same-Spin Energy          =      -0.1877232279513173 [Eh]
	 Opposite-Spin Energy      =      -0.6402311119774433 [Eh]
	 Correlation Energy        =      -0.8279543399287606 [Eh]
	 Total Energy              =    -192.8339618658706058 [Eh]

	 ================> DF-SCS-MP2 Energies <==================
	-----------------------------------------------------------
	 SCS Same-Spin Scale       =       0.3333333333333333 [-]
	 SCS Opposite-Spin Scale   =       1.2000000000000000 [-]
	 SCS Same-Spin Energy      =      -0.0625744093171058 [Eh]
	 SCS Opposite-Spin Energy  =      -0.7682773343729320 [Eh]
	 SCS Correlation Energy    =      -0.8308517436900378 [Eh]
	 SCS Total Energy          =    -192.8368592696318728 [Eh]
	-----------------------------------------------------------

  Dipole Moment: [D]
     X:    -0.4184      Y:    -2.7333      Z:    -0.0003     Total:     2.7651

*** Psi4 exiting successfully. Buy a developer a beer!
