                               Psi4 1.3.2 release

  ==> Input File <==

--------------------------------------------------------------------------
#psi4
#
memory 32 gb

molecule  {
0 1
  O       -0.1016751     1.3945546     0.0001928
  C       -0.0054050     0.1710240    -0.0004320
  C        1.2809990    -0.6351670     0.0000570
  C       -1.3071510    -0.5956450     0.0000600
  H        1.1065290    -1.7126840     0.0002500
  H        1.8687580    -0.3632970    -0.8809030
  H        1.8683850    -0.3629330     0.8811560
  H       -1.3615300    -1.2438660     0.8812950
  H       -2.1446900     0.1021110     0.0002990
  H       -1.3620790    -1.2439230    -0.8810940
units angstrom
no_reorient  #important for SAPT in psi4, default
symmetry c1  #important for SAPT in psi4, default
}

set PROPERTIES_ORIGIN ["COM"]
properties('MP2/aug-cc-pvtz', properties = ['dipole'])
--------------------------------------------------------------------------

    Molecular point group: c1
  Charge       = 0
  Multiplicity = 1
  Basis Set: AUG-CC-PVTZ
    Blend: AUG-CC-PVTZ
  Basis Set: (AUG-CC-PVTZ AUX)
    Blend: AUG-CC-PVTZ-JKFIT

    Orbital Energies [Eh]
    ---------------------

    Doubly Occupied:

       1A    -20.543658     2A    -11.336494     3A    -11.243544
       4A    -11.232221     5A     -1.375813     6A     -1.041711
       7A     -0.968709     8A     -0.742223     9A     -0.642392
      10A     -0.634311    11A     -0.620126    12A     -0.564995
      13A     -0.564555    14A     -0.535108    15A     -0.480413
      16A     -0.413078

  @DF-RHF Final Energy:  -192.03056495569592

   => Energetics <=

    Nuclear Repulsion Energy =            119.0204442378429519
    One-Electron Energy =                -496.2233180369241268
    Two-Electron Energy =                 185.1723088433852809
    Total Energy =                       -192.0305649556959224
  Basis Set: (AUG-CC-PVTZ AUX)
    Blend: AUG-CC-PVTZ-RI
    Molecular point group: c1

    Geometry (in Angstrom), charge = 0, multiplicity = 1:

       Center              X                  Y                   Z               Mass
    ------------   -----------------  -----------------  -----------------  -----------------
         O           -0.066703993247     1.313130938189     0.000187378602    15.994914619570
         C            0.029566106753     0.089600338189    -0.000437421398    12.000000000000
         C            1.315970106753    -0.716590661811     0.000051578602    12.000000000000
         C           -1.272179893247    -0.677068661811     0.000054578602    12.000000000000
         H            1.141500106753    -1.794107661811     0.000244578602     1.007825032230
         H            1.903729106753    -0.444720661811    -0.880908421398     1.007825032230
         H            1.903356106753    -0.444356661811     0.881150578602     1.007825032230
         H           -1.326558893247    -1.325289661811     0.881289578602     1.007825032230
         H           -2.109718893247     0.020687338189     0.000293578602     1.007825032230
         H           -1.327107893247    -1.325346661811    -0.881099421398     1.007825032230

  Basis Set: AUG-CC-PVTZ
    Blend: AUG-CC-PVTZ
  Basis Set: (AUG-CC-PVTZ AUX)
    Blend: AUG-CC-PVTZ-JKFIT
	 Reference Energy          =    -192.0305649556959224 [Eh]
	 Singles Energy            =      -0.0000000000000000 [Eh]
	 Same-Spin Energy          =      -0.1874673603566607 [Eh]
	 Opposite-Spin Energy      =      -0.6385742344086397 [Eh]
	 Correlation Energy        =      -0.8260415947653004 [Eh]
	 Total Energy              =    -192.8566065504612368 [Eh]

	 ================> DF-SCS-MP2 Energies <==================
	-----------------------------------------------------------
	 SCS Same-Spin Scale       =       0.3333333333333333 [-]
	 SCS Opposite-Spin Scale   =       1.2000000000000000 [-]
	 SCS Same-Spin Energy      =      -0.0624891201188869 [Eh]
	 SCS Opposite-Spin Energy  =      -0.7662890812903677 [Eh]
	 SCS Correlation Energy    =      -0.8287782014092545 [Eh]
	 SCS Total Energy          =    -192.8593431571051724 [Eh]
	-----------------------------------------------------------

  Dipole Moment: [D]
     X:     0.3139      Y:    -2.9317      Z:    -0.0004     Total:     2.9484

*** Psi4 exiting successfully. Buy a developer a beer!
