                               Psi4 1.3.2 release

  ==> Input File <==

--------------------------------------------------------------------------
#psi4
#
memory 32 gb

molecule  {
0 1
  O        0.1548149     1.3878333     0.0000233
  C       -0.0054050     0.1710240    -0.0004320
  C        1.2809990    -0.6351670     0.0000570
  C       -1.3071510    -0.5956450     0.0000600
  H        1.1065290    -1.7126840     0.0002500
  H        1.8687580    -0.3632970    -0.8809030
  H        1.8683850    -0.3629330     0.8811560
  H       -1.3615300    -1.2438660     0.8812950
  H       -2.1446900     0.1021110     0.0002990
  H       -1.3620790    -1.2439230    -0.8810940
units angstrom
no_reorient  #important for SAPT in psi4, default
symmetry c1  #important for SAPT in psi4, default
}

set PROPERTIES_ORIGIN ["COM"]
properties('MP2/aug-cc-pvtz', properties = ['dipole'])
--------------------------------------------------------------------------

    Molecular point group: c1
  Charge       = 0
  Multiplicity = 1
  Basis Set: AUG-CC-PVTZ
    Blend: AUG-CC-PVTZ
  Basis Set: (AUG-CC-PVTZ AUX)
    Blend: AUG-CC-PVTZ-JKFIT

    Orbital Energies [Eh]
    ---------------------

    Doubly Occupied:

       1A    -20.543831     2A    -11.336920     3A    -11.245227
       4A    -11.230865     5A     -1.376094     6A     -1.042174
       7A     -0.968069     8A     -0.742269     9A     -0.641224
      10A     -0.635833    11A     -0.620865    12A     -0.565459
      13A     -0.563438    14A     -0.535966    15A     -0.479179
      16A     -0.413297

  @DF-RHF Final Energy:  -192.03018969980999

   => Energetics <=

    Nuclear Repulsion Energy =            119.0462205592198046
    One-Electron Energy =                -496.2714018450582785
    Two-Electron Energy =                 185.1949915860284648
    Total Energy =                       -192.0301896998099949
  Basis Set: (AUG-CC-PVTZ AUX)
    Blend: AUG-CC-PVTZ-RI
    Molecular point group: c1

    Geometry (in Angstrom), charge = 0, multiplicity = 1:

       Center              X                  Y                   Z               Mass
    ------------   -----------------  -----------------  -----------------  -----------------
         O            0.119103652490     1.308261863647     0.000064588646    15.994914619570
         C           -0.041116247510     0.091452563647    -0.000390711354    12.000000000000
         C            1.245287752490    -0.714738436353     0.000098288646    12.000000000000
         C           -1.342862247510    -0.675216436353     0.000101288646    12.000000000000
         H            1.070817752490    -1.792255436353     0.000291288646     1.007825032230
         H            1.833046752490    -0.442868436353    -0.880861711354     1.007825032230
         H            1.832673752490    -0.442504436353     0.881197288646     1.007825032230
         H           -1.397241247510    -1.323437436353     0.881336288646     1.007825032230
         H           -2.180401247510     0.022539563647     0.000340288646     1.007825032230
         H           -1.397790247510    -1.323494436353    -0.881052711354     1.007825032230

  Basis Set: AUG-CC-PVTZ
    Blend: AUG-CC-PVTZ
  Basis Set: (AUG-CC-PVTZ AUX)
    Blend: AUG-CC-PVTZ-JKFIT
	 Reference Energy          =    -192.0301896998099949 [Eh]
	 Singles Energy            =      -0.0000000000000000 [Eh]
	 Same-Spin Energy          =      -0.1874735101005310 [Eh]
	 Opposite-Spin Energy      =      -0.6387039332139230 [Eh]
	 Correlation Energy        =      -0.8261774433144540 [Eh]
	 Total Energy              =    -192.8563671431244586 [Eh]

	 ================> DF-SCS-MP2 Energies <==================
	-----------------------------------------------------------
	 SCS Same-Spin Scale       =       0.3333333333333333 [-]
	 SCS Opposite-Spin Scale   =       1.2000000000000000 [-]
	 SCS Same-Spin Energy      =      -0.0624911700335103 [Eh]
	 SCS Opposite-Spin Energy  =      -0.7664447198567076 [Eh]
	 SCS Correlation Energy    =      -0.8289358898902179 [Eh]
	 SCS Total Energy          =    -192.8591255897002270 [Eh]
	-----------------------------------------------------------

  Dipole Moment: [D]
     X:    -0.4106      Y:    -2.9093      Z:    -0.0001     Total:     2.9381

*** Psi4 exiting successfully. Buy a developer a beer!
