                               Psi4 1.3.2 release

  ==> Input File <==

--------------------------------------------------------------------------
#psi4
#
memory 32 gb

molecule  {
0 1
 Cl       -3.3762460     0.4715730     0.0000400
 Cl        3.3762460    -0.4715730    -0.0000500
  O       -1.8662040    -1.6703800    -0.0002000
  O        1.8662050     1.6703810     0.0002060
  C       -0.6363844     0.4167376     0.2000530
  C        0.6363830    -0.4167600    -0.0000420
  C       -1.8539110    -0.4669460    -0.0000590
  C        1.8539110     0.4669460     0.0000630
  H       -0.6849470     1.0764100    -0.8725500
  H       -0.6849540     1.0761990     0.8728160
  H        0.6849510    -1.0762020    -0.8728020
  H        0.6849480    -1.0764060     0.8725640
units angstrom
no_reorient  #important for SAPT in psi4, default
symmetry c1  #important for SAPT in psi4, default
}

set PROPERTIES_ORIGIN ["COM"]
properties('MP2/aug-cc-pvtz', properties = ['dipole'])
--------------------------------------------------------------------------

    Molecular point group: c1
  Charge       = 0
  Multiplicity = 1
  Basis Set: AUG-CC-PVTZ
    Blend: AUG-CC-PVTZ
  Basis Set: (AUG-CC-PVTZ AUX)
    Blend: AUG-CC-PVTZ-JKFIT

    Orbital Energies [Eh]
    ---------------------

    Doubly Occupied:

       1A   -104.865430     2A   -104.865104     3A    -20.608115
       4A    -20.607864     5A    -11.430021     6A    -11.427724
       7A    -11.296230     8A    -11.294677     9A    -10.589864
      10A    -10.589520    11A     -8.056512    12A     -8.056168
      13A     -8.054771    14A     -8.054613    15A     -8.054420
      16A     -8.054261    17A     -1.452405    18A     -1.450916
      19A     -1.161503    20A     -1.150415    21A     -1.106274
      22A     -0.978540    23A     -0.800446    24A     -0.791540
      25A     -0.719816    26A     -0.696886    27A     -0.689855
      28A     -0.657551    29A     -0.652970    30A     -0.628514
      31A     -0.591380    32A     -0.567790    33A     -0.511568
      34A     -0.493295    35A     -0.481243    36A     -0.480843
      37A     -0.475480    38A     -0.466892    39A     -0.465126

  @DF-RHF Final Energy: -1222.64514512023584

   => Energetics <=

    Nuclear Repulsion Energy =            470.0679253305079897
    One-Electron Energy =               -2618.6730617153521052
    Two-Electron Energy =                 925.9599912646083339
    Total Energy =                      -1222.6451451202358385
  Basis Set: (AUG-CC-PVTZ AUX)
    Blend: AUG-CC-PVTZ-RI
    Molecular point group: c1

    Geometry (in Angstrom), charge = 0, multiplicity = 1:

       Center              X                  Y                   Z               Mass
    ------------   -----------------  -----------------  -----------------  -----------------
         CL          -3.376245981679     0.471574635484    -0.015548286987    34.968852682000
         CL           3.376246018321    -0.471571364516    -0.015638286987    34.968852682000
         O           -1.866203981679    -1.670378364516    -0.015788286987    15.994914619570
         O            1.866205018321     1.670382635484    -0.015382286987    15.994914619570
         C           -0.636384381679     0.416739235484     0.184464713013    12.000000000000
         C            0.636383018321    -0.416758364516    -0.015630286987    12.000000000000
         C           -1.853910981679    -0.466944364516    -0.015647286987    12.000000000000
         C            1.853911018321     0.466947635484    -0.015525286987    12.000000000000
         H           -0.684946981679     1.076411635484    -0.888138286987     1.007825032230
         H           -0.684953981679     1.076200635484     0.857227713013     1.007825032230
         H            0.684951018321    -1.076200364516    -0.888390286987     1.007825032230
         H            0.684948018321    -1.076404364516     0.856975713013     1.007825032230

  Basis Set: AUG-CC-PVTZ
    Blend: AUG-CC-PVTZ
  Basis Set: (AUG-CC-PVTZ AUX)
    Blend: AUG-CC-PVTZ-JKFIT
	 Reference Energy          =   -1222.6451451202358385 [Eh]
	 Singles Energy            =      -0.0000000000000000 [Eh]
	 Same-Spin Energy          =      -0.4263066569963642 [Eh]
	 Opposite-Spin Energy      =      -1.2712558887009902 [Eh]
	 Correlation Energy        =      -1.6975625456973544 [Eh]
	 Total Energy              =   -1224.3427076659331760 [Eh]

	 ================> DF-SCS-MP2 Energies <==================
	-----------------------------------------------------------
	 SCS Same-Spin Scale       =       0.3333333333333333 [-]
	 SCS Opposite-Spin Scale   =       1.2000000000000000 [-]
	 SCS Same-Spin Energy      =      -0.1421022189987881 [Eh]
	 SCS Opposite-Spin Energy  =      -1.5255070664411881 [Eh]
	 SCS Correlation Energy    =      -1.6676092854399762 [Eh]
	 SCS Total Energy          =   -1224.3127544056758325 [Eh]
	-----------------------------------------------------------

  Dipole Moment: [D]
     X:     0.0284      Y:    -0.0278      Z:     0.0905     Total:     0.0988

*** Psi4 exiting successfully. Buy a developer a beer!
