                               Psi4 1.3.2 release

  ==> Input File <==

--------------------------------------------------------------------------
#psi4
#
memory 32 gb

molecule  {
0 1
 Cl       -3.3762460     0.4715730     0.0000400
 Cl        3.3762460    -0.4715730    -0.0000500
  O       -1.8662040    -1.6703800    -0.0002000
  O        1.8662050     1.6703810     0.0002060
  C       -0.6363837     0.4167493     0.1000530
  C        0.6363830    -0.4167600    -0.0000420
  C       -1.8539110    -0.4669460    -0.0000590
  C        1.8539110     0.4669460     0.0000630
  H       -0.6849470     1.0764100    -0.8725500
  H       -0.6849540     1.0761990     0.8728160
  H        0.6849510    -1.0762020    -0.8728020
  H        0.6849480    -1.0764060     0.8725640
units angstrom
no_reorient  #important for SAPT in psi4, default
symmetry c1  #important for SAPT in psi4, default
}

set PROPERTIES_ORIGIN ["COM"]
properties('MP2/aug-cc-pvtz', properties = ['dipole'])
--------------------------------------------------------------------------

    Molecular point group: c1
  Charge       = 0
  Multiplicity = 1
  Basis Set: AUG-CC-PVTZ
    Blend: AUG-CC-PVTZ
  Basis Set: (AUG-CC-PVTZ AUX)
    Blend: AUG-CC-PVTZ-JKFIT

    Orbital Energies [Eh]
    ---------------------

    Doubly Occupied:

       1A   -104.865267     2A   -104.865184     3A    -20.607949
       4A    -20.607885     5A    -11.428148     6A    -11.427565
       7A    -11.292909     8A    -11.292195     9A    -10.589701
      10A    -10.589613    11A     -8.056349    12A     -8.056262
      13A     -8.054609    14A     -8.054519    15A     -8.054451
      16A     -8.054361    17A     -1.452333    18A     -1.450824
      19A     -1.161701    20A     -1.150475    21A     -1.106443
      22A     -0.976782    23A     -0.794409    24A     -0.787008
      25A     -0.717445    26A     -0.698781    27A     -0.689975
      28A     -0.657079    29A     -0.653041    30A     -0.625529
      31A     -0.583104    32A     -0.568834    33A     -0.530299
      34A     -0.493518    35A     -0.481165    36A     -0.480420
      37A     -0.477298    38A     -0.467971    39A     -0.466005

  @DF-RHF Final Energy: -1222.67746369150950

   => Energetics <=

    Nuclear Repulsion Energy =            470.2840594390671640
    One-Electron Energy =               -2619.1882351095564445
    Two-Electron Energy =                 926.2267119789796652
    Total Energy =                      -1222.6774636915095016
  Basis Set: (AUG-CC-PVTZ AUX)
    Blend: AUG-CC-PVTZ-RI
    Molecular point group: c1

    Geometry (in Angstrom), charge = 0, multiplicity = 1:

       Center              X                  Y                   Z               Mass
    ------------   -----------------  -----------------  -----------------  -----------------
         CL          -3.376246036239     0.471573723552    -0.007753995727    34.968852682000
         CL           3.376245963761    -0.471572276448    -0.007843995727    34.968852682000
         O           -1.866204036239    -1.670379276448    -0.007993995727    15.994914619570
         O            1.866204963761     1.670381723552    -0.007587995727    15.994914619570
         C           -0.636383736239     0.416750023552     0.092259004273    12.000000000000
         C            0.636382963761    -0.416759276448    -0.007835995727    12.000000000000
         C           -1.853911036239    -0.466945276448    -0.007852995727    12.000000000000
         C            1.853910963761     0.466946723552    -0.007730995727    12.000000000000
         H           -0.684947036239     1.076410723552    -0.880343995727     1.007825032230
         H           -0.684954036239     1.076199723552     0.865022004273     1.007825032230
         H            0.684950963761    -1.076201276448    -0.880595995727     1.007825032230
         H            0.684947963761    -1.076405276448     0.864770004273     1.007825032230

  Basis Set: AUG-CC-PVTZ
    Blend: AUG-CC-PVTZ
  Basis Set: (AUG-CC-PVTZ AUX)
    Blend: AUG-CC-PVTZ-JKFIT
	 Reference Energy          =   -1222.6774636915095016 [Eh]
	 Singles Energy            =      -0.0000000000000000 [Eh]
	 Same-Spin Energy          =      -0.4258279210371774 [Eh]
	 Opposite-Spin Energy      =      -1.2696382429782382 [Eh]
	 Correlation Energy        =      -1.6954661640154156 [Eh]
	 Total Energy              =   -1224.3729298555249443 [Eh]

	 ================> DF-SCS-MP2 Energies <==================
	-----------------------------------------------------------
	 SCS Same-Spin Scale       =       0.3333333333333333 [-]
	 SCS Opposite-Spin Scale   =       1.2000000000000000 [-]
	 SCS Same-Spin Energy      =      -0.1419426403457258 [Eh]
	 SCS Opposite-Spin Energy  =      -1.5235658915738859 [Eh]
	 SCS Correlation Energy    =      -1.6655085319196117 [Eh]
	 SCS Total Energy          =   -1224.3429722234291148 [Eh]
	-----------------------------------------------------------

  Dipole Moment: [D]
     X:     0.0073      Y:    -0.0074      Z:     0.0462     Total:     0.0474

*** Psi4 exiting successfully. Buy a developer a beer!
