                               Psi4 1.3.2 release

  ==> Input File <==

--------------------------------------------------------------------------
#psi4
#
memory 32 gb

molecule  {
0 1
 Cl       -3.3762460     0.4715730     0.0000400
 Cl        3.3762460    -0.4715730    -0.0000500
  O       -1.8662040    -1.6703800    -0.0002000
  O        1.8662050     1.6703810     0.0002060
  C       -0.6363848     0.4167317     0.2500530
  C        0.6363830    -0.4167600    -0.0000420
  C       -1.8539110    -0.4669460    -0.0000590
  C        1.8539110     0.4669460     0.0000630
  H       -0.6849470     1.0764100    -0.8725500
  H       -0.6849540     1.0761990     0.8728160
  H        0.6849510    -1.0762020    -0.8728020
  H        0.6849480    -1.0764060     0.8725640
units angstrom
no_reorient  #important for SAPT in psi4, default
symmetry c1  #important for SAPT in psi4, default
}

set PROPERTIES_ORIGIN ["COM"]
properties('MP2/aug-cc-pvtz', properties = ['dipole'])
--------------------------------------------------------------------------

    Molecular point group: c1
  Charge       = 0
  Multiplicity = 1
  Basis Set: AUG-CC-PVTZ
    Blend: AUG-CC-PVTZ
  Basis Set: (AUG-CC-PVTZ AUX)
    Blend: AUG-CC-PVTZ-JKFIT

    Orbital Energies [Eh]
    ---------------------

    Doubly Occupied:

       1A   -104.865551     2A   -104.865048     3A    -20.608235
       4A    -20.607845     5A    -11.431387     6A    -11.427841
       7A    -11.298784     8A    -11.296416     9A    -10.589985
      10A    -10.589453    11A     -8.056632    12A     -8.056102
      13A     -8.054891    14A     -8.054733    15A     -8.054348
      16A     -8.054190    17A     -1.452455    18A     -1.450979
      19A     -1.161368    20A     -1.150367    21A     -1.106171
      22A     -0.980032    23A     -0.807024    24A     -0.791996
      25A     -0.720920    26A     -0.696053    27A     -0.689699
      28A     -0.658062    29A     -0.653244    30A     -0.629723
      31A     -0.593875    32A     -0.567397    33A     -0.502755
      34A     -0.493031    35A     -0.481293    36A     -0.481048
      37A     -0.474122    38A     -0.465414    39A     -0.464370

  @DF-RHF Final Energy: -1222.62066323625481

   => Energetics <=

    Nuclear Repulsion Energy =            469.9069886974237420
    One-Electron Energy =               -2618.2896252235500469
    Two-Electron Energy =                 925.7619732898712073
    Total Energy =                      -1222.6206632362550408
  Basis Set: (AUG-CC-PVTZ AUX)
    Blend: AUG-CC-PVTZ-RI
    Molecular point group: c1

    Geometry (in Angstrom), charge = 0, multiplicity = 1:

       Center              X                  Y                   Z               Mass
    ------------   -----------------  -----------------  -----------------  -----------------
         CL          -3.376245950501     0.471575095348    -0.019445432618    34.968852682000
         CL           3.376246049499    -0.471570904652    -0.019535432618    34.968852682000
         O           -1.866203950501    -1.670377904652    -0.019685432618    15.994914619570
         O            1.866205049499     1.670383095348    -0.019279432618    15.994914619570
         C           -0.636384750501     0.416733795348     0.230567567382    12.000000000000
         C            0.636383049499    -0.416757904652    -0.019527432618    12.000000000000
         C           -1.853910950501    -0.466943904652    -0.019544432618    12.000000000000
         C            1.853911049499     0.466948095348    -0.019422432618    12.000000000000
         H           -0.684946950501     1.076412095348    -0.892035432618     1.007825032230
         H           -0.684953950501     1.076201095348     0.853330567382     1.007825032230
         H            0.684951049499    -1.076199904652    -0.892287432618     1.007825032230
         H            0.684948049499    -1.076403904652     0.853078567382     1.007825032230

  Basis Set: AUG-CC-PVTZ
    Blend: AUG-CC-PVTZ
  Basis Set: (AUG-CC-PVTZ AUX)
    Blend: AUG-CC-PVTZ-JKFIT
	 Reference Energy          =   -1222.6206632362548135 [Eh]
	 Singles Energy            =      -0.0000000000000000 [Eh]
	 Same-Spin Energy          =      -0.4266738156666637 [Eh]
	 Opposite-Spin Energy      =      -1.2725035958425464 [Eh]
	 Correlation Energy        =      -1.6991774115092100 [Eh]
	 Total Energy              =   -1224.3198406477640674 [Eh]

	 ================> DF-SCS-MP2 Energies <==================
	-----------------------------------------------------------
	 SCS Same-Spin Scale       =       0.3333333333333333 [-]
	 SCS Opposite-Spin Scale   =       1.2000000000000000 [-]
	 SCS Same-Spin Energy      =      -0.1422246052222212 [Eh]
	 SCS Opposite-Spin Energy  =      -1.5270043150110555 [Eh]
	 SCS Correlation Energy    =      -1.6692289202332766 [Eh]
	 SCS Total Energy          =   -1224.2898921564881221 [Eh]
	-----------------------------------------------------------

  Dipole Moment: [D]
     X:     0.0435      Y:    -0.0414      Z:     0.1106     Total:     0.1258

*** Psi4 exiting successfully. Buy a developer a beer!
