                               Psi4 1.3.2 release

  ==> Input File <==

--------------------------------------------------------------------------
#psi4
#
memory 32 gb

molecule  {
0 1
 Cl       -3.3762460     0.4715730     0.0000400
 Cl        3.3762460    -0.4715730    -0.0000500
  O       -1.8662040    -1.6703800    -0.0002000
  O        1.8662050     1.6703810     0.0002060
  C       -0.6363834     0.4167551     0.0500530
  C        0.6363830    -0.4167600    -0.0000420
  C       -1.8539110    -0.4669460    -0.0000590
  C        1.8539110     0.4669460     0.0000630
  H       -0.6849470     1.0764100    -0.8725500
  H       -0.6849540     1.0761990     0.8728160
  H        0.6849510    -1.0762020    -0.8728020
  H        0.6849480    -1.0764060     0.8725640
units angstrom
no_reorient  #important for SAPT in psi4, default
symmetry c1  #important for SAPT in psi4, default
}

set PROPERTIES_ORIGIN ["COM"]
properties('MP2/aug-cc-pvtz', properties = ['dipole'])
--------------------------------------------------------------------------

    Molecular point group: c1
  Charge       = 0
  Multiplicity = 1
  Basis Set: AUG-CC-PVTZ
    Blend: AUG-CC-PVTZ
  Basis Set: (AUG-CC-PVTZ AUX)
    Blend: AUG-CC-PVTZ-JKFIT

    Orbital Energies [Eh]
    ---------------------

    Doubly Occupied:

       1A   -104.865226     2A   -104.865205     3A    -20.607906
       4A    -20.607890     5A    -11.427671     6A    -11.427524
       7A    -11.292139     8A    -11.291503     9A    -10.589660
      10A    -10.589638    11A     -8.056308    12A     -8.056286
      13A     -8.054568    14A     -8.054545    15A     -8.054410
      16A     -8.054387    17A     -1.452313    18A     -1.450800
      19A     -1.161754    20A     -1.150489    21A     -1.106491
      22A     -0.976387    23A     -0.793978    24A     -0.784601
      25A     -0.716562    26A     -0.699504    27A     -0.689991
      28A     -0.657006    29A     -0.653153    30A     -0.624551
      31A     -0.578084    32A     -0.569955    33A     -0.537427
      34A     -0.493566    35A     -0.481143    36A     -0.480257
      37A     -0.477758    38A     -0.468159    39A     -0.466202

  @DF-RHF Final Energy: -1222.68546787577861

   => Energetics <=

    Nuclear Repulsion Energy =            470.3384051623198729
    One-Electron Energy =               -2619.3177547875120581
    Two-Electron Energy =                 926.2938817494135719
    Total Energy =                      -1222.6854678757786132
  Basis Set: (AUG-CC-PVTZ AUX)
    Blend: AUG-CC-PVTZ-RI
    Molecular point group: c1

    Geometry (in Angstrom), charge = 0, multiplicity = 1:

       Center              X                  Y                   Z               Mass
    ------------   -----------------  -----------------  -----------------  -----------------
         CL          -3.376246059622     0.471573271483    -0.003856850097    34.968852682000
         CL           3.376245940378    -0.471572728517    -0.003946850097    34.968852682000
         O           -1.866204059622    -1.670379728517    -0.004096850097    15.994914619570
         O            1.866204940378     1.670381271483    -0.003690850097    15.994914619570
         C           -0.636383459622     0.416755371483     0.046156149903    12.000000000000
         C            0.636382940378    -0.416759728517    -0.003938850097    12.000000000000
         C           -1.853911059622    -0.466945728517    -0.003955850097    12.000000000000
         C            1.853910940378     0.466946271483    -0.003833850097    12.000000000000
         H           -0.684947059622     1.076410271483    -0.876446850097     1.007825032230
         H           -0.684954059622     1.076199271483     0.868919149903     1.007825032230
         H            0.684950940378    -1.076201728517    -0.876698850097     1.007825032230
         H            0.684947940378    -1.076405728517     0.868667149903     1.007825032230

  Basis Set: AUG-CC-PVTZ
    Blend: AUG-CC-PVTZ
  Basis Set: (AUG-CC-PVTZ AUX)
    Blend: AUG-CC-PVTZ-JKFIT
	 Reference Energy          =   -1222.6854678757786132 [Eh]
	 Singles Energy            =      -0.0000000000000000 [Eh]
	 Same-Spin Energy          =      -0.4257105464378250 [Eh]
	 Opposite-Spin Energy      =      -1.2692463068831166 [Eh]
	 Correlation Energy        =      -1.6949568533209416 [Eh]
	 Total Energy              =   -1224.3804247290995590 [Eh]

	 ================> DF-SCS-MP2 Energies <==================
	-----------------------------------------------------------
	 SCS Same-Spin Scale       =       0.3333333333333333 [-]
	 SCS Opposite-Spin Scale   =       1.2000000000000000 [-]
	 SCS Same-Spin Energy      =      -0.1419035154792750 [Eh]
	 SCS Opposite-Spin Energy  =      -1.5230955682597398 [Eh]
	 SCS Correlation Energy    =      -1.6649990837390147 [Eh]
	 SCS Total Energy          =   -1224.3504669595176892 [Eh]
	-----------------------------------------------------------

  Dipole Moment: [D]
     X:     0.0018      Y:    -0.0019      Z:     0.0232     Total:     0.0234

*** Psi4 exiting successfully. Buy a developer a beer!
