                               Psi4 1.3.2 release

  ==> Input File <==

--------------------------------------------------------------------------
#psi4
#
memory 32 gb

molecule  {
0 1
 Cl       -3.3762460     0.4715730     0.0000400
 Cl        3.3762460    -0.4715730    -0.0000500
  O       -1.8662040    -1.6703800    -0.0002000
  O        1.8662050     1.6703810     0.0002060
  C       -0.6363841     0.4167434     0.1500530
  C        0.6363830    -0.4167600    -0.0000420
  C       -1.8539110    -0.4669460    -0.0000590
  C        1.8539110     0.4669460     0.0000630
  H       -0.6849470     1.0764100    -0.8725500
  H       -0.6849540     1.0761990     0.8728160
  H        0.6849510    -1.0762020    -0.8728020
  H        0.6849480    -1.0764060     0.8725640
units angstrom
no_reorient  #important for SAPT in psi4, default
symmetry c1  #important for SAPT in psi4, default
}

set PROPERTIES_ORIGIN ["COM"]
properties('MP2/aug-cc-pvtz', properties = ['dipole'])
--------------------------------------------------------------------------

    Molecular point group: c1
  Charge       = 0
  Multiplicity = 1
  Basis Set: AUG-CC-PVTZ
    Blend: AUG-CC-PVTZ
  Basis Set: (AUG-CC-PVTZ AUX)
    Blend: AUG-CC-PVTZ-JKFIT

    Orbital Energies [Eh]
    ---------------------

    Doubly Occupied:

       1A   -104.865335     2A   -104.865150     3A    -20.608019
       4A    -20.607877     5A    -11.428935     6A    -11.427632
       7A    -11.294266     8A    -11.293266     9A    -10.589769
      10A    -10.589573    11A     -8.056417    12A     -8.056222
      13A     -8.054677    14A     -8.054519    15A     -8.054477
      16A     -8.054319    17A     -1.452363    18A     -1.450864
      19A     -1.161616    20A     -1.150450    21A     -1.106368
      22A     -0.977481    23A     -0.796019    24A     -0.789961
      25A     -0.718609    26A     -0.697840    27A     -0.689937
      28A     -0.657244    29A     -0.652939    30A     -0.626966
      31A     -0.587761    32A     -0.568219    33A     -0.521157
      34A     -0.493434    35A     -0.481199    36A     -0.480626
      37A     -0.476548    38A     -0.467602    39A     -0.465655

  @DF-RHF Final Energy: -1222.66405175369368

   => Energetics <=

    Nuclear Repulsion Energy =            470.1937711226035503
    One-Electron Energy =               -2618.9730235124156934
    Two-Electron Energy =                 926.1152006361182885
    Total Energy =                      -1222.6640517536936841
  Basis Set: (AUG-CC-PVTZ AUX)
    Blend: AUG-CC-PVTZ-RI
    Molecular point group: c1

    Geometry (in Angstrom), charge = 0, multiplicity = 1:

       Center              X                  Y                   Z               Mass
    ------------   -----------------  -----------------  -----------------  -----------------
         CL          -3.376246005062     0.471574183415    -0.011651141357    34.968852682000
         CL           3.376245994938    -0.471571816585    -0.011741141357    34.968852682000
         O           -1.866204005062    -1.670378816585    -0.011891141357    15.994914619570
         O            1.866204994938     1.670382183415    -0.011485141357    15.994914619570
         C           -0.636384105062     0.416744583415     0.138361858643    12.000000000000
         C            0.636382994938    -0.416758816585    -0.011733141357    12.000000000000
         C           -1.853911005062    -0.466944816585    -0.011750141357    12.000000000000
         C            1.853910994938     0.466947183415    -0.011628141357    12.000000000000
         H           -0.684947005062     1.076411183415    -0.884241141357     1.007825032230
         H           -0.684954005062     1.076200183415     0.861124858643     1.007825032230
         H            0.684950994938    -1.076200816585    -0.884493141357     1.007825032230
         H            0.684947994938    -1.076404816585     0.860872858643     1.007825032230

  Basis Set: AUG-CC-PVTZ
    Blend: AUG-CC-PVTZ
  Basis Set: (AUG-CC-PVTZ AUX)
    Blend: AUG-CC-PVTZ-JKFIT
	 Reference Energy          =   -1222.6640517536936841 [Eh]
	 Singles Energy            =      -0.0000000000000000 [Eh]
	 Same-Spin Energy          =      -0.4260257273142302 [Eh]
	 Opposite-Spin Energy      =      -1.2703038162823370 [Eh]
	 Correlation Energy        =      -1.6963295435965673 [Eh]
	 Total Energy              =   -1224.3603812972903597 [Eh]

	 ================> DF-SCS-MP2 Energies <==================
	-----------------------------------------------------------
	 SCS Same-Spin Scale       =       0.3333333333333333 [-]
	 SCS Opposite-Spin Scale   =       1.2000000000000000 [-]
	 SCS Same-Spin Energy      =      -0.1420085757714101 [Eh]
	 SCS Opposite-Spin Energy  =      -1.5243645795388043 [Eh]
	 SCS Correlation Energy    =      -1.6663731553102143 [Eh]
	 SCS Total Energy          =   -1224.3304249090037956 [Eh]
	-----------------------------------------------------------

  Dipole Moment: [D]
     X:     0.0163      Y:    -0.0162      Z:     0.0688     Total:     0.0725

*** Psi4 exiting successfully. Buy a developer a beer!
