                               Psi4 1.3.2 release

  ==> Input File <==

--------------------------------------------------------------------------
#psi4
#
memory 32 gb

molecule  {
0 1
  O       -2.3042200    -1.0991630    -0.0003290
  O       -2.3377670     1.1635920     0.0000360
  C       -0.2184584     0.0275284    -0.2000150
  C        0.5080430     1.2243810    -0.0001580
  C        0.4461120    -1.2054740     0.0002260
  C        1.9006900     1.1869520    -0.0000810
  C        1.8404380    -1.2322990     0.0003120
  C        2.5692530    -0.0403490     0.0001580
  C       -1.7002410     0.1214410    -0.0000850
  H       -0.0326500     2.1666470    -0.0003250
  H       -0.1251480    -2.1283920     0.0003360
  H        2.4665660     2.1152060    -0.0002030
  H        2.3606420    -2.1869500     0.0005070
  H        3.6563130    -0.0679050     0.0002230
  H       -3.2647750    -0.9069250    -0.0003290
units angstrom
no_reorient  #important for SAPT in psi4, default
symmetry c1  #important for SAPT in psi4, default
}

set PROPERTIES_ORIGIN ["COM"]
properties('MP2/aug-cc-pvtz', properties = ['dipole'])
--------------------------------------------------------------------------

    Molecular point group: c1
  Charge       = 0
  Multiplicity = 1
  Basis Set: AUG-CC-PVTZ
    Blend: AUG-CC-PVTZ
  Basis Set: (AUG-CC-PVTZ AUX)
    Blend: AUG-CC-PVTZ-JKFIT

    Orbital Energies [Eh]
    ---------------------

    Doubly Occupied:

       1A    -20.616607     2A    -20.549233     3A    -11.394890
       4A    -11.262567     5A    -11.261483     6A    -11.260533
       7A    -11.258828     8A    -11.249835     9A    -11.249015
      10A     -1.460219    11A     -1.355449    12A     -1.168901
      13A     -1.048320    14A     -1.030895    15A     -0.897169
      16A     -0.842543    17A     -0.800213    18A     -0.729076
      19A     -0.704409    20A     -0.675829    21A     -0.640907
      22A     -0.630781    23A     -0.625336    24A     -0.604402
      25A     -0.584834    26A     -0.529014    27A     -0.516469
      28A     -0.507713    29A     -0.483680    30A     -0.455966
      31A     -0.356247    32A     -0.349736

  @DF-RHF Final Energy:  -418.46028232668084

   => Energetics <=

    Nuclear Repulsion Energy =            403.6820711873380674
    One-Electron Energy =               -1370.0825095727857388
    Two-Electron Energy =                 547.9401560587667745
    Total Energy =                       -418.4602823266808400
  Basis Set: (AUG-CC-PVTZ AUX)
    Blend: AUG-CC-PVTZ-RI
    Molecular point group: c1

    Geometry (in Angstrom), charge = 0, multiplicity = 1:

       Center              X                  Y                   Z               Mass
    ------------   -----------------  -----------------  -----------------  -----------------
         O           -2.263268440379    -1.107361282764     0.019338774631    15.994914619570
         O           -2.296815440379     1.155393717236     0.019703774631    15.994914619570
         C           -0.177506840379     0.019330117236    -0.180347225369    12.000000000000
         C            0.548994559621     1.216182717236     0.019509774631    12.000000000000
         C            0.487063559621    -1.213672282764     0.019893774631    12.000000000000
         C            1.941641559621     1.178753717236     0.019586774631    12.000000000000
         C            1.881389559621    -1.240497282764     0.019979774631    12.000000000000
         C            2.610204559621    -0.048547282764     0.019825774631    12.000000000000
         C           -1.659289440379     0.113242717236     0.019582774631    12.000000000000
         H            0.008301559621     2.158448717236     0.019342774631     1.007825032230
         H           -0.084196440379    -2.136590282764     0.020003774631     1.007825032230
         H            2.507517559621     2.107007717236     0.019464774631     1.007825032230
         H            2.401593559621    -2.195148282764     0.020174774631     1.007825032230
         H            3.697264559621    -0.076103282764     0.019890774631     1.007825032230
         H           -3.223823440379    -0.915123282764     0.019338774631     1.007825032230

  Basis Set: AUG-CC-PVTZ
    Blend: AUG-CC-PVTZ
  Basis Set: (AUG-CC-PVTZ AUX)
    Blend: AUG-CC-PVTZ-JKFIT
	 Reference Energy          =    -418.4602823266808400 [Eh]
	 Singles Energy            =      -0.0000000000000000 [Eh]
	 Same-Spin Energy          =      -0.4352234028050891 [Eh]
	 Opposite-Spin Energy      =      -1.3163497466967287 [Eh]
	 Correlation Energy        =      -1.7515731495018176 [Eh]
	 Total Energy              =    -420.2118554761826772 [Eh]

	 ================> DF-SCS-MP2 Energies <==================
	-----------------------------------------------------------
	 SCS Same-Spin Scale       =       0.3333333333333333 [-]
	 SCS Opposite-Spin Scale   =       1.2000000000000000 [-]
	 SCS Same-Spin Energy      =      -0.1450744676016963 [Eh]
	 SCS Opposite-Spin Energy  =      -1.5796196960360744 [Eh]
	 SCS Correlation Energy    =      -1.7246941636377708 [Eh]
	 SCS Total Energy          =    -420.1849764903186042 [Eh]
	-----------------------------------------------------------

  Dipole Moment: [D]
     X:     1.5076      Y:    -1.3134      Z:     0.0221     Total:     1.9995

*** Psi4 exiting successfully. Buy a developer a beer!
