                               Psi4 1.3.2 release

  ==> Input File <==

--------------------------------------------------------------------------
#psi4
#
memory 32 gb

molecule  {
0 1
  O       -2.3042200    -1.0991630    -0.0003290
  O       -2.3377670     1.1635920     0.0000360
  C       -0.2184647     0.0275122    -0.1000150
  C        0.5080430     1.2243810    -0.0001580
  C        0.4461120    -1.2054740     0.0002260
  C        1.9006900     1.1869520    -0.0000810
  C        1.8404380    -1.2322990     0.0003120
  C        2.5692530    -0.0403490     0.0001580
  C       -1.7002410     0.1214410    -0.0000850
  H       -0.0326500     2.1666470    -0.0003250
  H       -0.1251480    -2.1283920     0.0003360
  H        2.4665660     2.1152060    -0.0002030
  H        2.3606420    -2.1869500     0.0005070
  H        3.6563130    -0.0679050     0.0002230
  H       -3.2647750    -0.9069250    -0.0003290
units angstrom
no_reorient  #important for SAPT in psi4, default
symmetry c1  #important for SAPT in psi4, default
}

set PROPERTIES_ORIGIN ["COM"]
properties('MP2/aug-cc-pvtz', properties = ['dipole'])
--------------------------------------------------------------------------

    Molecular point group: c1
  Charge       = 0
  Multiplicity = 1
  Basis Set: AUG-CC-PVTZ
    Blend: AUG-CC-PVTZ
  Basis Set: (AUG-CC-PVTZ AUX)
    Blend: AUG-CC-PVTZ-JKFIT

    Orbital Energies [Eh]
    ---------------------

    Doubly Occupied:

       1A    -20.617062     2A    -20.549694     3A    -11.394662
       4A    -11.260427     5A    -11.259360     6A    -11.259274
       7A    -11.256606     8A    -11.250012     9A    -11.249176
      10A     -1.460813    11A     -1.355951    12A     -1.170165
      13A     -1.050029    14A     -1.031230    15A     -0.898986
      16A     -0.844343    17A     -0.800856    18A     -0.730262
      19A     -0.704990    20A     -0.676043    21A     -0.640825
      22A     -0.632148    23A     -0.626659    24A     -0.604766
      25A     -0.586385    26A     -0.528331    27A     -0.518586
      28A     -0.508616    29A     -0.484172    30A     -0.457565
      31A     -0.356381    32A     -0.350698

  @DF-RHF Final Energy:  -418.46980585098765

   => Energetics <=

    Nuclear Repulsion Energy =            404.0953779185543908
    One-Electron Energy =               -1370.9002249923316867
    Two-Electron Energy =                 548.3350412227896413
    Total Energy =                       -418.4698058509876546
  Basis Set: (AUG-CC-PVTZ AUX)
    Blend: AUG-CC-PVTZ-RI
    Molecular point group: c1

    Geometry (in Angstrom), charge = 0, multiplicity = 1:

       Center              X                  Y                   Z               Mass
    ------------   -----------------  -----------------  -----------------  -----------------
         O           -2.263267820893    -1.107359689801     0.009505673450    15.994914619570
         O           -2.296814820893     1.155395310199     0.009870673450    15.994914619570
         C           -0.177512520893     0.019315510199    -0.090180326550    12.000000000000
         C            0.548995179107     1.216184310199     0.009676673450    12.000000000000
         C            0.487064179107    -1.213670689801     0.010060673450    12.000000000000
         C            1.941642179107     1.178755310199     0.009753673450    12.000000000000
         C            1.881390179107    -1.240495689801     0.010146673450    12.000000000000
         C            2.610205179107    -0.048545689801     0.009992673450    12.000000000000
         C           -1.659288820893     0.113244310199     0.009749673450    12.000000000000
         H            0.008302179107     2.158450310199     0.009509673450     1.007825032230
         H           -0.084195820893    -2.136588689801     0.010170673450     1.007825032230
         H            2.507518179107     2.107009310199     0.009631673450     1.007825032230
         H            2.401594179107    -2.195146689801     0.010341673450     1.007825032230
         H            3.697265179107    -0.076101689801     0.010057673450     1.007825032230
         H           -3.223822820893    -0.915121689801     0.009505673450     1.007825032230

  Basis Set: AUG-CC-PVTZ
    Blend: AUG-CC-PVTZ
  Basis Set: (AUG-CC-PVTZ AUX)
    Blend: AUG-CC-PVTZ-JKFIT
	 Reference Energy          =    -418.4698058509876546 [Eh]
	 Singles Energy            =      -0.0000000000000000 [Eh]
	 Same-Spin Energy          =      -0.4349333868544217 [Eh]
	 Opposite-Spin Energy      =      -1.3154905304462019 [Eh]
	 Correlation Energy        =      -1.7504239173006235 [Eh]
	 Total Energy              =    -420.2202297682882772 [Eh]

	 ================> DF-SCS-MP2 Energies <==================
	-----------------------------------------------------------
	 SCS Same-Spin Scale       =       0.3333333333333333 [-]
	 SCS Opposite-Spin Scale   =       1.2000000000000000 [-]
	 SCS Same-Spin Energy      =      -0.1449777956181406 [Eh]
	 SCS Opposite-Spin Energy  =      -1.5785886365354422 [Eh]
	 SCS Correlation Energy    =      -1.7235664321535829 [Eh]
	 SCS Total Energy          =    -420.1933722831412297 [Eh]
	-----------------------------------------------------------

  Dipole Moment: [D]
     X:     1.4794      Y:    -1.3178      Z:     0.0102     Total:     1.9812

*** Psi4 exiting successfully. Buy a developer a beer!
