                               Psi4 1.3.2 release

  ==> Input File <==

--------------------------------------------------------------------------
#psi4
#
memory 32 gb

molecule  {
0 1
  O       -2.3042200    -1.0991630    -0.0003290
  O       -2.3377670     1.1635920     0.0000360
  C       -0.2184616     0.0275203    -0.1500150
  C        0.5080430     1.2243810    -0.0001580
  C        0.4461120    -1.2054740     0.0002260
  C        1.9006900     1.1869520    -0.0000810
  C        1.8404380    -1.2322990     0.0003120
  C        2.5692530    -0.0403490     0.0001580
  C       -1.7002410     0.1214410    -0.0000850
  H       -0.0326500     2.1666470    -0.0003250
  H       -0.1251480    -2.1283920     0.0003360
  H        2.4665660     2.1152060    -0.0002030
  H        2.3606420    -2.1869500     0.0005070
  H        3.6563130    -0.0679050     0.0002230
  H       -3.2647750    -0.9069250    -0.0003290
units angstrom
no_reorient  #important for SAPT in psi4, default
symmetry c1  #important for SAPT in psi4, default
}

set PROPERTIES_ORIGIN ["COM"]
properties('MP2/aug-cc-pvtz', properties = ['dipole'])
--------------------------------------------------------------------------

    Molecular point group: c1
  Charge       = 0
  Multiplicity = 1
  Basis Set: AUG-CC-PVTZ
    Blend: AUG-CC-PVTZ
  Basis Set: (AUG-CC-PVTZ AUX)
    Blend: AUG-CC-PVTZ-JKFIT

    Orbital Energies [Eh]
    ---------------------

    Doubly Occupied:

       1A    -20.616871     2A    -20.549499     3A    -11.394762
       4A    -11.261326     5A    -11.260211     6A    -11.259835
       7A    -11.257537     8A    -11.249934     9A    -11.249105
      10A     -1.460564    11A     -1.355740    12A     -1.169630
      13A     -1.049320    14A     -1.031083    15A     -0.898214
      16A     -0.843576    17A     -0.800587    18A     -0.729754
      19A     -0.704748    20A     -0.675955    21A     -0.640865
      22A     -0.631545    23A     -0.626111    24A     -0.604617
      25A     -0.585737    26A     -0.528644    27A     -0.517667
      28A     -0.508248    29A     -0.483965    30A     -0.456904
      31A     -0.356314    32A     -0.350290

  @DF-RHF Final Energy:  -418.46584925566378

   => Energetics <=

    Nuclear Repulsion Energy =            403.9222780037680423
    One-Electron Energy =               -1370.5579331933190588
    Two-Electron Energy =                 548.1698059338872326
    Total Energy =                       -418.4658492556637839
  Basis Set: (AUG-CC-PVTZ AUX)
    Blend: AUG-CC-PVTZ-RI
    Molecular point group: c1

    Geometry (in Angstrom), charge = 0, multiplicity = 1:

       Center              X                  Y                   Z               Mass
    ------------   -----------------  -----------------  -----------------  -----------------
         O           -2.263268125719    -1.107360486282     0.014422224040    15.994914619570
         O           -2.296815125719     1.155394513718     0.014787224040    15.994914619570
         C           -0.177509725719     0.019322813718    -0.135263775960    12.000000000000
         C            0.548994874281     1.216183513718     0.014593224040    12.000000000000
         C            0.487063874281    -1.213671486282     0.014977224040    12.000000000000
         C            1.941641874281     1.178754513718     0.014670224040    12.000000000000
         C            1.881389874281    -1.240496486282     0.015063224040    12.000000000000
         C            2.610204874281    -0.048546486282     0.014909224040    12.000000000000
         C           -1.659289125719     0.113243513718     0.014666224040    12.000000000000
         H            0.008301874281     2.158449513718     0.014426224040     1.007825032230
         H           -0.084196125719    -2.136589486282     0.015087224040     1.007825032230
         H            2.507517874281     2.107008513718     0.014548224040     1.007825032230
         H            2.401593874281    -2.195147486282     0.015258224040     1.007825032230
         H            3.697264874281    -0.076102486282     0.014974224040     1.007825032230
         H           -3.223823125719    -0.915122486282     0.014422224040     1.007825032230

  Basis Set: AUG-CC-PVTZ
    Blend: AUG-CC-PVTZ
  Basis Set: (AUG-CC-PVTZ AUX)
    Blend: AUG-CC-PVTZ-JKFIT
	 Reference Energy          =    -418.4658492556637839 [Eh]
	 Singles Energy            =      -0.0000000000000000 [Eh]
	 Same-Spin Energy          =      -0.4350540090279749 [Eh]
	 Opposite-Spin Energy      =      -1.3158265349349008 [Eh]
	 Correlation Energy        =      -1.7508805439628756 [Eh]
	 Total Energy              =    -420.2167297996266484 [Eh]

	 ================> DF-SCS-MP2 Energies <==================
	-----------------------------------------------------------
	 SCS Same-Spin Scale       =       0.3333333333333333 [-]
	 SCS Opposite-Spin Scale   =       1.2000000000000000 [-]
	 SCS Same-Spin Energy      =      -0.1450180030093249 [Eh]
	 SCS Opposite-Spin Energy  =      -1.5789918419218809 [Eh]
	 SCS Correlation Energy    =      -1.7240098449312058 [Eh]
	 SCS Total Energy          =    -420.1898591005950152 [Eh]
	-----------------------------------------------------------

  Dipole Moment: [D]
     X:     1.4912      Y:    -1.3159      Z:     0.0159     Total:     1.9888

*** Psi4 exiting successfully. Buy a developer a beer!
