                               Psi4 1.3.2 release

  ==> Input File <==

--------------------------------------------------------------------------
#psi4
#
memory 32 gb

molecule  {
0 1
  O       -2.3042200    -1.0991630    -0.0003290
  O       -2.3377670     1.1635920     0.0000360
  C       -0.2184710     0.0274960    -0.0000150
  C        0.5080430     1.2243810    -0.0001580
  C        0.4461120    -1.2054740     0.0002260
  C        1.9006900     1.1869520    -0.0000810
  C        1.8404380    -1.2322990     0.0003120
  C        2.5692530    -0.0403490     0.0001580
  C       -1.7002410     0.1214410    -0.0000850
  H       -0.0326500     2.1666470    -0.0003250
  H       -0.1251480    -2.1283920     0.0003360
  H        2.4665556     2.1152390     0.1997970
  H        2.3606420    -2.1869500     0.0005070
  H        3.6563130    -0.0679050     0.0002230
  H       -3.2647750    -0.9069250    -0.0003290
units angstrom
no_reorient  #important for SAPT in psi4, default
symmetry c1  #important for SAPT in psi4, default
}

set PROPERTIES_ORIGIN ["COM"]
properties('MP2/aug-cc-pvtz', properties = ['dipole'])
--------------------------------------------------------------------------

    Molecular point group: c1
  Charge       = 0
  Multiplicity = 1
  Basis Set: AUG-CC-PVTZ
    Blend: AUG-CC-PVTZ
  Basis Set: (AUG-CC-PVTZ AUX)
    Blend: AUG-CC-PVTZ-JKFIT

    Orbital Energies [Eh]
    ---------------------

    Doubly Occupied:

       1A    -20.617336     2A    -20.549960     3A    -11.394699
       4A    -11.259995     5A    -11.259281     6A    -11.258783
       7A    -11.256213     8A    -11.250823     9A    -11.250218
      10A     -1.461131    11A     -1.356232    12A     -1.170752
      13A     -1.050625    14A     -1.031142    15A     -0.899784
      16A     -0.844132    17A     -0.800940    18A     -0.729978
      19A     -0.704992    20A     -0.676246    21A     -0.639617
      22A     -0.632783    23A     -0.626892    24A     -0.604441
      25A     -0.586414    26A     -0.528754    27A     -0.519972
      28A     -0.506593    29A     -0.484220    30A     -0.458149
      31A     -0.356425    32A     -0.350938

  @DF-RHF Final Energy:  -418.47031147202381

   => Energetics <=

    Nuclear Repulsion Energy =            404.1662627448428111
    One-Electron Energy =               -1371.0362271095577853
    Two-Electron Energy =                 548.3996528926911651
    Total Energy =                       -418.4703114720238091
  Basis Set: (AUG-CC-PVTZ AUX)
    Blend: AUG-CC-PVTZ-RI
    Molecular point group: c1

    Geometry (in Angstrom), charge = 0, multiplicity = 1:

       Center              X                  Y                   Z               Mass
    ------------   -----------------  -----------------  -----------------  -----------------
         O           -2.263267115521    -1.107358369365    -0.001979101984    15.994914619570
         O           -2.296814115521     1.155396630635    -0.001614101984    15.994914619570
         C           -0.177518115521     0.019300630635    -0.001665101984    12.000000000000
         C            0.548995884479     1.216185630635    -0.001808101984    12.000000000000
         C            0.487064884479    -1.213669369365    -0.001424101984    12.000000000000
         C            1.941642884479     1.178756630635    -0.001731101984    12.000000000000
         C            1.881390884479    -1.240494369365    -0.001338101984    12.000000000000
         C            2.610205884479    -0.048544369365    -0.001492101984    12.000000000000
         C           -1.659288115521     0.113245630635    -0.001735101984    12.000000000000
         H            0.008302884479     2.158451630635    -0.001975101984     1.007825032230
         H           -0.084195115521    -2.136587369365    -0.001314101984     1.007825032230
         H            2.507508484479     2.107043630635     0.198146898016     1.007825032230
         H            2.401594884479    -2.195145369365    -0.001143101984     1.007825032230
         H            3.697265884479    -0.076100369365    -0.001427101984     1.007825032230
         H           -3.223822115521    -0.915120369365    -0.001979101984     1.007825032230

  Basis Set: AUG-CC-PVTZ
    Blend: AUG-CC-PVTZ
  Basis Set: (AUG-CC-PVTZ AUX)
    Blend: AUG-CC-PVTZ-JKFIT
	 Reference Energy          =    -418.4703114720238091 [Eh]
	 Singles Energy            =      -0.0000000000000000 [Eh]
	 Same-Spin Energy          =      -0.4349552408833134 [Eh]
	 Opposite-Spin Energy      =      -1.3156289142716640 [Eh]
	 Correlation Energy        =      -1.7505841551549775 [Eh]
	 Total Energy              =    -420.2208956271787770 [Eh]

	 ================> DF-SCS-MP2 Energies <==================
	-----------------------------------------------------------
	 SCS Same-Spin Scale       =       0.3333333333333333 [-]
	 SCS Opposite-Spin Scale   =       1.2000000000000000 [-]
	 SCS Same-Spin Energy      =      -0.1449850802944378 [Eh]
	 SCS Opposite-Spin Energy  =      -1.5787546971259967 [Eh]
	 SCS Correlation Energy    =      -1.7237397774204344 [Eh]
	 SCS Total Energy          =    -420.1940512494442714 [Eh]
	-----------------------------------------------------------

  Dipole Moment: [D]
     X:     1.4501      Y:    -1.3452      Z:     0.1222     Total:     1.9817

*** Psi4 exiting successfully. Buy a developer a beer!
