                               Psi4 1.3.2 release

  ==> Input File <==

--------------------------------------------------------------------------
#psi4
#
memory 32 gb

molecule  {
0 1
  O       -2.3042200    -1.0991630    -0.0003290
  O       -2.3377670     1.1635920     0.0000360
  C       -0.2184710     0.0274960    -0.0000150
  C        0.5080430     1.2243810    -0.0001580
  C        0.4461120    -1.2054740     0.0002260
  C        1.9006900     1.1869520    -0.0000810
  C        1.8404380    -1.2322990     0.0003120
  C        2.5692530    -0.0403490     0.0001580
  C       -1.7002410     0.1214410    -0.0000850
  H       -0.0326500     2.1666470    -0.0003250
  H       -0.1251480    -2.1283920     0.0003360
  H        2.4665504     2.1152555     0.2997970
  H        2.3606420    -2.1869500     0.0005070
  H        3.6563130    -0.0679050     0.0002230
  H       -3.2647750    -0.9069250    -0.0003290
units angstrom
no_reorient  #important for SAPT in psi4, default
symmetry c1  #important for SAPT in psi4, default
}

set PROPERTIES_ORIGIN ["COM"]
properties('MP2/aug-cc-pvtz', properties = ['dipole'])
--------------------------------------------------------------------------

    Molecular point group: c1
  Charge       = 0
  Multiplicity = 1
  Basis Set: AUG-CC-PVTZ
    Blend: AUG-CC-PVTZ
  Basis Set: (AUG-CC-PVTZ AUX)
    Blend: AUG-CC-PVTZ-JKFIT

    Orbital Energies [Eh]
    ---------------------

    Doubly Occupied:

       1A    -20.617484     2A    -20.550091     3A    -11.394851
       4A    -11.260377     5A    -11.259670     6A    -11.259070
       7A    -11.256659     8A    -11.252723     9A    -11.250402
      10A     -1.461276    11A     -1.356370    12A     -1.170942
      13A     -1.050685    14A     -1.030903    15A     -0.899988
      16A     -0.843217    17A     -0.800798    18A     -0.729233
      19A     -0.704770    20A     -0.676412    21A     -0.638398
      22A     -0.632922    23A     -0.626592    24A     -0.603893
      25A     -0.585718    26A     -0.529486    27A     -0.520506
      28A     -0.504069    29A     -0.484029    30A     -0.458214
      31A     -0.356433    32A     -0.350807

  @DF-RHF Final Energy:  -418.46665041749213

   => Energetics <=

    Nuclear Repulsion Energy =            404.0841049357516681
    One-Electron Energy =               -1370.8675394571434936
    Two-Electron Energy =                 548.3167841038997494
    Total Energy =                       -418.4666504174921329
  Basis Set: (AUG-CC-PVTZ AUX)
    Blend: AUG-CC-PVTZ-RI
    Molecular point group: c1

    Geometry (in Angstrom), charge = 0, multiplicity = 1:

       Center              X                  Y                   Z               Mass
    ------------   -----------------  -----------------  -----------------  -----------------
         O           -2.263267072577    -1.107358505628    -0.002804939111    15.994914619570
         O           -2.296814072577     1.155396494372    -0.002439939111    15.994914619570
         C           -0.177518072577     0.019300494372    -0.002490939111    12.000000000000
         C            0.548995927423     1.216185494372    -0.002633939111    12.000000000000
         C            0.487064927423    -1.213669505628    -0.002249939111    12.000000000000
         C            1.941642927423     1.178756494372    -0.002556939111    12.000000000000
         C            1.881390927423    -1.240494505628    -0.002163939111    12.000000000000
         C            2.610205927423    -0.048544505628    -0.002317939111    12.000000000000
         C           -1.659288072577     0.113245494372    -0.002560939111    12.000000000000
         H            0.008302927423     2.158451494372    -0.002800939111     1.007825032230
         H           -0.084195072577    -2.136587505628    -0.002139939111     1.007825032230
         H            2.507503327423     2.107059994372     0.297321060889     1.007825032230
         H            2.401594927423    -2.195145505628    -0.001968939111     1.007825032230
         H            3.697265927423    -0.076100505628    -0.002252939111     1.007825032230
         H           -3.223822072577    -0.915120505628    -0.002804939111     1.007825032230

  Basis Set: AUG-CC-PVTZ
    Blend: AUG-CC-PVTZ
  Basis Set: (AUG-CC-PVTZ AUX)
    Blend: AUG-CC-PVTZ-JKFIT
	 Reference Energy          =    -418.4666504174921329 [Eh]
	 Singles Energy            =      -0.0000000000000000 [Eh]
	 Same-Spin Energy          =      -0.4351020195782990 [Eh]
	 Opposite-Spin Energy      =      -1.3160488506170520 [Eh]
	 Correlation Energy        =      -1.7511508701953511 [Eh]
	 Total Energy              =    -420.2178012876875073 [Eh]

	 ================> DF-SCS-MP2 Energies <==================
	-----------------------------------------------------------
	 SCS Same-Spin Scale       =       0.3333333333333333 [-]
	 SCS Opposite-Spin Scale   =       1.2000000000000000 [-]
	 SCS Same-Spin Energy      =      -0.1450340065260997 [Eh]
	 SCS Opposite-Spin Energy  =      -1.5792586207404624 [Eh]
	 SCS Correlation Energy    =      -1.7242926272665620 [Eh]
	 SCS Total Energy          =    -420.1909430447586828 [Eh]
	-----------------------------------------------------------

  Dipole Moment: [D]
     X:     1.4259      Y:    -1.3768      Z:     0.1810     Total:     1.9904

*** Psi4 exiting successfully. Buy a developer a beer!
