                               Psi4 1.3.2 release

  ==> Input File <==

--------------------------------------------------------------------------
#psi4
#
memory 32 gb

molecule  {
0 1
  O       -2.3042200    -1.0991630    -0.0003290
  O       -2.3377670     1.1635920     0.0000360
  C       -0.2184710     0.0274960    -0.0000150
  C        0.5080430     1.2243810    -0.0001580
  C        0.4461120    -1.2054740     0.0002260
  C        1.9006900     1.1869520    -0.0000810
  C        1.8404380    -1.2322990     0.0003120
  C        2.5692530    -0.0403490     0.0001580
  C       -1.7002410     0.1214410    -0.0000850
  H       -0.0326500     2.1666470    -0.0003250
  H       -0.1251480    -2.1283920     0.0003360
  H        2.4665582     2.1152307     0.1497970
  H        2.3606420    -2.1869500     0.0005070
  H        3.6563130    -0.0679050     0.0002230
  H       -3.2647750    -0.9069250    -0.0003290
units angstrom
no_reorient  #important for SAPT in psi4, default
symmetry c1  #important for SAPT in psi4, default
}

set PROPERTIES_ORIGIN ["COM"]
properties('MP2/aug-cc-pvtz', properties = ['dipole'])
--------------------------------------------------------------------------

    Molecular point group: c1
  Charge       = 0
  Multiplicity = 1
  Basis Set: AUG-CC-PVTZ
    Blend: AUG-CC-PVTZ
  Basis Set: (AUG-CC-PVTZ AUX)
    Blend: AUG-CC-PVTZ-JKFIT

    Orbital Energies [Eh]
    ---------------------

    Doubly Occupied:

       1A    -20.617285     2A    -20.549915     3A    -11.394647
       4A    -11.259868     5A    -11.259148     6A    -11.258678
       7A    -11.256060     8A    -11.250195     9A    -11.250103
      10A     -1.461081    11A     -1.356185    12A     -1.170689
      13A     -1.050611    14A     -1.031235    15A     -0.899714
      16A     -0.844490    17A     -0.800998    18A     -0.730276
      19A     -0.705076    20A     -0.676189    21A     -0.640109
      22A     -0.632735    23A     -0.626985    24A     -0.604636
      25A     -0.586637    26A     -0.528458    27A     -0.519739
      28A     -0.507563    29A     -0.484276    30A     -0.458125
      31A     -0.356434    32A     -0.350982

  @DF-RHF Final Energy:  -418.47150268770412

   => Energetics <=

    Nuclear Repulsion Energy =            404.1959256182479407
    One-Electron Energy =               -1371.0966104894473574
    Two-Electron Energy =                 548.4291821834954135
    Total Energy =                       -418.4715026877040600
  Basis Set: (AUG-CC-PVTZ AUX)
    Blend: AUG-CC-PVTZ-RI
    Molecular point group: c1

    Geometry (in Angstrom), charge = 0, multiplicity = 1:

       Center              X                  Y                   Z               Mass
    ------------   -----------------  -----------------  -----------------  -----------------
         O           -2.263267136993    -1.107358300821    -0.001566183421    15.994914619570
         O           -2.296814136993     1.155396699179    -0.001201183421    15.994914619570
         C           -0.177518136993     0.019300699179    -0.001252183421    12.000000000000
         C            0.548995863007     1.216185699179    -0.001395183421    12.000000000000
         C            0.487064863007    -1.213669300821    -0.001011183421    12.000000000000
         C            1.941642863007     1.178756699179    -0.001318183421    12.000000000000
         C            1.881390863007    -1.240494300821    -0.000925183421    12.000000000000
         C            2.610205863007    -0.048544300821    -0.001079183421    12.000000000000
         C           -1.659288136993     0.113245699179    -0.001322183421    12.000000000000
         H            0.008302863007     2.158451699179    -0.001562183421     1.007825032230
         H           -0.084195136993    -2.136587300821    -0.000901183421     1.007825032230
         H            2.507511063007     2.107035399179     0.148559816579     1.007825032230
         H            2.401594863007    -2.195145300821    -0.000730183421     1.007825032230
         H            3.697265863007    -0.076100300821    -0.001014183421     1.007825032230
         H           -3.223822136993    -0.915120300821    -0.001566183421     1.007825032230

  Basis Set: AUG-CC-PVTZ
    Blend: AUG-CC-PVTZ
  Basis Set: (AUG-CC-PVTZ AUX)
    Blend: AUG-CC-PVTZ-JKFIT
	 Reference Energy          =    -418.4715026877041169 [Eh]
	 Singles Energy            =      -0.0000000000000000 [Eh]
	 Same-Spin Energy          =      -0.4349023733751022 [Eh]
	 Opposite-Spin Energy      =      -1.3154886678321320 [Eh]
	 Correlation Energy        =      -1.7503910412072341 [Eh]
	 Total Energy              =    -420.2218937289113683 [Eh]

	 ================> DF-SCS-MP2 Energies <==================
	-----------------------------------------------------------
	 SCS Same-Spin Scale       =       0.3333333333333333 [-]
	 SCS Opposite-Spin Scale   =       1.2000000000000000 [-]
	 SCS Same-Spin Energy      =      -0.1449674577917007 [Eh]
	 SCS Opposite-Spin Energy  =      -1.5785864013985584 [Eh]
	 SCS Correlation Energy    =      -1.7235538591902593 [Eh]
	 SCS Total Energy          =    -420.1950565468943637 [Eh]
	-----------------------------------------------------------

  Dipole Moment: [D]
     X:     1.4587      Y:    -1.3340      Z:     0.0921     Total:     1.9788

*** Psi4 exiting successfully. Buy a developer a beer!
