                               Psi4 1.3.2 release

  ==> Input File <==

--------------------------------------------------------------------------
#psi4
#
memory 32 gb

molecule  {
0 1
  O       -2.3042200    -1.0991630    -0.0003290
  O       -2.3377670     1.1635920     0.0000360
  C       -0.2184710     0.0274960    -0.0000150
  C        0.5080430     1.2243810    -0.0001580
  C        0.4461120    -1.2054740     0.0002260
  C        1.9006900     1.1869520    -0.0000810
  C        1.8404380    -1.2322990     0.0003120
  C        2.5692530    -0.0403490     0.0001580
  C       -1.7002340     0.1214171    -0.1500850
  H       -0.0326500     2.1666470    -0.0003250
  H       -0.1251480    -2.1283920     0.0003360
  H        2.4665660     2.1152060    -0.0002030
  H        2.3606420    -2.1869500     0.0005070
  H        3.6563130    -0.0679050     0.0002230
  H       -3.2647750    -0.9069250    -0.0003290
units angstrom
no_reorient  #important for SAPT in psi4, default
symmetry c1  #important for SAPT in psi4, default
}

set PROPERTIES_ORIGIN ["COM"]
properties('MP2/aug-cc-pvtz', properties = ['dipole'])
--------------------------------------------------------------------------

    Molecular point group: c1
  Charge       = 0
  Multiplicity = 1
  Basis Set: AUG-CC-PVTZ
    Blend: AUG-CC-PVTZ
  Basis Set: (AUG-CC-PVTZ AUX)
    Blend: AUG-CC-PVTZ-JKFIT

    Orbital Energies [Eh]
    ---------------------

    Doubly Occupied:

       1A    -20.616546     2A    -20.552193     3A    -11.397756
       4A    -11.260819     5A    -11.258835     6A    -11.258756
       7A    -11.255744     8A    -11.250106     9A    -11.249276
      10A     -1.457111    11A     -1.351515    12A     -1.170398
      13A     -1.049724    14A     -1.031300    15A     -0.898241
      16A     -0.844760    17A     -0.800189    18A     -0.728903
      19A     -0.704067    20A     -0.674656    21A     -0.640522
      22A     -0.629769    23A     -0.626476    24A     -0.604651
      25A     -0.585721    26A     -0.528321    27A     -0.518437
      28A     -0.508942    29A     -0.481947    30A     -0.457443
      31A     -0.355625    32A     -0.351011

  @DF-RHF Final Energy:  -418.46156223231594

   => Energetics <=

    Nuclear Repulsion Energy =            403.8544747555133654
    One-Electron Energy =               -1370.4325536496824043
    Two-Electron Energy =                 548.1165166618530975
    Total Energy =                       -418.4615622323159414
  Basis Set: (AUG-CC-PVTZ AUX)
    Blend: AUG-CC-PVTZ-RI
    Molecular point group: c1

    Geometry (in Angstrom), charge = 0, multiplicity = 1:

       Center              X                  Y                   Z               Mass
    ------------   -----------------  -----------------  -----------------  -----------------
         O           -2.263267889725    -1.107355746728     0.014422224040    15.994914619570
         O           -2.296814889725     1.155399253272     0.014787224040    15.994914619570
         C           -0.177518889725     0.019303253272     0.014736224040    12.000000000000
         C            0.548995110275     1.216188253272     0.014593224040    12.000000000000
         C            0.487064110275    -1.213666746728     0.014977224040    12.000000000000
         C            1.941642110275     1.178759253272     0.014670224040    12.000000000000
         C            1.881390110275    -1.240491746728     0.015063224040    12.000000000000
         C            2.610205110275    -0.048541746728     0.014909224040    12.000000000000
         C           -1.659281889725     0.113224353272    -0.135333775960    12.000000000000
         H            0.008302110275     2.158454253272     0.014426224040     1.007825032230
         H           -0.084195889725    -2.136584746728     0.015087224040     1.007825032230
         H            2.507518110275     2.107013253272     0.014548224040     1.007825032230
         H            2.401594110275    -2.195142746728     0.015258224040     1.007825032230
         H            3.697265110275    -0.076097746728     0.014974224040     1.007825032230
         H           -3.223822889725    -0.915117746728     0.014422224040     1.007825032230

  Basis Set: AUG-CC-PVTZ
    Blend: AUG-CC-PVTZ
  Basis Set: (AUG-CC-PVTZ AUX)
    Blend: AUG-CC-PVTZ-JKFIT
	 Reference Energy          =    -418.4615622323159414 [Eh]
	 Singles Energy            =      -0.0000000000000000 [Eh]
	 Same-Spin Energy          =      -0.4355202042741472 [Eh]
	 Opposite-Spin Energy      =      -1.3169253133683880 [Eh]
	 Correlation Energy        =      -1.7524455176425353 [Eh]
	 Total Energy              =    -420.2140077499584550 [Eh]

	 ================> DF-SCS-MP2 Energies <==================
	-----------------------------------------------------------
	 SCS Same-Spin Scale       =       0.3333333333333333 [-]
	 SCS Opposite-Spin Scale   =       1.2000000000000000 [-]
	 SCS Same-Spin Energy      =      -0.1451734014247157 [Eh]
	 SCS Opposite-Spin Energy  =      -1.5803103760420656 [Eh]
	 SCS Correlation Energy    =      -1.7254837774667813 [Eh]
	 SCS Total Energy          =    -420.1870460097827049 [Eh]
	-----------------------------------------------------------

  Dipole Moment: [D]
     X:     1.4616      Y:    -1.2855      Z:    -0.1854     Total:     1.9553

*** Psi4 exiting successfully. Buy a developer a beer!
