                               Psi4 1.3.2 release

  ==> Input File <==

--------------------------------------------------------------------------
#psi4
#
memory 32 gb

molecule  {
0 1
  O       -2.3042200    -1.0991630    -0.0003290
  O       -2.3377670     1.1635920     0.0000360
  C       -0.2184710     0.0274960    -0.0000150
  C        0.5080430     1.2243810    -0.0001580
  C        0.4461120    -1.2054740     0.0002260
  C        1.9006900     1.1869520    -0.0000810
  C        1.8404380    -1.2322990     0.0003120
  C        2.5692530    -0.0403490     0.0001580
  C       -1.7002410     0.1214410    -0.0000850
  H       -0.0326500     2.1666470    -0.0003250
  H       -0.1251480    -2.1283920     0.0003360
  H        2.4665660     2.1152060    -0.0002030
  H        2.3606420    -2.1869500     0.0005070
  H        3.6562990    -0.0678640     0.2502230
  H       -3.2647750    -0.9069250    -0.0003290
units angstrom
no_reorient  #important for SAPT in psi4, default
symmetry c1  #important for SAPT in psi4, default
}

set PROPERTIES_ORIGIN ["COM"]
properties('MP2/aug-cc-pvtz', properties = ['dipole'])
--------------------------------------------------------------------------

    Molecular point group: c1
  Charge       = 0
  Multiplicity = 1
  Basis Set: AUG-CC-PVTZ
    Blend: AUG-CC-PVTZ
  Basis Set: (AUG-CC-PVTZ AUX)
    Blend: AUG-CC-PVTZ-JKFIT

    Orbital Energies [Eh]
    ---------------------

    Doubly Occupied:

       1A    -20.617460     2A    -20.550166     3A    -11.394871
       4A    -11.261476     5A    -11.260051     6A    -11.258875
       7A    -11.256054     8A    -11.250564     9A    -11.249715
      10A     -1.461273    11A     -1.356394    12A     -1.170794
      13A     -1.050147    14A     -1.031646    15A     -0.898658
      16A     -0.845157    17A     -0.800601    18A     -0.729999
      19A     -0.705409    20A     -0.672219    21A     -0.641044
      22A     -0.632925    23A     -0.627221    24A     -0.605038
      25A     -0.586253    26A     -0.530497    27A     -0.514426
      28A     -0.509135    29A     -0.484167    30A     -0.458334
      31A     -0.356000    32A     -0.351253

  @DF-RHF Final Energy:  -418.46864576580998

   => Energetics <=

    Nuclear Repulsion Energy =            404.1298748738180961
    One-Electron Energy =               -1370.9613983180311152
    Two-Electron Energy =                 548.3628776784030379
    Total Energy =                       -418.4686457658099243
  Basis Set: (AUG-CC-PVTZ AUX)
    Blend: AUG-CC-PVTZ-RI
    Molecular point group: c1

    Geometry (in Angstrom), charge = 0, multiplicity = 1:

       Center              X                  Y                   Z               Mass
    ------------   -----------------  -----------------  -----------------  -----------------
         O           -2.263267085791    -1.107358435432    -0.002392020547    15.994914619570
         O           -2.296814085791     1.155396564568    -0.002027020547    15.994914619570
         C           -0.177518085791     0.019300564568    -0.002078020547    12.000000000000
         C            0.548995914209     1.216185564568    -0.002221020547    12.000000000000
         C            0.487064914209    -1.213669435432    -0.001837020547    12.000000000000
         C            1.941642914209     1.178756564568    -0.002144020547    12.000000000000
         C            1.881390914209    -1.240494435432    -0.001751020547    12.000000000000
         C            2.610205914209    -0.048544435432    -0.001905020547    12.000000000000
         C           -1.659288085791     0.113245564568    -0.002148020547    12.000000000000
         H            0.008302914209     2.158451564568    -0.002388020547     1.007825032230
         H           -0.084195085791    -2.136587435432    -0.001727020547     1.007825032230
         H            2.507518914209     2.107010564568    -0.002266020547     1.007825032230
         H            2.401594914209    -2.195145435432    -0.001556020547     1.007825032230
         H            3.697251914209    -0.076059435432     0.248159979453     1.007825032230
         H           -3.223822085791    -0.915120435432    -0.002392020547     1.007825032230

  Basis Set: AUG-CC-PVTZ
    Blend: AUG-CC-PVTZ
  Basis Set: (AUG-CC-PVTZ AUX)
    Blend: AUG-CC-PVTZ-JKFIT
	 Reference Energy          =    -418.4686457658099812 [Eh]
	 Singles Energy            =      -0.0000000000000000 [Eh]
	 Same-Spin Energy          =      -0.4350762870126542 [Eh]
	 Opposite-Spin Energy      =      -1.3158967691598886 [Eh]
	 Correlation Energy        =      -1.7509730561725427 [Eh]
	 Total Energy              =    -420.2196188219825217 [Eh]

	 ================> DF-SCS-MP2 Energies <==================
	-----------------------------------------------------------
	 SCS Same-Spin Scale       =       0.3333333333333333 [-]
	 SCS Opposite-Spin Scale   =       1.2000000000000000 [-]
	 SCS Same-Spin Energy      =      -0.1450254290042181 [Eh]
	 SCS Opposite-Spin Energy  =      -1.5790761229918664 [Eh]
	 SCS Correlation Energy    =      -1.7241015519960845 [Eh]
	 SCS Total Energy          =    -420.1927473178060382 [Eh]
	-----------------------------------------------------------

  Dipole Moment: [D]
     X:     1.4166      Y:    -1.3180      Z:     0.1555     Total:     1.9411

*** Psi4 exiting successfully. Buy a developer a beer!
