                               Psi4 1.3.2 release

  ==> Input File <==

--------------------------------------------------------------------------
#psi4
#
memory 32 gb

molecule  {
0 1
  O       -2.3042200    -1.0991630    -0.0003290
  O       -2.3377670     1.1635920     0.0000360
  C       -0.2184710     0.0274960    -0.0000150
  C        0.5080430     1.2243810    -0.0001580
  C        0.4461120    -1.2054740     0.0002260
  C        1.9006900     1.1869520    -0.0000810
  C        1.8404380    -1.2322990     0.0003120
  C        2.5692530    -0.0403490     0.0001580
  C       -1.7002410     0.1214410    -0.0000850
  H       -0.0326500     2.1666470    -0.0003250
  H       -0.1251480    -2.1283920     0.0003360
  H        2.4665660     2.1152060    -0.0002030
  H        2.3606420    -2.1869500     0.0005070
  H        3.6563018    -0.0678722     0.2002230
  H       -3.2647750    -0.9069250    -0.0003290
units angstrom
no_reorient  #important for SAPT in psi4, default
symmetry c1  #important for SAPT in psi4, default
}

set PROPERTIES_ORIGIN ["COM"]
properties('MP2/aug-cc-pvtz', properties = ['dipole'])
--------------------------------------------------------------------------

    Molecular point group: c1
  Charge       = 0
  Multiplicity = 1
  Basis Set: AUG-CC-PVTZ
    Blend: AUG-CC-PVTZ
  Basis Set: (AUG-CC-PVTZ AUX)
    Blend: AUG-CC-PVTZ-JKFIT

    Orbital Energies [Eh]
    ---------------------

    Doubly Occupied:

       1A    -20.617373     2A    -20.550055     3A    -11.394766
       4A    -11.260587     5A    -11.259921     6A    -11.258758
       7A    -11.255985     8A    -11.250390     9A    -11.249543
      10A     -1.461181    11A     -1.356297    12A     -1.170724
      13A     -1.050299    14A     -1.031542    15A     -0.898985
      16A     -0.845091    17A     -0.800759    18A     -0.730220
      19A     -0.705328    20A     -0.673589    21A     -0.640951
      22A     -0.632835    23A     -0.627175    24A     -0.604981
      25A     -0.586488    26A     -0.529853    27A     -0.515965
      28A     -0.509057    29A     -0.484236    30A     -0.458248
      31A     -0.356156    32A     -0.351174

  @DF-RHF Final Energy:  -418.47027162305346

   => Energetics <=

    Nuclear Repulsion Energy =            404.1669342891416932
    One-Electron Energy =               -1371.0373878227121622
    Two-Electron Energy =                 548.4001819105170625
    Total Energy =                       -418.4702716230534634
  Basis Set: (AUG-CC-PVTZ AUX)
    Blend: AUG-CC-PVTZ-RI
    Molecular point group: c1

    Geometry (in Angstrom), charge = 0, multiplicity = 1:

       Center              X                  Y                   Z               Mass
    ------------   -----------------  -----------------  -----------------  -----------------
         O           -2.263267108914    -1.107358367713    -0.001979101984    15.994914619570
         O           -2.296814108914     1.155396632287    -0.001614101984    15.994914619570
         C           -0.177518108914     0.019300632287    -0.001665101984    12.000000000000
         C            0.548995891086     1.216185632287    -0.001808101984    12.000000000000
         C            0.487064891086    -1.213669367713    -0.001424101984    12.000000000000
         C            1.941642891086     1.178756632287    -0.001731101984    12.000000000000
         C            1.881390891086    -1.240494367713    -0.001338101984    12.000000000000
         C            2.610205891086    -0.048544367713    -0.001492101984    12.000000000000
         C           -1.659288108914     0.113245632287    -0.001735101984    12.000000000000
         H            0.008302891086     2.158451632287    -0.001975101984     1.007825032230
         H           -0.084195108914    -2.136587367713    -0.001314101984     1.007825032230
         H            2.507518891086     2.107010632287    -0.001853101984     1.007825032230
         H            2.401594891086    -2.195145367713    -0.001143101984     1.007825032230
         H            3.697254691086    -0.076067567713     0.198572898016     1.007825032230
         H           -3.223822108914    -0.915120367713    -0.001979101984     1.007825032230

  Basis Set: AUG-CC-PVTZ
    Blend: AUG-CC-PVTZ
  Basis Set: (AUG-CC-PVTZ AUX)
    Blend: AUG-CC-PVTZ-JKFIT
	 Reference Energy          =    -418.4702716230534634 [Eh]
	 Singles Energy            =      -0.0000000000000000 [Eh]
	 Same-Spin Energy          =      -0.4349904013694038 [Eh]
	 Opposite-Spin Energy      =      -1.3156769053038408 [Eh]
	 Correlation Energy        =      -1.7506673066732445 [Eh]
	 Total Energy              =    -420.2209389297266853 [Eh]

	 ================> DF-SCS-MP2 Energies <==================
	-----------------------------------------------------------
	 SCS Same-Spin Scale       =       0.3333333333333333 [-]
	 SCS Opposite-Spin Scale   =       1.2000000000000000 [-]
	 SCS Same-Spin Energy      =      -0.1449968004564679 [Eh]
	 SCS Opposite-Spin Energy  =      -1.5788122863646090 [Eh]
	 SCS Correlation Energy    =      -1.7238090868210769 [Eh]
	 SCS Total Energy          =    -420.1940807098745267 [Eh]
	-----------------------------------------------------------

  Dipole Moment: [D]
     X:     1.4355      Y:    -1.3185      Z:     0.1252     Total:     1.9532

*** Psi4 exiting successfully. Buy a developer a beer!
