                               Psi4 1.3.2 release

  ==> Input File <==

--------------------------------------------------------------------------
#psi4
#
memory 32 gb

molecule  {
0 1
  O       -2.3042200    -1.0991630    -0.0003290
  O       -2.3377670     1.1635920     0.0000360
  C       -0.2184710     0.0274960    -0.0000150
  C        0.5080430     1.2243810    -0.0001580
  C        0.4461120    -1.2054740     0.0002260
  C        1.9006900     1.1869520    -0.0000810
  C        1.8404380    -1.2322990     0.0003120
  C        2.5692530    -0.0403490     0.0001580
  C       -1.7002317     0.1214092    -0.2000850
  H       -0.0326500     2.1666470    -0.0003250
  H       -0.1251480    -2.1283920     0.0003360
  H        2.4665660     2.1152060    -0.0002030
  H        2.3606420    -2.1869500     0.0005070
  H        3.6563130    -0.0679050     0.0002230
  H       -3.2647750    -0.9069250    -0.0003290
units angstrom
no_reorient  #important for SAPT in psi4, default
symmetry c1  #important for SAPT in psi4, default
}

set PROPERTIES_ORIGIN ["COM"]
properties('MP2/aug-cc-pvtz', properties = ['dipole'])
--------------------------------------------------------------------------

    Molecular point group: c1
  Charge       = 0
  Multiplicity = 1
  Basis Set: AUG-CC-PVTZ
    Blend: AUG-CC-PVTZ
  Basis Set: (AUG-CC-PVTZ AUX)
    Blend: AUG-CC-PVTZ-JKFIT

    Orbital Energies [Eh]
    ---------------------

    Doubly Occupied:

       1A    -20.616006     2A    -20.554033     3A    -11.400111
       4A    -11.261969     5A    -11.258717     6A    -11.258640
       7A    -11.255633     8A    -11.250119     9A    -11.249298
      10A     -1.454105    11A     -1.348066    12A     -1.170236
      13A     -1.049060    14A     -1.031249    15A     -0.897173
      16A     -0.844596    17A     -0.799531    18A     -0.727587
      19A     -0.703173    20A     -0.673480    21A     -0.640323
      22A     -0.627598    23A     -0.625968    24A     -0.604471
      25A     -0.584772    26A     -0.528486    27A     -0.517752
      28A     -0.508956    29A     -0.480173    30A     -0.457001
      31A     -0.355005    32A     -0.350979

  @DF-RHF Final Energy:  -418.45268740923768

   => Energetics <=

    Nuclear Repulsion Energy =            403.5632705833048703
    One-Electron Energy =               -1369.8633821391742913
    Two-Electron Energy =                 547.8474241466317380
    Total Energy =                       -418.4526874092376829
  Basis Set: (AUG-CC-PVTZ AUX)
    Blend: AUG-CC-PVTZ-RI
    Molecular point group: c1

    Geometry (in Angstrom), charge = 0, multiplicity = 1:

       Center              X                  Y                   Z               Mass
    ------------   -----------------  -----------------  -----------------  -----------------
         O           -2.263268115886    -1.107354969913     0.019338774631    15.994914619570
         O           -2.296815115886     1.155400030087     0.019703774631    15.994914619570
         C           -0.177519115886     0.019304030087     0.019652774631    12.000000000000
         C            0.548994884114     1.216189030087     0.019509774631    12.000000000000
         C            0.487063884114    -1.213665969913     0.019893774631    12.000000000000
         C            1.941641884114     1.178760030087     0.019586774631    12.000000000000
         C            1.881389884114    -1.240490969913     0.019979774631    12.000000000000
         C            2.610204884114    -0.048540969913     0.019825774631    12.000000000000
         C           -1.659279815886     0.113217230087    -0.180417225369    12.000000000000
         H            0.008301884114     2.158455030087     0.019342774631     1.007825032230
         H           -0.084196115886    -2.136583969913     0.020003774631     1.007825032230
         H            2.507517884114     2.107014030087     0.019464774631     1.007825032230
         H            2.401593884114    -2.195141969913     0.020174774631     1.007825032230
         H            3.697264884114    -0.076096969913     0.019890774631     1.007825032230
         H           -3.223823115886    -0.915116969913     0.019338774631     1.007825032230

  Basis Set: AUG-CC-PVTZ
    Blend: AUG-CC-PVTZ
  Basis Set: (AUG-CC-PVTZ AUX)
    Blend: AUG-CC-PVTZ-JKFIT
	 Reference Energy          =    -418.4526874092376829 [Eh]
	 Singles Energy            =      -0.0000000000000000 [Eh]
	 Same-Spin Energy          =      -0.4360540643263339 [Eh]
	 Opposite-Spin Energy      =      -1.3183410920172685 [Eh]
	 Correlation Energy        =      -1.7543951563436022 [Eh]
	 Total Energy              =    -420.2070825655812882 [Eh]

	 ================> DF-SCS-MP2 Energies <==================
	-----------------------------------------------------------
	 SCS Same-Spin Scale       =       0.3333333333333333 [-]
	 SCS Opposite-Spin Scale   =       1.2000000000000000 [-]
	 SCS Same-Spin Energy      =      -0.1453513547754446 [Eh]
	 SCS Opposite-Spin Energy  =      -1.5820093104207220 [Eh]
	 SCS Correlation Energy    =      -1.7273606651961666 [Eh]
	 SCS Total Energy          =    -420.1800480744338415 [Eh]
	-----------------------------------------------------------

  Dipole Moment: [D]
     X:     1.4546      Y:    -1.2586      Z:    -0.2435     Total:     1.9389

*** Psi4 exiting successfully. Buy a developer a beer!
