                               Psi4 1.3.2 release

  ==> Input File <==

--------------------------------------------------------------------------
#psi4
#
memory 32 gb

molecule  {
0 1
  O       -2.3042200    -1.0991630    -0.0003290
  O       -2.3377670     1.1635920     0.0000360
  C       -0.2184710     0.0274960    -0.0000150
  C        0.5080430     1.2243810    -0.0001580
  C        0.4461120    -1.2054740     0.0002260
  C        1.9006900     1.1869520    -0.0000810
  C        1.8404380    -1.2322990     0.0003120
  C        2.5692530    -0.0403490     0.0001580
  C       -1.7002410     0.1214410    -0.0000850
  H       -0.0326500     2.1666470    -0.0003250
  H       -0.1251480    -2.1283920     0.0003360
  H        2.4665608     2.1152225     0.0997970
  H        2.3606420    -2.1869500     0.0005070
  H        3.6563130    -0.0679050     0.0002230
  H       -3.2647750    -0.9069250    -0.0003290
units angstrom
no_reorient  #important for SAPT in psi4, default
symmetry c1  #important for SAPT in psi4, default
}

set PROPERTIES_ORIGIN ["COM"]
properties('MP2/aug-cc-pvtz', properties = ['dipole'])
--------------------------------------------------------------------------

    Molecular point group: c1
  Charge       = 0
  Multiplicity = 1
  Basis Set: AUG-CC-PVTZ
    Blend: AUG-CC-PVTZ
  Basis Set: (AUG-CC-PVTZ AUX)
    Blend: AUG-CC-PVTZ-JKFIT

    Orbital Energies [Eh]
    ---------------------

    Doubly Occupied:

       1A    -20.617248     2A    -20.549883     3A    -11.394611
       4A    -11.259780     5A    -11.259055     6A    -11.258603
       7A    -11.255953     8A    -11.250123     9A    -11.249641
      10A     -1.461045    11A     -1.356151    12A     -1.170645
      13A     -1.050605    14A     -1.031306    15A     -0.899665
      16A     -0.844759    17A     -0.801043    18A     -0.730501
      19A     -0.705138    20A     -0.676150    21A     -0.640481
      22A     -0.632701    23A     -0.627049    24A     -0.604776
      25A     -0.586790    26A     -0.528234    27A     -0.519549
      28A     -0.508295    29A     -0.484314    30A     -0.458108
      31A     -0.356444    32A     -0.351014

  @DF-RHF Final Energy:  -418.47232047354879

   => Energetics <=

    Nuclear Repulsion Energy =            404.2174161945807782
    One-Electron Energy =               -1371.1401493747275708
    Two-Electron Energy =                 548.4504127065980583
    Total Energy =                       -418.4723204735487343
  Basis Set: (AUG-CC-PVTZ AUX)
    Blend: AUG-CC-PVTZ-RI
    Molecular point group: c1

    Geometry (in Angstrom), charge = 0, multiplicity = 1:

       Center              X                  Y                   Z               Mass
    ------------   -----------------  -----------------  -----------------  -----------------
         O           -2.263267158464    -1.107358233102    -0.001153264858    15.994914619570
         O           -2.296814158464     1.155396766898    -0.000788264858    15.994914619570
         C           -0.177518158464     0.019300766898    -0.000839264858    12.000000000000
         C            0.548995841536     1.216185766898    -0.000982264858    12.000000000000
         C            0.487064841536    -1.213669233102    -0.000598264858    12.000000000000
         C            1.941642841536     1.178756766898    -0.000905264858    12.000000000000
         C            1.881390841536    -1.240494233102    -0.000512264858    12.000000000000
         C            2.610205841536    -0.048544233102    -0.000666264858    12.000000000000
         C           -1.659288158464     0.113245766898    -0.000909264858    12.000000000000
         H            0.008302841536     2.158451766898    -0.001149264858     1.007825032230
         H           -0.084195158464    -2.136587233102    -0.000488264858     1.007825032230
         H            2.507513641536     2.107027266898     0.098972735142     1.007825032230
         H            2.401594841536    -2.195145233102    -0.000317264858     1.007825032230
         H            3.697265841536    -0.076100233102    -0.000601264858     1.007825032230
         H           -3.223822158464    -0.915120233102    -0.001153264858     1.007825032230

  Basis Set: AUG-CC-PVTZ
    Blend: AUG-CC-PVTZ
  Basis Set: (AUG-CC-PVTZ AUX)
    Blend: AUG-CC-PVTZ-JKFIT
	 Reference Energy          =    -418.4723204735487911 [Eh]
	 Singles Energy            =      -0.0000000000000000 [Eh]
	 Same-Spin Energy          =      -0.4348640591037731 [Eh]
	 Opposite-Spin Energy      =      -1.3153937150666857 [Eh]
	 Correlation Energy        =      -1.7502577741704588 [Eh]
	 Total Energy              =    -420.2225782477192411 [Eh]

	 ================> DF-SCS-MP2 Energies <==================
	-----------------------------------------------------------
	 SCS Same-Spin Scale       =       0.3333333333333333 [-]
	 SCS Opposite-Spin Scale   =       1.2000000000000000 [-]
	 SCS Same-Spin Energy      =      -0.1449546863679244 [Eh]
	 SCS Opposite-Spin Energy  =      -1.5784724580800227 [Eh]
	 SCS Correlation Energy    =      -1.7234271444479470 [Eh]
	 SCS Total Energy          =    -420.1957476179967443 [Eh]
	-----------------------------------------------------------

  Dipole Moment: [D]
     X:     1.4649      Y:    -1.3258      Z:     0.0616     Total:     1.9767

*** Psi4 exiting successfully. Buy a developer a beer!
