                               Psi4 1.3.2 release

  ==> Input File <==

--------------------------------------------------------------------------
#psi4
#
memory 32 gb

molecule  {
0 1
  O       -2.3042200    -1.0991630    -0.0003290
  O       -2.3377670     1.1635920     0.0000360
  C       -0.2184553     0.0275366    -0.2500150
  C        0.5080430     1.2243810    -0.0001580
  C        0.4461120    -1.2054740     0.0002260
  C        1.9006900     1.1869520    -0.0000810
  C        1.8404380    -1.2322990     0.0003120
  C        2.5692530    -0.0403490     0.0001580
  C       -1.7002410     0.1214410    -0.0000850
  H       -0.0326500     2.1666470    -0.0003250
  H       -0.1251480    -2.1283920     0.0003360
  H        2.4665660     2.1152060    -0.0002030
  H        2.3606420    -2.1869500     0.0005070
  H        3.6563130    -0.0679050     0.0002230
  H       -3.2647750    -0.9069250    -0.0003290
units angstrom
no_reorient  #important for SAPT in psi4, default
symmetry c1  #important for SAPT in psi4, default
}

set PROPERTIES_ORIGIN ["COM"]
properties('MP2/aug-cc-pvtz', properties = ['dipole'])
--------------------------------------------------------------------------

    Molecular point group: c1
  Charge       = 0
  Multiplicity = 1
  Basis Set: AUG-CC-PVTZ
    Blend: AUG-CC-PVTZ
  Basis Set: (AUG-CC-PVTZ AUX)
    Blend: AUG-CC-PVTZ-JKFIT

    Orbital Energies [Eh]
    ---------------------

    Doubly Occupied:

       1A    -20.616269     2A    -20.548900     3A    -11.395028
       4A    -11.264121     5A    -11.263074     6A    -11.261453
       7A    -11.260459     8A    -11.249719     9A    -11.248909
      10A     -1.459778    11A     -1.355078    12A     -1.167991
      13A     -1.047016    14A     -1.030676    15A     -0.895879
      16A     -0.841275    17A     -0.799733    18A     -0.728255
      19A     -0.703973    20A     -0.675654    21A     -0.640938
      22A     -0.629909    23A     -0.624341    24A     -0.604101
      25A     -0.583677    26A     -0.529410    27A     -0.515045
      28A     -0.506981    29A     -0.483316    30A     -0.454737
      31A     -0.356197    32A     -0.349047

  @DF-RHF Final Energy:  -418.45308744849183

   => Energetics <=

    Nuclear Repulsion Energy =            403.3768155734686616
    One-Electron Energy =               -1369.4779287734470472
    Two-Electron Energy =                 547.6480257514865571
    Total Energy =                       -418.4530874484918286
  Basis Set: (AUG-CC-PVTZ AUX)
    Blend: AUG-CC-PVTZ-RI
    Molecular point group: c1

    Geometry (in Angstrom), charge = 0, multiplicity = 1:

       Center              X                  Y                   Z               Mass
    ------------   -----------------  -----------------  -----------------  -----------------
         O           -2.263268745205    -1.107362089078     0.024255325221    15.994914619570
         O           -2.296815745205     1.155392910922     0.024620325221    15.994914619570
         C           -0.177504045205     0.019337510922    -0.225430674779    12.000000000000
         C            0.548994254795     1.216181910922     0.024426325221    12.000000000000
         C            0.487063254795    -1.213673089078     0.024810325221    12.000000000000
         C            1.941641254795     1.178752910922     0.024503325221    12.000000000000
         C            1.881389254795    -1.240498089078     0.024896325221    12.000000000000
         C            2.610204254795    -0.048548089078     0.024742325221    12.000000000000
         C           -1.659289745205     0.113241910922     0.024499325221    12.000000000000
         H            0.008301254795     2.158447910922     0.024259325221     1.007825032230
         H           -0.084196745205    -2.136591089078     0.024920325221     1.007825032230
         H            2.507517254795     2.107006910922     0.024381325221     1.007825032230
         H            2.401593254795    -2.195149089078     0.025091325221     1.007825032230
         H            3.697264254795    -0.076104089078     0.024807325221     1.007825032230
         H           -3.223823745205    -0.915124089078     0.024255325221     1.007825032230

  Basis Set: AUG-CC-PVTZ
    Blend: AUG-CC-PVTZ
  Basis Set: (AUG-CC-PVTZ AUX)
    Blend: AUG-CC-PVTZ-JKFIT
	 Reference Energy          =    -418.4530874484918286 [Eh]
	 Singles Energy            =      -0.0000000000000000 [Eh]
	 Same-Spin Energy          =      -0.4354422980521129 [Eh]
	 Opposite-Spin Energy      =      -1.3170675695650771 [Eh]
	 Correlation Energy        =      -1.7525098676171900 [Eh]
	 Total Energy              =    -420.2055973161089923 [Eh]

	 ================> DF-SCS-MP2 Energies <==================
	-----------------------------------------------------------
	 SCS Same-Spin Scale       =       0.3333333333333333 [-]
	 SCS Opposite-Spin Scale   =       1.2000000000000000 [-]
	 SCS Same-Spin Energy      =      -0.1451474326840376 [Eh]
	 SCS Opposite-Spin Energy  =      -1.5804810834780925 [Eh]
	 SCS Correlation Energy    =      -1.7256285161621301 [Eh]
	 SCS Total Energy          =    -420.1787159646539749 [Eh]
	-----------------------------------------------------------

  Dipole Moment: [D]
     X:     1.5286      Y:    -1.3101      Z:     0.0289     Total:     2.0133

*** Psi4 exiting successfully. Buy a developer a beer!
