                               Psi4 1.3.2 release

  ==> Input File <==

--------------------------------------------------------------------------
#psi4
#
memory 32 gb

molecule  {
0 1
  O       -2.3042200    -1.0991630    -0.0003290
  O       -2.3377670     1.1635920     0.0000360
  C       -0.2184679     0.0275041    -0.0500150
  C        0.5080430     1.2243810    -0.0001580
  C        0.4461120    -1.2054740     0.0002260
  C        1.9006900     1.1869520    -0.0000810
  C        1.8404380    -1.2322990     0.0003120
  C        2.5692530    -0.0403490     0.0001580
  C       -1.7002410     0.1214410    -0.0000850
  H       -0.0326500     2.1666470    -0.0003250
  H       -0.1251480    -2.1283920     0.0003360
  H        2.4665660     2.1152060    -0.0002030
  H        2.3606420    -2.1869500     0.0005070
  H        3.6563130    -0.0679050     0.0002230
  H       -3.2647750    -0.9069250    -0.0003290
units angstrom
no_reorient  #important for SAPT in psi4, default
symmetry c1  #important for SAPT in psi4, default
}

set PROPERTIES_ORIGIN ["COM"]
properties('MP2/aug-cc-pvtz', properties = ['dipole'])
--------------------------------------------------------------------------

    Molecular point group: c1
  Charge       = 0
  Multiplicity = 1
  Basis Set: AUG-CC-PVTZ
    Blend: AUG-CC-PVTZ
  Basis Set: (AUG-CC-PVTZ AUX)
    Blend: AUG-CC-PVTZ-JKFIT

    Orbital Energies [Eh]
    ---------------------

    Doubly Occupied:

       1A    -20.617179     2A    -20.549816     3A    -11.394601
       4A    -11.259888     5A    -11.259072     6A    -11.258724
       7A    -11.256050     8A    -11.250066     9A    -11.249226
      10A     -1.460965    11A     -1.356080    12A     -1.170496
      13A     -1.050457    14A     -1.031328    15A     -0.899464
      16A     -0.844819    17A     -0.801022    18A     -0.730580
      19A     -0.705138    20A     -0.676098    21A     -0.640799
      22A     -0.632539    23A     -0.626988    24A     -0.604857
      25A     -0.586776    26A     -0.528120    27A     -0.519174
      28A     -0.508835    29A     -0.484299    30A     -0.457962
      31A     -0.356433    32A     -0.350951

  @DF-RHF Final Energy:  -418.47216877865560

   => Energetics <=

    Nuclear Repulsion Energy =            404.1998585306786822
    One-Electron Energy =               -1371.1064573058524729
    Two-Electron Energy =                 548.4344299965181335
    Total Energy =                       -418.4721687786556004
  Basis Set: (AUG-CC-PVTZ AUX)
    Blend: AUG-CC-PVTZ-RI
    Molecular point group: c1

    Geometry (in Angstrom), charge = 0, multiplicity = 1:

       Center              X                  Y                   Z               Mass
    ------------   -----------------  -----------------  -----------------  -----------------
         O           -2.263267506234    -1.107358893320     0.004589122859    15.994914619570
         O           -2.296814506234     1.155396106680     0.004954122859    15.994914619570
         C           -0.177515406234     0.019308206680    -0.045096877141    12.000000000000
         C            0.548995493766     1.216185106680     0.004760122859    12.000000000000
         C            0.487064493766    -1.213669893320     0.005144122859    12.000000000000
         C            1.941642493766     1.178756106680     0.004837122859    12.000000000000
         C            1.881390493766    -1.240494893320     0.005230122859    12.000000000000
         C            2.610205493766    -0.048544893320     0.005076122859    12.000000000000
         C           -1.659288506234     0.113245106680     0.004833122859    12.000000000000
         H            0.008302493766     2.158451106680     0.004593122859     1.007825032230
         H           -0.084195506234    -2.136587893320     0.005254122859     1.007825032230
         H            2.507518493766     2.107010106680     0.004715122859     1.007825032230
         H            2.401594493766    -2.195145893320     0.005425122859     1.007825032230
         H            3.697265493766    -0.076100893320     0.005141122859     1.007825032230
         H           -3.223822506234    -0.915120893320     0.004589122859     1.007825032230

  Basis Set: AUG-CC-PVTZ
    Blend: AUG-CC-PVTZ
  Basis Set: (AUG-CC-PVTZ AUX)
    Blend: AUG-CC-PVTZ-JKFIT
	 Reference Energy          =    -418.4721687786556004 [Eh]
	 Singles Energy            =      -0.0000000000000000 [Eh]
	 Same-Spin Energy          =      -0.4348594337733193 [Eh]
	 Opposite-Spin Energy      =      -1.3153387914523280 [Eh]
	 Correlation Energy        =      -1.7501982252256472 [Eh]
	 Total Energy              =    -420.2223670038812315 [Eh]

	 ================> DF-SCS-MP2 Energies <==================
	-----------------------------------------------------------
	 SCS Same-Spin Scale       =       0.3333333333333333 [-]
	 SCS Opposite-Spin Scale   =       1.2000000000000000 [-]
	 SCS Same-Spin Energy      =      -0.1449531445911064 [Eh]
	 SCS Opposite-Spin Energy  =      -1.5784065497427935 [Eh]
	 SCS Correlation Energy    =      -1.7233596943339000 [Eh]
	 SCS Total Energy          =    -420.1955284729895084 [Eh]
	-----------------------------------------------------------

  Dipole Moment: [D]
     X:     1.4723      Y:    -1.3189      Z:     0.0050     Total:     1.9767

*** Psi4 exiting successfully. Buy a developer a beer!
