                               Psi4 1.3.2 release

  ==> Input File <==

--------------------------------------------------------------------------
#psi4
#
memory 32 gb

molecule  {
0 1
  O       -2.3042200    -1.0991630    -0.0003290
  O       -2.3377670     1.1635920     0.0000360
  C       -0.2184710     0.0274960    -0.0000150
  C        0.5080430     1.2243810    -0.0001580
  C        0.4461120    -1.2054740     0.0002260
  C        1.9006900     1.1869520    -0.0000810
  C        1.8404380    -1.2322990     0.0003120
  C        2.5692530    -0.0403490     0.0001580
  C       -1.7002410     0.1214410    -0.0000850
  H       -0.0326500     2.1666470    -0.0003250
  H       -0.1251480    -2.1283920     0.0003360
  H        2.4665634     2.1152142     0.0497970
  H        2.3606420    -2.1869500     0.0005070
  H        3.6563130    -0.0679050     0.0002230
  H       -3.2647750    -0.9069250    -0.0003290
units angstrom
no_reorient  #important for SAPT in psi4, default
symmetry c1  #important for SAPT in psi4, default
}

set PROPERTIES_ORIGIN ["COM"]
properties('MP2/aug-cc-pvtz', properties = ['dipole'])
--------------------------------------------------------------------------

    Molecular point group: c1
  Charge       = 0
  Multiplicity = 1
  Basis Set: AUG-CC-PVTZ
    Blend: AUG-CC-PVTZ
  Basis Set: (AUG-CC-PVTZ AUX)
    Blend: AUG-CC-PVTZ-JKFIT

    Orbital Energies [Eh]
    ---------------------

    Doubly Occupied:

       1A    -20.617227     2A    -20.549865     3A    -11.394589
       4A    -11.259729     5A    -11.259000     6A    -11.258557
       7A    -11.255890     8A    -11.250097     9A    -11.249346
      10A     -1.461024    11A     -1.356132    12A     -1.170620
      13A     -1.050603    14A     -1.031351    15A     -0.899637
      16A     -0.844926    17A     -0.801071    18A     -0.730642
      19A     -0.705176    20A     -0.676127    21A     -0.640714
      22A     -0.632681    23A     -0.627087    24A     -0.604862
      25A     -0.586880    26A     -0.528093    27A     -0.519422
      28A     -0.508754    29A     -0.484336    30A     -0.458098
      31A     -0.356452    32A     -0.351033

  @DF-RHF Final Energy:  -418.47279679021693

   => Energetics <=

    Nuclear Repulsion Energy =            404.2304351917345002
    One-Electron Energy =               -1371.1664212435848640
    Two-Electron Energy =                 548.4631892616333744
    Total Energy =                       -418.4727967902169894
  Basis Set: (AUG-CC-PVTZ AUX)
    Blend: AUG-CC-PVTZ-RI
    Molecular point group: c1

    Geometry (in Angstrom), charge = 0, multiplicity = 1:

       Center              X                  Y                   Z               Mass
    ------------   -----------------  -----------------  -----------------  -----------------
         O           -2.263267179936    -1.107358164557    -0.000740346295    15.994914619570
         O           -2.296814179936     1.155396835443    -0.000375346295    15.994914619570
         C           -0.177518179936     0.019300835443    -0.000426346295    12.000000000000
         C            0.548995820064     1.216185835443    -0.000569346295    12.000000000000
         C            0.487064820064    -1.213669164557    -0.000185346295    12.000000000000
         C            1.941642820064     1.178756835443    -0.000492346295    12.000000000000
         C            1.881390820064    -1.240494164557    -0.000099346295    12.000000000000
         C            2.610205820064    -0.048544164557    -0.000253346295    12.000000000000
         C           -1.659288179936     0.113245835443    -0.000496346295    12.000000000000
         H            0.008302820064     2.158451835443    -0.000736346295     1.007825032230
         H           -0.084195179936    -2.136587164557    -0.000075346295     1.007825032230
         H            2.507516220064     2.107019035443     0.049385653705     1.007825032230
         H            2.401594820064    -2.195145164557     0.000095653705     1.007825032230
         H            3.697265820064    -0.076100164557    -0.000188346295     1.007825032230
         H           -3.223822179936    -0.915120164557    -0.000740346295     1.007825032230

  Basis Set: AUG-CC-PVTZ
    Blend: AUG-CC-PVTZ
  Basis Set: (AUG-CC-PVTZ AUX)
    Blend: AUG-CC-PVTZ-JKFIT
	 Reference Energy          =    -418.4727967902169325 [Eh]
	 Singles Energy            =      -0.0000000000000000 [Eh]
	 Same-Spin Energy          =      -0.4348408392146743 [Eh]
	 Opposite-Spin Energy      =      -1.3153401870876673 [Eh]
	 Correlation Energy        =      -1.7501810263023416 [Eh]
	 Total Energy              =    -420.2229778165192897 [Eh]

	 ================> DF-SCS-MP2 Energies <==================
	-----------------------------------------------------------
	 SCS Same-Spin Scale       =       0.3333333333333333 [-]
	 SCS Opposite-Spin Scale   =       1.2000000000000000 [-]
	 SCS Same-Spin Energy      =      -0.1449469464048914 [Eh]
	 SCS Opposite-Spin Energy  =      -1.5784082245052007 [Eh]
	 SCS Correlation Energy    =      -1.7233551709100920 [Eh]
	 SCS Total Energy          =    -420.1961519611270433 [Eh]
	-----------------------------------------------------------

  Dipole Moment: [D]
     X:     1.4686      Y:    -1.3210      Z:     0.0308     Total:     1.9755

*** Psi4 exiting successfully. Buy a developer a beer!
