                               Psi4 1.3.2 release

  ==> Input File <==

--------------------------------------------------------------------------
#psi4
#
memory 32 gb

molecule  {
0 1
  O       -2.3042200    -1.0991630    -0.0003290
  O       -2.3377670     1.1635920     0.0000360
  C       -0.2184710     0.0274960    -0.0000150
  C        0.5080430     1.2243810    -0.0001580
  C        0.4461120    -1.2054740     0.0002260
  C        1.9006900     1.1869520    -0.0000810
  C        1.8404380    -1.2322990     0.0003120
  C        2.5692530    -0.0403490     0.0001580
  C       -1.7002410     0.1214410    -0.0000850
  H       -0.0326652     2.1666918     0.2996750
  H       -0.1251480    -2.1283920     0.0003360
  H        2.4665660     2.1152060    -0.0002030
  H        2.3606420    -2.1869500     0.0005070
  H        3.6563130    -0.0679050     0.0002230
  H       -3.2647750    -0.9069250    -0.0003290
units angstrom
no_reorient  #important for SAPT in psi4, default
symmetry c1  #important for SAPT in psi4, default
}

set PROPERTIES_ORIGIN ["COM"]
properties('MP2/aug-cc-pvtz', properties = ['dipole'])
--------------------------------------------------------------------------

    Molecular point group: c1
  Charge       = 0
  Multiplicity = 1
  Basis Set: AUG-CC-PVTZ
    Blend: AUG-CC-PVTZ
  Basis Set: (AUG-CC-PVTZ AUX)
    Blend: AUG-CC-PVTZ-JKFIT

    Orbital Energies [Eh]
    ---------------------

    Doubly Occupied:

       1A    -20.617122     2A    -20.549666     3A    -11.394392
       4A    -11.260258     5A    -11.259398     6A    -11.259137
       7A    -11.258574     8A    -11.250751     9A    -11.249871
      10A     -1.460881    11A     -1.355897    12A     -1.170725
      13A     -1.050703    14A     -1.030668    15A     -0.899295
      16A     -0.843874    17A     -0.800246    18A     -0.729349
      19A     -0.704900    20A     -0.673853    21A     -0.640341
      22A     -0.632599    23A     -0.627191    24A     -0.600729
      25A     -0.586917    26A     -0.529235    27A     -0.520908
      28A     -0.502565    29A     -0.484091    30A     -0.457848
      31A     -0.356609    32A     -0.350394

  @DF-RHF Final Energy:  -418.46630942388884

   => Energetics <=

    Nuclear Repulsion Energy =            404.0665660980907887
    One-Electron Energy =               -1370.8477769595945119
    Two-Electron Energy =                 548.3149014376149353
    Total Energy =                       -418.4663094238887879
  Basis Set: (AUG-CC-PVTZ AUX)
    Blend: AUG-CC-PVTZ-RI
    Molecular point group: c1

    Geometry (in Angstrom), charge = 0, multiplicity = 1:

       Center              X                  Y                   Z               Mass
    ------------   -----------------  -----------------  -----------------  -----------------
         O           -2.263267075881    -1.107358466814    -0.002804939111    15.994914619570
         O           -2.296814075881     1.155396533186    -0.002439939111    15.994914619570
         C           -0.177518075881     0.019300533186    -0.002490939111    12.000000000000
         C            0.548995924119     1.216185533186    -0.002633939111    12.000000000000
         C            0.487064924119    -1.213669466814    -0.002249939111    12.000000000000
         C            1.941642924119     1.178756533186    -0.002556939111    12.000000000000
         C            1.881390924119    -1.240494466814    -0.002163939111    12.000000000000
         C            2.610205924119    -0.048544466814    -0.002317939111    12.000000000000
         C           -1.659288075881     0.113245533186    -0.002560939111    12.000000000000
         H            0.008287724119     2.158496333186     0.297199060889     1.007825032230
         H           -0.084195075881    -2.136587466814    -0.002139939111     1.007825032230
         H            2.507518924119     2.107010533186    -0.002678939111     1.007825032230
         H            2.401594924119    -2.195145466814    -0.001968939111     1.007825032230
         H            3.697265924119    -0.076100466814    -0.002252939111     1.007825032230
         H           -3.223822075881    -0.915120466814    -0.002804939111     1.007825032230

  Basis Set: AUG-CC-PVTZ
    Blend: AUG-CC-PVTZ
  Basis Set: (AUG-CC-PVTZ AUX)
    Blend: AUG-CC-PVTZ-JKFIT
	 Reference Energy          =    -418.4663094238888448 [Eh]
	 Singles Energy            =      -0.0000000000000000 [Eh]
	 Same-Spin Energy          =      -0.4352287949419954 [Eh]
	 Opposite-Spin Energy      =      -1.3161595779912054 [Eh]
	 Correlation Energy        =      -1.7513883729332007 [Eh]
	 Total Energy              =    -420.2176977968220513 [Eh]

	 ================> DF-SCS-MP2 Energies <==================
	-----------------------------------------------------------
	 SCS Same-Spin Scale       =       0.3333333333333333 [-]
	 SCS Opposite-Spin Scale   =       1.2000000000000000 [-]
	 SCS Same-Spin Energy      =      -0.1450762649806651 [Eh]
	 SCS Opposite-Spin Energy  =      -1.5793914935894464 [Eh]
	 SCS Correlation Energy    =      -1.7244677585701116 [Eh]
	 SCS Total Energy          =    -420.1907771824589304 [Eh]
	-----------------------------------------------------------

  Dipole Moment: [D]
     X:     1.4991      Y:    -1.3661      Z:     0.1831     Total:     2.0364

*** Psi4 exiting successfully. Buy a developer a beer!
