                               Psi4 1.3.2 release

  ==> Input File <==

--------------------------------------------------------------------------
#psi4
#
memory 32 gb

molecule  {
0 1
  O       -2.3042200    -1.0991630    -0.0003290
  O       -2.3377670     1.1635920     0.0000360
  C       -0.2184710     0.0274960    -0.0000150
  C        0.5080430     1.2243810    -0.0001580
  C        0.4461120    -1.2054740     0.0002260
  C        1.9006900     1.1869520    -0.0000810
  C        1.8404380    -1.2322990     0.0003120
  C        2.5692530    -0.0403490     0.0001580
  C       -1.7002410     0.1214410    -0.0000850
  H       -0.0326525     2.1666545     0.0496750
  H       -0.1251480    -2.1283920     0.0003360
  H        2.4665660     2.1152060    -0.0002030
  H        2.3606420    -2.1869500     0.0005070
  H        3.6563130    -0.0679050     0.0002230
  H       -3.2647750    -0.9069250    -0.0003290
units angstrom
no_reorient  #important for SAPT in psi4, default
symmetry c1  #important for SAPT in psi4, default
}

set PROPERTIES_ORIGIN ["COM"]
properties('MP2/aug-cc-pvtz', properties = ['dipole'])
--------------------------------------------------------------------------

    Molecular point group: c1
  Charge       = 0
  Multiplicity = 1
  Basis Set: AUG-CC-PVTZ
    Blend: AUG-CC-PVTZ
  Basis Set: (AUG-CC-PVTZ AUX)
    Blend: AUG-CC-PVTZ-JKFIT

    Orbital Energies [Eh]
    ---------------------

    Doubly Occupied:

       1A    -20.617217     2A    -20.549853     3A    -11.394576
       4A    -11.259722     5A    -11.258986     6A    -11.258554
       7A    -11.255962     8A    -11.250108     9A    -11.249264
      10A     -1.461013    11A     -1.356118    12A     -1.170614
      13A     -1.050604    14A     -1.031344    15A     -0.899616
      16A     -0.844947    17A     -0.801055    18A     -0.730647
      19A     -0.705180    20A     -0.676050    21A     -0.640779
      22A     -0.632672    23A     -0.627100    24A     -0.604774
      25A     -0.586910    26A     -0.528084    27A     -0.519448
      28A     -0.508701    29A     -0.484336    30A     -0.458088
      31A     -0.356459    32A     -0.351020

  @DF-RHF Final Energy:  -418.47278701338644

   => Energetics <=

    Nuclear Repulsion Energy =            404.2299450520269488
    One-Electron Energy =               -1371.1658610476144986
    Two-Electron Energy =                 548.4631289822010558
    Total Energy =                       -418.4727870133864371
  Basis Set: (AUG-CC-PVTZ AUX)
    Blend: AUG-CC-PVTZ-RI
    Molecular point group: c1

    Geometry (in Angstrom), charge = 0, multiplicity = 1:

       Center              X                  Y                   Z               Mass
    ------------   -----------------  -----------------  -----------------  -----------------
         O           -2.263267180762    -1.107358158777    -0.000740346295    15.994914619570
         O           -2.296814180762     1.155396841223    -0.000375346295    15.994914619570
         C           -0.177518180762     0.019300841223    -0.000426346295    12.000000000000
         C            0.548995819238     1.216185841223    -0.000569346295    12.000000000000
         C            0.487064819238    -1.213669158777    -0.000185346295    12.000000000000
         C            1.941642819238     1.178756841223    -0.000492346295    12.000000000000
         C            1.881390819238    -1.240494158777    -0.000099346295    12.000000000000
         C            2.610205819238    -0.048544158777    -0.000253346295    12.000000000000
         C           -1.659288180762     0.113245841223    -0.000496346295    12.000000000000
         H            0.008300319238     2.158459341223     0.049263653705     1.007825032230
         H           -0.084195180762    -2.136587158777    -0.000075346295     1.007825032230
         H            2.507518819238     2.107010841223    -0.000614346295     1.007825032230
         H            2.401594819238    -2.195145158777     0.000095653705     1.007825032230
         H            3.697265819238    -0.076100158777    -0.000188346295     1.007825032230
         H           -3.223822180762    -0.915120158777    -0.000740346295     1.007825032230

  Basis Set: AUG-CC-PVTZ
    Blend: AUG-CC-PVTZ
  Basis Set: (AUG-CC-PVTZ AUX)
    Blend: AUG-CC-PVTZ-JKFIT
	 Reference Energy          =    -418.4727870133864371 [Eh]
	 Singles Energy            =      -0.0000000000000000 [Eh]
	 Same-Spin Energy          =      -0.4348443782995939 [Eh]
	 Opposite-Spin Energy      =      -1.3153436957678457 [Eh]
	 Correlation Energy        =      -1.7501880740674396 [Eh]
	 Total Energy              =    -420.2229750874539036 [Eh]

	 ================> DF-SCS-MP2 Energies <==================
	-----------------------------------------------------------
	 SCS Same-Spin Scale       =       0.3333333333333333 [-]
	 SCS Opposite-Spin Scale   =       1.2000000000000000 [-]
	 SCS Same-Spin Energy      =      -0.1449481260998646 [Eh]
	 SCS Opposite-Spin Energy  =      -1.5784124349214148 [Eh]
	 SCS Correlation Energy    =      -1.7233605610212794 [Eh]
	 SCS Total Energy          =    -420.1961475744076893 [Eh]
	-----------------------------------------------------------

  Dipole Moment: [D]
     X:     1.4707      Y:    -1.3206      Z:     0.0310     Total:     1.9769

*** Psi4 exiting successfully. Buy a developer a beer!
