                               Psi4 1.3.2 release

  ==> Input File <==

--------------------------------------------------------------------------
#psi4
#
memory 32 gb

molecule  {
0 1
  O       -2.3042200    -1.0991630    -0.0003290
  O       -2.3377670     1.1635920     0.0000360
  C       -0.2184710     0.0274960    -0.0000150
  C        0.5080430     1.2243810    -0.0001580
  C        0.4461120    -1.2054740     0.0002260
  C        1.9006900     1.1869520    -0.0000810
  C        1.8404380    -1.2322990     0.0003120
  C        2.5692530    -0.0403490     0.0001580
  C       -1.7002410     0.1214410    -0.0000850
  H       -0.0326500     2.1666470    -0.0003250
  H       -0.1251480    -2.1283920     0.0003360
  H        2.4665660     2.1152060    -0.0002030
  H        2.3606420    -2.1869500     0.0005070
  H        3.6563074    -0.0678886     0.1002230
  H       -3.2647750    -0.9069250    -0.0003290
units angstrom
no_reorient  #important for SAPT in psi4, default
symmetry c1  #important for SAPT in psi4, default
}

set PROPERTIES_ORIGIN ["COM"]
properties('MP2/aug-cc-pvtz', properties = ['dipole'])
--------------------------------------------------------------------------

    Molecular point group: c1
  Charge       = 0
  Multiplicity = 1
  Basis Set: AUG-CC-PVTZ
    Blend: AUG-CC-PVTZ
  Basis Set: (AUG-CC-PVTZ AUX)
    Blend: AUG-CC-PVTZ-JKFIT

    Orbital Energies [Eh]
    ---------------------

    Doubly Occupied:

       1A    -20.617258     2A    -20.549907     3A    -11.394628
       4A    -11.259761     5A    -11.259384     6A    -11.258596
       7A    -11.255897     8A    -11.250162     9A    -11.249319
      10A     -1.461058    11A     -1.356167    12A     -1.170638
      13A     -1.050522    14A     -1.031408    15A     -0.899459
      16A     -0.845008    17A     -0.800995    18A     -0.730562
      19A     -0.705223    20A     -0.675475    21A     -0.640831
      22A     -0.632714    23A     -0.627116    24A     -0.604911
      25A     -0.586804    26A     -0.528627    27A     -0.518393
      28A     -0.508947    29A     -0.484318    30A     -0.458133
      31A     -0.356377    32A     -0.351072

  @DF-RHF Final Energy:  -418.47231062107483

   => Energetics <=

    Nuclear Repulsion Energy =            404.2175848455383971
    One-Electron Energy =               -1371.1404540665459990
    Two-Electron Energy =                 548.4505585999328332
    Total Energy =                       -418.4723106210748256
  Basis Set: (AUG-CC-PVTZ AUX)
    Blend: AUG-CC-PVTZ-RI
    Molecular point group: c1

    Geometry (in Angstrom), charge = 0, multiplicity = 1:

       Center              X                  Y                   Z               Mass
    ------------   -----------------  -----------------  -----------------  -----------------
         O           -2.263267155161    -1.107358232276    -0.001153264858    15.994914619570
         O           -2.296814155161     1.155396767724    -0.000788264858    15.994914619570
         C           -0.177518155161     0.019300767724    -0.000839264858    12.000000000000
         C            0.548995844839     1.216185767724    -0.000982264858    12.000000000000
         C            0.487064844839    -1.213669232276    -0.000598264858    12.000000000000
         C            1.941642844839     1.178756767724    -0.000905264858    12.000000000000
         C            1.881390844839    -1.240494232276    -0.000512264858    12.000000000000
         C            2.610205844839    -0.048544232276    -0.000666264858    12.000000000000
         C           -1.659288155161     0.113245767724    -0.000909264858    12.000000000000
         H            0.008302844839     2.158451767724    -0.001149264858     1.007825032230
         H           -0.084195155161    -2.136587232276    -0.000488264858     1.007825032230
         H            2.507518844839     2.107010767724    -0.001027264858     1.007825032230
         H            2.401594844839    -2.195145232276    -0.000317264858     1.007825032230
         H            3.697260244839    -0.076083832276     0.099398735142     1.007825032230
         H           -3.223822155161    -0.915120232276    -0.001153264858     1.007825032230

  Basis Set: AUG-CC-PVTZ
    Blend: AUG-CC-PVTZ
  Basis Set: (AUG-CC-PVTZ AUX)
    Blend: AUG-CC-PVTZ-JKFIT
	 Reference Energy          =    -418.4723106210748256 [Eh]
	 Singles Energy            =      -0.0000000000000000 [Eh]
	 Same-Spin Energy          =      -0.4348730560643485 [Eh]
	 Opposite-Spin Energy      =      -1.3154018078340786 [Eh]
	 Correlation Energy        =      -1.7502748638984271 [Eh]
	 Total Energy              =    -420.2225854849732514 [Eh]

	 ================> DF-SCS-MP2 Energies <==================
	-----------------------------------------------------------
	 SCS Same-Spin Scale       =       0.3333333333333333 [-]
	 SCS Opposite-Spin Scale   =       1.2000000000000000 [-]
	 SCS Same-Spin Energy      =      -0.1449576853547828 [Eh]
	 SCS Opposite-Spin Energy  =      -1.5784821694008941 [Eh]
	 SCS Correlation Energy    =      -1.7234398547556768 [Eh]
	 SCS Total Energy          =    -420.1957504758304935 [Eh]
	-----------------------------------------------------------

  Dipole Moment: [D]
     X:     1.4612      Y:    -1.3191      Z:     0.0631     Total:     1.9695

*** Psi4 exiting successfully. Buy a developer a beer!
