                               Psi4 1.3.2 release

  ==> Input File <==

--------------------------------------------------------------------------
#psi4
#
memory 32 gb

molecule  {
0 1
  O       -2.3042200    -1.0991630    -0.0003290
  O       -2.3377670     1.1635920     0.0000360
  C       -0.2184710     0.0274960    -0.0000150
  C        0.5080430     1.2243810    -0.0001580
  C        0.4461120    -1.2054740     0.0002260
  C        1.9006900     1.1869520    -0.0000810
  C        1.8404380    -1.2322990     0.0003120
  C        2.5692530    -0.0403490     0.0001580
  C       -1.7002410     0.1214410    -0.0000850
  H       -0.0326601     2.1666769     0.1996750
  H       -0.1251480    -2.1283920     0.0003360
  H        2.4665660     2.1152060    -0.0002030
  H        2.3606420    -2.1869500     0.0005070
  H        3.6563130    -0.0679050     0.0002230
  H       -3.2647750    -0.9069250    -0.0003290
units angstrom
no_reorient  #important for SAPT in psi4, default
symmetry c1  #important for SAPT in psi4, default
}

set PROPERTIES_ORIGIN ["COM"]
properties('MP2/aug-cc-pvtz', properties = ['dipole'])
--------------------------------------------------------------------------

    Molecular point group: c1
  Charge       = 0
  Multiplicity = 1
  Basis Set: AUG-CC-PVTZ
    Blend: AUG-CC-PVTZ
  Basis Set: (AUG-CC-PVTZ AUX)
    Blend: AUG-CC-PVTZ-JKFIT

    Orbital Energies [Eh]
    ---------------------

    Doubly Occupied:

       1A    -20.617173     2A    -20.549771     3A    -11.394494
       4A    -11.259889     5A    -11.259046     6A    -11.258769
       7A    -11.257303     8A    -11.250383     9A    -11.249522
      10A     -1.460954    11A     -1.356021    12A     -1.170655
      13A     -1.050638    14A     -1.031034    15A     -0.899464
      16A     -0.844449    17A     -0.800684    18A     -0.730041
      19A     -0.705055    20A     -0.675052    21A     -0.640580
      22A     -0.632637    23A     -0.627133    24A     -0.603031
      25A     -0.586914    26A     -0.528627    27A     -0.520244
      28A     -0.505863    29A     -0.484230    30A     -0.457983
      31A     -0.356517    32A     -0.350743

  @DF-RHF Final Energy:  -418.47015850665429

   => Energetics <=

    Nuclear Repulsion Energy =            404.1584219132199109
    One-Electron Energy =               -1371.0273619379131560
    Two-Electron Energy =                 548.3987815180390726
    Total Energy =                       -418.4701585066542293
  Basis Set: (AUG-CC-PVTZ AUX)
    Blend: AUG-CC-PVTZ-RI
    Molecular point group: c1

    Geometry (in Angstrom), charge = 0, multiplicity = 1:

       Center              X                  Y                   Z               Mass
    ------------   -----------------  -----------------  -----------------  -----------------
         O           -2.263267117998    -1.107358343764    -0.001979101984    15.994914619570
         O           -2.296814117998     1.155396656236    -0.001614101984    15.994914619570
         C           -0.177518117998     0.019300656236    -0.001665101984    12.000000000000
         C            0.548995882002     1.216185656236    -0.001808101984    12.000000000000
         C            0.487064882002    -1.213669343764    -0.001424101984    12.000000000000
         C            1.941642882002     1.178756656236    -0.001731101984    12.000000000000
         C            1.881390882002    -1.240494343764    -0.001338101984    12.000000000000
         C            2.610205882002    -0.048544343764    -0.001492101984    12.000000000000
         C           -1.659288117998     0.113245656236    -0.001735101984    12.000000000000
         H            0.008292782002     2.158481556236     0.198024898016     1.007825032230
         H           -0.084195117998    -2.136587343764    -0.001314101984     1.007825032230
         H            2.507518882002     2.107010656236    -0.001853101984     1.007825032230
         H            2.401594882002    -2.195145343764    -0.001143101984     1.007825032230
         H            3.697265882002    -0.076100343764    -0.001427101984     1.007825032230
         H           -3.223822117998    -0.915120343764    -0.001979101984     1.007825032230

  Basis Set: AUG-CC-PVTZ
    Blend: AUG-CC-PVTZ
  Basis Set: (AUG-CC-PVTZ AUX)
    Blend: AUG-CC-PVTZ-JKFIT
	 Reference Energy          =    -418.4701585066542862 [Eh]
	 Singles Energy            =      -0.0000000000000000 [Eh]
	 Same-Spin Energy          =      -0.4350121414545174 [Eh]
	 Opposite-Spin Energy      =      -1.3156772371213479 [Eh]
	 Correlation Energy        =      -1.7506893785758653 [Eh]
	 Total Energy              =    -420.2208478852301710 [Eh]

	 ================> DF-SCS-MP2 Energies <==================
	-----------------------------------------------------------
	 SCS Same-Spin Scale       =       0.3333333333333333 [-]
	 SCS Opposite-Spin Scale   =       1.2000000000000000 [-]
	 SCS Same-Spin Energy      =      -0.1450040471515058 [Eh]
	 SCS Opposite-Spin Energy  =      -1.5788126845456174 [Eh]
	 SCS Correlation Energy    =      -1.7238167316971231 [Eh]
	 SCS Total Energy          =    -420.1939752383514133 [Eh]
	-----------------------------------------------------------

  Dipole Moment: [D]
     X:     1.4831      Y:    -1.3403      Z:     0.1232     Total:     2.0028

*** Psi4 exiting successfully. Buy a developer a beer!
