                               Psi4 1.3.2 release

  ==> Input File <==

--------------------------------------------------------------------------
#psi4
#
memory 32 gb

molecule  {
0 1
  O       -2.3042200    -1.0991630    -0.0003290
  O       -2.3377670     1.1635920     0.0000360
  C       -0.2184710     0.0274960    -0.0000150
  C        0.5080430     1.2243810    -0.0001580
  C        0.4461120    -1.2054740     0.0002260
  C        1.9006900     1.1869520    -0.0000810
  C        1.8404380    -1.2322990     0.0003120
  C        2.5692530    -0.0403490     0.0001580
  C       -1.7002387     0.1214330    -0.0500850
  H       -0.0326500     2.1666470    -0.0003250
  H       -0.1251480    -2.1283920     0.0003360
  H        2.4665660     2.1152060    -0.0002030
  H        2.3606420    -2.1869500     0.0005070
  H        3.6563130    -0.0679050     0.0002230
  H       -3.2647750    -0.9069250    -0.0003290
units angstrom
no_reorient  #important for SAPT in psi4, default
symmetry c1  #important for SAPT in psi4, default
}

set PROPERTIES_ORIGIN ["COM"]
properties('MP2/aug-cc-pvtz', properties = ['dipole'])
--------------------------------------------------------------------------

    Molecular point group: c1
  Charge       = 0
  Multiplicity = 1
  Basis Set: AUG-CC-PVTZ
    Blend: AUG-CC-PVTZ
  Basis Set: (AUG-CC-PVTZ AUX)
    Blend: AUG-CC-PVTZ-JKFIT

    Orbital Energies [Eh]
    ---------------------

    Doubly Occupied:

       1A    -20.617148     2A    -20.550115     3A    -11.394944
       4A    -11.259783     5A    -11.258964     6A    -11.258618
       7A    -11.255858     8A    -11.250091     9A    -11.249251
      10A     -1.460583    11A     -1.355600    12A     -1.170588
      13A     -1.050504    14A     -1.031358    15A     -0.899474
      16A     -0.844957    17A     -0.800981    18A     -0.730487
      19A     -0.705066    20A     -0.675960    21A     -0.640762
      22A     -0.632347    23A     -0.627030    24A     -0.604863
      25A     -0.586779    26A     -0.528080    27A     -0.519269
      28A     -0.508915    29A     -0.484068    30A     -0.458017
      31A     -0.356361    32A     -0.351037

  @DF-RHF Final Energy:  -418.47168833736367

   => Energetics <=

    Nuclear Repulsion Energy =            404.1922014358084425
    One-Electron Energy =               -1371.0920635050138117
    Two-Electron Energy =                 548.4281737318417527
    Total Energy =                       -418.4716883373636165
  Basis Set: (AUG-CC-PVTZ AUX)
    Blend: AUG-CC-PVTZ-RI
    Molecular point group: c1

    Geometry (in Angstrom), charge = 0, multiplicity = 1:

       Center              X                  Y                   Z               Mass
    ------------   -----------------  -----------------  -----------------  -----------------
         O           -2.263267427569    -1.107357310191     0.004589122859    15.994914619570
         O           -2.296814427569     1.155397689809     0.004954122859    15.994914619570
         C           -0.177518427569     0.019301689809     0.004903122859    12.000000000000
         C            0.548995572431     1.216186689809     0.004760122859    12.000000000000
         C            0.487064572431    -1.213668310191     0.005144122859    12.000000000000
         C            1.941642572431     1.178757689809     0.004837122859    12.000000000000
         C            1.881390572431    -1.240493310191     0.005230122859    12.000000000000
         C            2.610205572431    -0.048543310191     0.005076122859    12.000000000000
         C           -1.659286127569     0.113238689809    -0.045166877141    12.000000000000
         H            0.008302572431     2.158452689809     0.004593122859     1.007825032230
         H           -0.084195427569    -2.136586310191     0.005254122859     1.007825032230
         H            2.507518572431     2.107011689809     0.004715122859     1.007825032230
         H            2.401594572431    -2.195144310191     0.005425122859     1.007825032230
         H            3.697265572431    -0.076099310191     0.005141122859     1.007825032230
         H           -3.223822427569    -0.915119310191     0.004589122859     1.007825032230

  Basis Set: AUG-CC-PVTZ
    Blend: AUG-CC-PVTZ
  Basis Set: (AUG-CC-PVTZ AUX)
    Blend: AUG-CC-PVTZ-JKFIT
	 Reference Energy          =    -418.4716883373636733 [Eh]
	 Singles Energy            =      -0.0000000000000000 [Eh]
	 Same-Spin Energy          =      -0.4349092108764961 [Eh]
	 Opposite-Spin Energy      =      -1.3154744991690803 [Eh]
	 Correlation Energy        =      -1.7503837100455764 [Eh]
	 Total Energy              =    -420.2220720474092559 [Eh]

	 ================> DF-SCS-MP2 Energies <==================
	-----------------------------------------------------------
	 SCS Same-Spin Scale       =       0.3333333333333333 [-]
	 SCS Opposite-Spin Scale   =       1.2000000000000000 [-]
	 SCS Same-Spin Energy      =      -0.1449697369588320 [Eh]
	 SCS Opposite-Spin Energy  =      -1.5785693990028964 [Eh]
	 SCS Correlation Energy    =      -1.7235391359617285 [Eh]
	 SCS Total Energy          =    -420.1952274733254171 [Eh]
	-----------------------------------------------------------

  Dipole Moment: [D]
     X:     1.4690      Y:    -1.3157      Z:    -0.0630     Total:     1.9731

*** Psi4 exiting successfully. Buy a developer a beer!
