                               Psi4 1.3.2 release

  ==> Input File <==

--------------------------------------------------------------------------
#psi4
#
memory 32 gb

molecule  {
0 1
  O       -2.3042200    -1.0991630    -0.0003290
  O       -2.3377670     1.1635920     0.0000360
  C       -0.2184710     0.0274960    -0.0000150
  C        0.5080430     1.2243810    -0.0001580
  C        0.4461120    -1.2054740     0.0002260
  C        1.9006900     1.1869520    -0.0000810
  C        1.8404380    -1.2322990     0.0003120
  C        2.5692530    -0.0403490     0.0001580
  C       -1.7002294     0.1214012    -0.2500850
  H       -0.0326500     2.1666470    -0.0003250
  H       -0.1251480    -2.1283920     0.0003360
  H        2.4665660     2.1152060    -0.0002030
  H        2.3606420    -2.1869500     0.0005070
  H        3.6563130    -0.0679050     0.0002230
  H       -3.2647750    -0.9069250    -0.0003290
units angstrom
no_reorient  #important for SAPT in psi4, default
symmetry c1  #important for SAPT in psi4, default
}

set PROPERTIES_ORIGIN ["COM"]
properties('MP2/aug-cc-pvtz', properties = ['dipole'])
--------------------------------------------------------------------------

    Molecular point group: c1
  Charge       = 0
  Multiplicity = 1
  Basis Set: AUG-CC-PVTZ
    Blend: AUG-CC-PVTZ
  Basis Set: (AUG-CC-PVTZ AUX)
    Blend: AUG-CC-PVTZ-JKFIT

    Orbital Energies [Eh]
    ---------------------

    Doubly Occupied:

       1A    -20.615295     2A    -20.556430     3A    -11.403001
       4A    -11.263491     5A    -11.258540     6A    -11.258462
       7A    -11.255486     8A    -11.250134     9A    -11.249325
      10A     -1.450285    11A     -1.343795    12A     -1.170034
      13A     -1.048231    14A     -1.031185    15A     -0.895820
      16A     -0.844398    17A     -0.798732    18A     -0.725996
      19A     -0.701999    20A     -0.671924    21A     -0.640080
      22A     -0.625493    23A     -0.624709    24A     -0.604249
      25A     -0.583520    26A     -0.528648    27A     -0.516922
      28A     -0.508962    29A     -0.477994    30A     -0.456510
      31A     -0.354249    32A     -0.350918

  @DF-RHF Final Energy:  -418.44126755160397

   => Energetics <=

    Nuclear Repulsion Energy =            403.1946031245383892
    One-Electron Energy =               -1369.1421075814755568
    Two-Electron Energy =                 547.5062369053332532
    Total Energy =                       -418.4412675516039144
  Basis Set: (AUG-CC-PVTZ AUX)
    Blend: AUG-CC-PVTZ-RI
    Molecular point group: c1

    Geometry (in Angstrom), charge = 0, multiplicity = 1:

       Center              X                  Y                   Z               Mass
    ------------   -----------------  -----------------  -----------------  -----------------
         O           -2.263268342048    -1.107354183265     0.024255325221    15.994914619570
         O           -2.296815342048     1.155400816735     0.024620325221    15.994914619570
         C           -0.177519342048     0.019304816735     0.024569325221    12.000000000000
         C            0.548994657952     1.216189816735     0.024426325221    12.000000000000
         C            0.487063657952    -1.213665183265     0.024810325221    12.000000000000
         C            1.941641657952     1.178760816735     0.024503325221    12.000000000000
         C            1.881389657952    -1.240490183265     0.024896325221    12.000000000000
         C            2.610204657952    -0.048540183265     0.024742325221    12.000000000000
         C           -1.659277742048     0.113210016735    -0.225500674779    12.000000000000
         H            0.008301657952     2.158455816735     0.024259325221     1.007825032230
         H           -0.084196342048    -2.136583183265     0.024920325221     1.007825032230
         H            2.507517657952     2.107014816735     0.024381325221     1.007825032230
         H            2.401593657952    -2.195141183265     0.025091325221     1.007825032230
         H            3.697264657952    -0.076096183265     0.024807325221     1.007825032230
         H           -3.223823342048    -0.915116183265     0.024255325221     1.007825032230

  Basis Set: AUG-CC-PVTZ
    Blend: AUG-CC-PVTZ
  Basis Set: (AUG-CC-PVTZ AUX)
    Blend: AUG-CC-PVTZ-JKFIT
	 Reference Energy          =    -418.4412675516039712 [Eh]
	 Singles Energy            =      -0.0000000000000000 [Eh]
	 Same-Spin Energy          =      -0.4367364585964185 [Eh]
	 Opposite-Spin Energy      =      -1.3202471306620072 [Eh]
	 Correlation Energy        =      -1.7569835892584256 [Eh]
	 Total Energy              =    -420.1982511408623964 [Eh]

	 ================> DF-SCS-MP2 Energies <==================
	-----------------------------------------------------------
	 SCS Same-Spin Scale       =       0.3333333333333333 [-]
	 SCS Opposite-Spin Scale   =       1.2000000000000000 [-]
	 SCS Same-Spin Energy      =      -0.1455788195321395 [Eh]
	 SCS Opposite-Spin Energy  =      -1.5842965567944085 [Eh]
	 SCS Correlation Energy    =      -1.7298753763265480 [Eh]
	 SCS Total Energy          =    -420.1711429279305321 [Eh]
	-----------------------------------------------------------

  Dipole Moment: [D]
     X:     1.4450      Y:    -1.2235      Z:    -0.2986     Total:     1.9168

*** Psi4 exiting successfully. Buy a developer a beer!
