                               Psi4 1.3.2 release

  ==> Input File <==

--------------------------------------------------------------------------
#psi4
#
memory 32 gb

molecule  {
0 1
  O       -2.3042200    -1.0991630    -0.0003290
  O       -2.3377670     1.1635920     0.0000360
  C       -0.2184521     0.0275447    -0.3000150
  C        0.5080430     1.2243810    -0.0001580
  C        0.4461120    -1.2054740     0.0002260
  C        1.9006900     1.1869520    -0.0000810
  C        1.8404380    -1.2322990     0.0003120
  C        2.5692530    -0.0403490     0.0001580
  C       -1.7002410     0.1214410    -0.0000850
  H       -0.0326500     2.1666470    -0.0003250
  H       -0.1251480    -2.1283920     0.0003360
  H        2.4665660     2.1152060    -0.0002030
  H        2.3606420    -2.1869500     0.0005070
  H        3.6563130    -0.0679050     0.0002230
  H       -3.2647750    -0.9069250    -0.0003290
units angstrom
no_reorient  #important for SAPT in psi4, default
symmetry c1  #important for SAPT in psi4, default
}

set PROPERTIES_ORIGIN ["COM"]
properties('MP2/aug-cc-pvtz', properties = ['dipole'])
--------------------------------------------------------------------------

    Molecular point group: c1
  Charge       = 0
  Multiplicity = 1
  Basis Set: AUG-CC-PVTZ
    Blend: AUG-CC-PVTZ
  Basis Set: (AUG-CC-PVTZ AUX)
    Blend: AUG-CC-PVTZ-JKFIT

    Orbital Energies [Eh]
    ---------------------

    Doubly Occupied:

       1A    -20.615858     2A    -20.548505     3A    -11.395157
       4A    -11.265957     5A    -11.264952     6A    -11.262607
       7A    -11.262400     8A    -11.249592     9A    -11.248792
      10A     -1.459240    11A     -1.354626    12A     -1.166923
      13A     -1.045394    14A     -1.030439    15A     -0.894378
      16A     -0.839813    17A     -0.799145    18A     -0.727329
      19A     -0.703437    20A     -0.675421    21A     -0.640953
      22A     -0.628968    23A     -0.623163    24A     -0.603690
      25A     -0.582275    26A     -0.529806    27A     -0.513437
      28A     -0.506014    29A     -0.482874    30A     -0.453197
      31A     -0.356187    32A     -0.348235

  @DF-RHF Final Energy:  -418.44425038783282

   => Energetics <=

    Nuclear Repulsion Energy =            403.0090618752838623
    One-Electron Energy =               -1368.7490952679677321
    Two-Electron Energy =                 547.2957830048511596
    Total Energy =                       -418.4442503878327670
  Basis Set: (AUG-CC-PVTZ AUX)
    Blend: AUG-CC-PVTZ-RI
    Molecular point group: c1

    Geometry (in Angstrom), charge = 0, multiplicity = 1:

       Center              X                  Y                   Z               Mass
    ------------   -----------------  -----------------  -----------------  -----------------
         O           -2.263269059864    -1.107362885559     0.029171875812    15.994914619570
         O           -2.296816059864     1.155392114441     0.029536875812    15.994914619570
         C           -0.177501159864     0.019344814441    -0.270514124188    12.000000000000
         C            0.548993940136     1.216181114441     0.029342875812    12.000000000000
         C            0.487062940136    -1.213673885559     0.029726875812    12.000000000000
         C            1.941640940136     1.178752114441     0.029419875812    12.000000000000
         C            1.881388940136    -1.240498885559     0.029812875812    12.000000000000
         C            2.610203940136    -0.048548885559     0.029658875812    12.000000000000
         C           -1.659290059864     0.113241114441     0.029415875812    12.000000000000
         H            0.008300940136     2.158447114441     0.029175875812     1.007825032230
         H           -0.084197059864    -2.136591885559     0.029836875812     1.007825032230
         H            2.507516940136     2.107006114441     0.029297875812     1.007825032230
         H            2.401592940136    -2.195149885559     0.030007875812     1.007825032230
         H            3.697263940136    -0.076104885559     0.029723875812     1.007825032230
         H           -3.223824059864    -0.915124885559     0.029171875812     1.007825032230

  Basis Set: AUG-CC-PVTZ
    Blend: AUG-CC-PVTZ
  Basis Set: (AUG-CC-PVTZ AUX)
    Blend: AUG-CC-PVTZ-JKFIT
	 Reference Energy          =    -418.4442503878328239 [Eh]
	 Singles Energy            =      -0.0000000000000000 [Eh]
	 Same-Spin Energy          =      -0.4357098370729071 [Eh]
	 Opposite-Spin Energy      =      -1.3179908279938393 [Eh]
	 Correlation Energy        =      -1.7537006650667464 [Eh]
	 Total Energy              =    -420.1979510528995547 [Eh]

	 ================> DF-SCS-MP2 Energies <==================
	-----------------------------------------------------------
	 SCS Same-Spin Scale       =       0.3333333333333333 [-]
	 SCS Opposite-Spin Scale   =       1.2000000000000000 [-]
	 SCS Same-Spin Energy      =      -0.1452366123576357 [Eh]
	 SCS Opposite-Spin Energy  =      -1.5815889935926071 [Eh]
	 SCS Correlation Energy    =      -1.7268256059502427 [Eh]
	 SCS Total Energy          =    -420.1710759937830630 [Eh]
	-----------------------------------------------------------

  Dipole Moment: [D]
     X:     1.5540      Y:    -1.3061      Z:     0.0366     Total:     2.0303

*** Psi4 exiting successfully. Buy a developer a beer!
