                               Psi4 1.3.2 release

  ==> Input File <==

--------------------------------------------------------------------------
#psi4
#
memory 32 gb

molecule  {
0 1
  O       -2.3042200    -1.0991630    -0.0003290
  O       -2.3377670     1.1635920     0.0000360
  C       -0.2184710     0.0274960    -0.0000150
  C        0.5080430     1.2243810    -0.0001580
  C        0.4461120    -1.2054740     0.0002260
  C        1.9006900     1.1869520    -0.0000810
  C        1.8404380    -1.2322990     0.0003120
  C        2.5692530    -0.0403490     0.0001580
  C       -1.7002410     0.1214410    -0.0000850
  H       -0.0326500     2.1666470    -0.0003250
  H       -0.1251480    -2.1283920     0.0003360
  H        2.4665660     2.1152060    -0.0002030
  H        2.3606420    -2.1869500     0.0005070
  H        3.6562962    -0.0678558     0.3002230
  H       -3.2647750    -0.9069250    -0.0003290
units angstrom
no_reorient  #important for SAPT in psi4, default
symmetry c1  #important for SAPT in psi4, default
}

set PROPERTIES_ORIGIN ["COM"]
properties('MP2/aug-cc-pvtz', properties = ['dipole'])
--------------------------------------------------------------------------

    Molecular point group: c1
  Charge       = 0
  Multiplicity = 1
  Basis Set: AUG-CC-PVTZ
    Blend: AUG-CC-PVTZ
  Basis Set: (AUG-CC-PVTZ AUX)
    Blend: AUG-CC-PVTZ-JKFIT

    Orbital Energies [Eh]
    ---------------------

    Doubly Occupied:

       1A    -20.617566     2A    -20.550303     3A    -11.394999
       4A    -11.262546     5A    -11.260218     6A    -11.259012
       7A    -11.256141     8A    -11.250778     9A    -11.249925
      10A     -1.461387    11A     -1.356513    12A     -1.170882
      13A     -1.049976    14A     -1.031775    15A     -0.898286
      16A     -0.845242    17A     -0.800426    18A     -0.729763
      19A     -0.705510    20A     -0.670598    21A     -0.641159
      22A     -0.633036    23A     -0.627280    24A     -0.605111
      25A     -0.585965    26A     -0.531101    27A     -0.512749
      28A     -0.509210    29A     -0.484071    30A     -0.458437
      31A     -0.355819    32A     -0.351349

  @DF-RHF Final Energy:  -418.46656131279309

   => Energetics <=

    Nuclear Repulsion Energy =            404.0856072877610359
    One-Electron Energy =               -1370.8700790356529069
    Two-Electron Energy =                 548.3179104350987245
    Total Energy =                       -418.4665613127931465
  Basis Set: (AUG-CC-PVTZ AUX)
    Blend: AUG-CC-PVTZ-RI
    Molecular point group: c1

    Geometry (in Angstrom), charge = 0, multiplicity = 1:

       Center              X                  Y                   Z               Mass
    ------------   -----------------  -----------------  -----------------  -----------------
         O           -2.263267062667    -1.107358503151    -0.002804939111    15.994914619570
         O           -2.296814062667     1.155396496849    -0.002439939111    15.994914619570
         C           -0.177518062667     0.019300496849    -0.002490939111    12.000000000000
         C            0.548995937333     1.216185496849    -0.002633939111    12.000000000000
         C            0.487064937333    -1.213669503151    -0.002249939111    12.000000000000
         C            1.941642937333     1.178756496849    -0.002556939111    12.000000000000
         C            1.881390937333    -1.240494503151    -0.002163939111    12.000000000000
         C            2.610205937333    -0.048544503151    -0.002317939111    12.000000000000
         C           -1.659288062667     0.113245496849    -0.002560939111    12.000000000000
         H            0.008302937333     2.158451496849    -0.002800939111     1.007825032230
         H           -0.084195062667    -2.136587503151    -0.002139939111     1.007825032230
         H            2.507518937333     2.107010496849    -0.002678939111     1.007825032230
         H            2.401594937333    -2.195145503151    -0.001968939111     1.007825032230
         H            3.697249137333    -0.076051303151     0.297747060889     1.007825032230
         H           -3.223822062667    -0.915120503151    -0.002804939111     1.007825032230

  Basis Set: AUG-CC-PVTZ
    Blend: AUG-CC-PVTZ
  Basis Set: (AUG-CC-PVTZ AUX)
    Blend: AUG-CC-PVTZ-JKFIT
	 Reference Energy          =    -418.4665613127930897 [Eh]
	 Singles Energy            =      -0.0000000000000000 [Eh]
	 Same-Spin Energy          =      -0.4351790458720242 [Eh]
	 Opposite-Spin Energy      =      -1.3161711495271089 [Eh]
	 Correlation Energy        =      -1.7513501953991331 [Eh]
	 Total Energy              =    -420.2179115081922305 [Eh]

	 ================> DF-SCS-MP2 Energies <==================
	-----------------------------------------------------------
	 SCS Same-Spin Scale       =       0.3333333333333333 [-]
	 SCS Opposite-Spin Scale   =       1.2000000000000000 [-]
	 SCS Same-Spin Energy      =      -0.1450596819573414 [Eh]
	 SCS Opposite-Spin Energy  =      -1.5794053794325307 [Eh]
	 SCS Correlation Energy    =      -1.7244650613898720 [Eh]
	 SCS Total Energy          =    -420.1910263741829681 [Eh]
	-----------------------------------------------------------

  Dipole Moment: [D]
     X:     1.3937      Y:    -1.3174      Z:     0.1851     Total:     1.9267

*** Psi4 exiting successfully. Buy a developer a beer!
