                               Psi4 1.3.2 release

  ==> Input File <==

--------------------------------------------------------------------------
#psi4
#
memory 32 gb

molecule  {
0 1
  O       -2.3042200    -1.0991630    -0.0003290
  O       -2.3377670     1.1635920     0.0000360
  C       -0.2184710     0.0274960    -0.0000150
  C        0.5080430     1.2243810    -0.0001580
  C        0.4461120    -1.2054740     0.0002260
  C        1.9006900     1.1869520    -0.0000810
  C        1.8404380    -1.2322990     0.0003120
  C        2.5692530    -0.0403490     0.0001580
  C       -1.7002410     0.1214410    -0.0000850
  H       -0.0326626     2.1666843     0.2496750
  H       -0.1251480    -2.1283920     0.0003360
  H        2.4665660     2.1152060    -0.0002030
  H        2.3606420    -2.1869500     0.0005070
  H        3.6563130    -0.0679050     0.0002230
  H       -3.2647750    -0.9069250    -0.0003290
units angstrom
no_reorient  #important for SAPT in psi4, default
symmetry c1  #important for SAPT in psi4, default
}

set PROPERTIES_ORIGIN ["COM"]
properties('MP2/aug-cc-pvtz', properties = ['dipole'])
--------------------------------------------------------------------------

    Molecular point group: c1
  Charge       = 0
  Multiplicity = 1
  Basis Set: AUG-CC-PVTZ
    Blend: AUG-CC-PVTZ
  Basis Set: (AUG-CC-PVTZ AUX)
    Blend: AUG-CC-PVTZ-JKFIT

    Orbital Energies [Eh]
    ---------------------

    Doubly Occupied:

       1A    -20.617149     2A    -20.549724     3A    -11.394447
       4A    -11.260018     5A    -11.259087     6A    -11.258963
       7A    -11.258006     8A    -11.250549     9A    -11.249679
      10A     -1.460921    11A     -1.355964    12A     -1.170685
      13A     -1.050665    14A     -1.030863    15A     -0.899383
      16A     -0.844179    17A     -0.800479    18A     -0.729714
      19A     -0.704984    20A     -0.674495    21A     -0.640469
      22A     -0.632619    23A     -0.627158    24A     -0.601991
      25A     -0.586917    26A     -0.528916    27A     -0.520578
      28A     -0.504333    29A     -0.484167    30A     -0.457922
      31A     -0.356557    32A     -0.350583

  @DF-RHF Final Energy:  -418.46847022198153

   => Energetics <=

    Nuclear Repulsion Energy =            404.1166087089153507
    One-Electron Energy =               -1370.9458302307839404
    Two-Electron Energy =                 548.3607512998870561
    Total Energy =                       -418.4684702219815335
  Basis Set: (AUG-CC-PVTZ AUX)
    Blend: AUG-CC-PVTZ-RI
    Molecular point group: c1

    Geometry (in Angstrom), charge = 0, multiplicity = 1:

       Center              X                  Y                   Z               Mass
    ------------   -----------------  -----------------  -----------------  -----------------
         O           -2.263267097352    -1.107358404876    -0.002392020547    15.994914619570
         O           -2.296814097352     1.155396595124    -0.002027020547    15.994914619570
         C           -0.177518097352     0.019300595124    -0.002078020547    12.000000000000
         C            0.548995902648     1.216185595124    -0.002221020547    12.000000000000
         C            0.487064902648    -1.213669404876    -0.001837020547    12.000000000000
         C            1.941642902648     1.178756595124    -0.002144020547    12.000000000000
         C            1.881390902648    -1.240494404876    -0.001751020547    12.000000000000
         C            2.610205902648    -0.048544404876    -0.001905020547    12.000000000000
         C           -1.659288097352     0.113245595124    -0.002148020547    12.000000000000
         H            0.008290302648     2.158488895124     0.247611979453     1.007825032230
         H           -0.084195097352    -2.136587404876    -0.001727020547     1.007825032230
         H            2.507518902648     2.107010595124    -0.002266020547     1.007825032230
         H            2.401594902648    -2.195145404876    -0.001556020547     1.007825032230
         H            3.697265902648    -0.076100404876    -0.001840020547     1.007825032230
         H           -3.223822097352    -0.915120404876    -0.002392020547     1.007825032230

  Basis Set: AUG-CC-PVTZ
    Blend: AUG-CC-PVTZ
  Basis Set: (AUG-CC-PVTZ AUX)
    Blend: AUG-CC-PVTZ-JKFIT
	 Reference Energy          =    -418.4684702219815335 [Eh]
	 Singles Energy            =      -0.0000000000000000 [Eh]
	 Same-Spin Energy          =      -0.4351106072042183 [Eh]
	 Opposite-Spin Energy      =      -1.3158910509682147 [Eh]
	 Correlation Energy        =      -1.7510016581724330 [Eh]
	 Total Energy              =    -420.2194718801539466 [Eh]

	 ================> DF-SCS-MP2 Energies <==================
	-----------------------------------------------------------
	 SCS Same-Spin Scale       =       0.3333333333333333 [-]
	 SCS Opposite-Spin Scale   =       1.2000000000000000 [-]
	 SCS Same-Spin Energy      =      -0.1450368690680728 [Eh]
	 SCS Opposite-Spin Energy  =      -1.5790692611618575 [Eh]
	 SCS Correlation Energy    =      -1.7241061302299303 [Eh]
	 SCS Total Energy          =    -420.1925763522114607 [Eh]
	-----------------------------------------------------------

  Dipole Moment: [D]
     X:     1.4903      Y:    -1.3520      Z:     0.1534     Total:     2.0180

*** Psi4 exiting successfully. Buy a developer a beer!
