                               Psi4 1.3.2 release

  ==> Input File <==

--------------------------------------------------------------------------
#psi4
#
memory 32 gb

molecule  {
0 1
  O       -2.3042200    -1.0991630    -0.0003290
  O       -2.3377670     1.1635920     0.0000360
  C       -0.2184710     0.0274960    -0.0000150
  C        0.5080430     1.2243810    -0.0001580
  C        0.4461120    -1.2054740     0.0002260
  C        1.9006900     1.1869520    -0.0000810
  C        1.8404380    -1.2322990     0.0003120
  C        2.5692530    -0.0403490     0.0001580
  C       -1.7002410     0.1214410    -0.0000850
  H       -0.0326500     2.1666470    -0.0003250
  H       -0.1251480    -2.1283920     0.0003360
  H        2.4665660     2.1152060    -0.0002030
  H        2.3606420    -2.1869500     0.0005070
  H        3.6563046    -0.0678804     0.1502230
  H       -3.2647750    -0.9069250    -0.0003290
units angstrom
no_reorient  #important for SAPT in psi4, default
symmetry c1  #important for SAPT in psi4, default
}

set PROPERTIES_ORIGIN ["COM"]
properties('MP2/aug-cc-pvtz', properties = ['dipole'])
--------------------------------------------------------------------------

    Molecular point group: c1
  Charge       = 0
  Multiplicity = 1
  Basis Set: AUG-CC-PVTZ
    Blend: AUG-CC-PVTZ
  Basis Set: (AUG-CC-PVTZ AUX)
    Blend: AUG-CC-PVTZ-JKFIT

    Orbital Energies [Eh]
    ---------------------

    Doubly Occupied:

       1A    -20.617305     2A    -20.549969     3A    -11.394685
       4A    -11.259893     5A    -11.259819     6A    -11.258664
       7A    -11.255932     8A    -11.250256     9A    -11.249412
      10A     -1.461109    11A     -1.356221    12A     -1.170673
      13A     -1.050426    14A     -1.031463    15A     -0.899256
      16A     -0.845041    17A     -0.800893    18A     -0.730413
      19A     -0.705266    20A     -0.674681    21A     -0.640880
      22A     -0.632764    23A     -0.627140    24A     -0.604939
      25A     -0.586672    26A     -0.529208    27A     -0.517310
      28A     -0.508993    29A     -0.484285    30A     -0.458181
      31A     -0.356283    32A     -0.351114

  @DF-RHF Final Energy:  -418.47148033980665

   => Energetics <=

    Nuclear Repulsion Energy =            404.1963040389351249
    One-Electron Energy =               -1371.0972775814657325
    Two-Electron Energy =                 548.4294932027240748
    Total Energy =                       -418.4714803398065897
  Basis Set: (AUG-CC-PVTZ AUX)
    Blend: AUG-CC-PVTZ-RI
    Molecular point group: c1

    Geometry (in Angstrom), charge = 0, multiplicity = 1:

       Center              X                  Y                   Z               Mass
    ------------   -----------------  -----------------  -----------------  -----------------
         O           -2.263267132037    -1.107358299995    -0.001566183421    15.994914619570
         O           -2.296814132037     1.155396700005    -0.001201183421    15.994914619570
         C           -0.177518132037     0.019300700005    -0.001252183421    12.000000000000
         C            0.548995867963     1.216185700005    -0.001395183421    12.000000000000
         C            0.487064867963    -1.213669299995    -0.001011183421    12.000000000000
         C            1.941642867963     1.178756700005    -0.001318183421    12.000000000000
         C            1.881390867963    -1.240494299995    -0.000925183421    12.000000000000
         C            2.610205867963    -0.048544299995    -0.001079183421    12.000000000000
         C           -1.659288132037     0.113245700005    -0.001322183421    12.000000000000
         H            0.008302867963     2.158451700005    -0.001562183421     1.007825032230
         H           -0.084195132037    -2.136587299995    -0.000901183421     1.007825032230
         H            2.507518867963     2.107010700005    -0.001440183421     1.007825032230
         H            2.401594867963    -2.195145299995    -0.000730183421     1.007825032230
         H            3.697257467963    -0.076075699995     0.148985816579     1.007825032230
         H           -3.223822132037    -0.915120299995    -0.001566183421     1.007825032230

  Basis Set: AUG-CC-PVTZ
    Blend: AUG-CC-PVTZ
  Basis Set: (AUG-CC-PVTZ AUX)
    Blend: AUG-CC-PVTZ-JKFIT
	 Reference Energy          =    -418.4714803398066465 [Eh]
	 Singles Energy            =      -0.0000000000000000 [Eh]
	 Same-Spin Energy          =      -0.4349224009580163 [Eh]
	 Opposite-Spin Energy      =      -1.3155120107967062 [Eh]
	 Correlation Energy        =      -1.7504344117547226 [Eh]
	 Total Energy              =    -420.2219147515613713 [Eh]

	 ================> DF-SCS-MP2 Energies <==================
	-----------------------------------------------------------
	 SCS Same-Spin Scale       =       0.3333333333333333 [-]
	 SCS Opposite-Spin Scale   =       1.2000000000000000 [-]
	 SCS Same-Spin Energy      =      -0.1449741336526721 [Eh]
	 SCS Opposite-Spin Energy  =      -1.5786144129560473 [Eh]
	 SCS Correlation Energy    =      -1.7235885466087195 [Eh]
	 SCS Total Energy          =    -420.1950688864153562 [Eh]
	-----------------------------------------------------------

  Dipole Moment: [D]
     X:     1.4505      Y:    -1.3188      Z:     0.0943     Total:     1.9627

*** Psi4 exiting successfully. Buy a developer a beer!
