                               Psi4 1.3.2 release

  ==> Input File <==

--------------------------------------------------------------------------
#psi4
#
memory 32 gb

molecule  {
0 1
  O       -2.3042200    -1.0991630    -0.0003290
  O       -2.3377670     1.1635920     0.0000360
  C       -0.2184710     0.0274960    -0.0000150
  C        0.5080430     1.2243810    -0.0001580
  C        0.4461120    -1.2054740     0.0002260
  C        1.9006900     1.1869520    -0.0000810
  C        1.8404380    -1.2322990     0.0003120
  C        2.5692530    -0.0403490     0.0001580
  C       -1.7002410     0.1214410    -0.0000850
  H       -0.0326500     2.1666470    -0.0003250
  H       -0.1251480    -2.1283920     0.0003360
  H        2.4665660     2.1152060    -0.0002030
  H        2.3606420    -2.1869500     0.0005070
  H        3.6563102    -0.0678968     0.0502230
  H       -3.2647750    -0.9069250    -0.0003290
units angstrom
no_reorient  #important for SAPT in psi4, default
symmetry c1  #important for SAPT in psi4, default
}

set PROPERTIES_ORIGIN ["COM"]
properties('MP2/aug-cc-pvtz', properties = ['dipole'])
--------------------------------------------------------------------------

    Molecular point group: c1
  Charge       = 0
  Multiplicity = 1
  Basis Set: AUG-CC-PVTZ
    Blend: AUG-CC-PVTZ
  Basis Set: (AUG-CC-PVTZ AUX)
    Blend: AUG-CC-PVTZ-JKFIT

    Orbital Energies [Eh]
    ---------------------

    Doubly Occupied:

       1A    -20.617229     2A    -20.549871     3A    -11.394594
       4A    -11.259724     5A    -11.259083     6A    -11.258555
       7A    -11.255876     8A    -11.250107     9A    -11.249265
      10A     -1.461028    11A     -1.356136    12A     -1.170618
      13A     -1.050582    14A     -1.031376    15A     -0.899585
      16A     -0.844989    17A     -0.801059    18A     -0.730657
      19A     -0.705197    20A     -0.675958    21A     -0.640802
      22A     -0.632684    23A     -0.627103    24A     -0.604895
      25A     -0.586883    26A     -0.528204    27A     -0.519118
      28A     -0.508920    29A     -0.484337    30A     -0.458105
      31A     -0.356436    32A     -0.351047

  @DF-RHF Final Energy:  -418.47279435166035

   => Energetics <=

    Nuclear Repulsion Energy =            404.2304772852555743
    One-Electron Energy =               -1371.1664989852249619
    Two-Electron Energy =                 548.4632273483090330
    Total Energy =                       -418.4727943516603546
  Basis Set: (AUG-CC-PVTZ AUX)
    Blend: AUG-CC-PVTZ-RI
    Molecular point group: c1

    Geometry (in Angstrom), charge = 0, multiplicity = 1:

       Center              X                  Y                   Z               Mass
    ------------   -----------------  -----------------  -----------------  -----------------
         O           -2.263267178284    -1.107358164557    -0.000740346295    15.994914619570
         O           -2.296814178284     1.155396835443    -0.000375346295    15.994914619570
         C           -0.177518178284     0.019300835443    -0.000426346295    12.000000000000
         C            0.548995821716     1.216185835443    -0.000569346295    12.000000000000
         C            0.487064821716    -1.213669164557    -0.000185346295    12.000000000000
         C            1.941642821716     1.178756835443    -0.000492346295    12.000000000000
         C            1.881390821716    -1.240494164557    -0.000099346295    12.000000000000
         C            2.610205821716    -0.048544164557    -0.000253346295    12.000000000000
         C           -1.659288178284     0.113245835443    -0.000496346295    12.000000000000
         H            0.008302821716     2.158451835443    -0.000736346295     1.007825032230
         H           -0.084195178284    -2.136587164557    -0.000075346295     1.007825032230
         H            2.507518821716     2.107010835443    -0.000614346295     1.007825032230
         H            2.401594821716    -2.195145164557     0.000095653705     1.007825032230
         H            3.697263021716    -0.076091964557     0.049811653705     1.007825032230
         H           -3.223822178284    -0.915120164557    -0.000740346295     1.007825032230

  Basis Set: AUG-CC-PVTZ
    Blend: AUG-CC-PVTZ
  Basis Set: (AUG-CC-PVTZ AUX)
    Blend: AUG-CC-PVTZ-JKFIT
	 Reference Energy          =    -418.4727943516603546 [Eh]
	 Singles Energy            =      -0.0000000000000000 [Eh]
	 Same-Spin Energy          =      -0.4348431034762076 [Eh]
	 Opposite-Spin Energy      =      -1.3153416023600437 [Eh]
	 Correlation Energy        =      -1.7501847058362512 [Eh]
	 Total Energy              =    -420.2229790574966160 [Eh]

	 ================> DF-SCS-MP2 Energies <==================
	-----------------------------------------------------------
	 SCS Same-Spin Scale       =       0.3333333333333333 [-]
	 SCS Opposite-Spin Scale   =       1.2000000000000000 [-]
	 SCS Same-Spin Energy      =      -0.1449477011587358 [Eh]
	 SCS Opposite-Spin Energy  =      -1.5784099228320525 [Eh]
	 SCS Correlation Energy    =      -1.7233576239907884 [Eh]
	 SCS Total Energy          =    -420.1961519756511620 [Eh]
	-----------------------------------------------------------

  Dipole Moment: [D]
     X:     1.4677      Y:    -1.3193      Z:     0.0316     Total:     1.9737

*** Psi4 exiting successfully. Buy a developer a beer!
