                               Psi4 1.3.2 release

  ==> Input File <==

--------------------------------------------------------------------------
#psi4
#
memory 32 gb

molecule  {
0 1
  O       -2.3042200    -1.0991630    -0.0003290
  O       -2.3377670     1.1635920     0.0000360
  C       -0.2184710     0.0274960    -0.0000150
  C        0.5080430     1.2243810    -0.0001580
  C        0.4461120    -1.2054740     0.0002260
  C        1.9006900     1.1869520    -0.0000810
  C        1.8404380    -1.2322990     0.0003120
  C        2.5692530    -0.0403490     0.0001580
  C       -1.7002410     0.1214410    -0.0000850
  H       -0.0326551     2.1666619     0.0996750
  H       -0.1251480    -2.1283920     0.0003360
  H        2.4665660     2.1152060    -0.0002030
  H        2.3606420    -2.1869500     0.0005070
  H        3.6563130    -0.0679050     0.0002230
  H       -3.2647750    -0.9069250    -0.0003290
units angstrom
no_reorient  #important for SAPT in psi4, default
symmetry c1  #important for SAPT in psi4, default
}

set PROPERTIES_ORIGIN ["COM"]
properties('MP2/aug-cc-pvtz', properties = ['dipole'])
--------------------------------------------------------------------------

    Molecular point group: c1
  Charge       = 0
  Multiplicity = 1
  Basis Set: AUG-CC-PVTZ
    Blend: AUG-CC-PVTZ
  Basis Set: (AUG-CC-PVTZ AUX)
    Blend: AUG-CC-PVTZ-JKFIT

    Orbital Energies [Eh]
    ---------------------

    Doubly Occupied:

       1A    -20.617207     2A    -20.549836     3A    -11.394559
       4A    -11.259752     5A    -11.258997     6A    -11.258592
       7A    -11.256239     8A    -11.250162     9A    -11.249315
      10A     -1.461001    11A     -1.356098    12A     -1.170621
      13A     -1.050610    14A     -1.031279    15A     -0.899583
      16A     -0.844842    17A     -0.800977    18A     -0.730519
      19A     -0.705154    20A     -0.675843    21A     -0.640737
      22A     -0.632665    23A     -0.627106    24A     -0.604424
      25A     -0.586911    26A     -0.528199    27A     -0.519643
      28A     -0.508092    29A     -0.484314    30A     -0.458067
      31A     -0.356470    32A     -0.350963

  @DF-RHF Final Energy:  -418.47228164691484

   => Energetics <=

    Nuclear Repulsion Energy =            404.2154519756717264
    One-Electron Energy =               -1371.1379107929762995
    Two-Electron Energy =                 548.4501771703897930
    Total Energy =                       -418.4722816469147801
  Basis Set: (AUG-CC-PVTZ AUX)
    Blend: AUG-CC-PVTZ-RI
    Molecular point group: c1

    Geometry (in Angstrom), charge = 0, multiplicity = 1:

       Center              X                  Y                   Z               Mass
    ------------   -----------------  -----------------  -----------------  -----------------
         O           -2.263267159290    -1.107358219889    -0.001153264858    15.994914619570
         O           -2.296814159290     1.155396780111    -0.000788264858    15.994914619570
         C           -0.177518159290     0.019300780111    -0.000839264858    12.000000000000
         C            0.548995840710     1.216185780111    -0.000982264858    12.000000000000
         C            0.487064840710    -1.213669219889    -0.000598264858    12.000000000000
         C            1.941642840710     1.178756780111    -0.000905264858    12.000000000000
         C            1.881390840710    -1.240494219889    -0.000512264858    12.000000000000
         C            2.610205840710    -0.048544219889    -0.000666264858    12.000000000000
         C           -1.659288159290     0.113245780111    -0.000909264858    12.000000000000
         H            0.008297740710     2.158466680111     0.098850735142     1.007825032230
         H           -0.084195159290    -2.136587219889    -0.000488264858     1.007825032230
         H            2.507518840710     2.107010780111    -0.001027264858     1.007825032230
         H            2.401594840710    -2.195145219889    -0.000317264858     1.007825032230
         H            3.697265840710    -0.076100219889    -0.000601264858     1.007825032230
         H           -3.223822159290    -0.915120219889    -0.001153264858     1.007825032230

  Basis Set: AUG-CC-PVTZ
    Blend: AUG-CC-PVTZ
  Basis Set: (AUG-CC-PVTZ AUX)
    Blend: AUG-CC-PVTZ-JKFIT
	 Reference Energy          =    -418.4722816469148370 [Eh]
	 Singles Energy            =      -0.0000000000000000 [Eh]
	 Same-Spin Energy          =      -0.4348782624381256 [Eh]
	 Opposite-Spin Energy      =      -1.3154069867153630 [Eh]
	 Correlation Energy        =      -1.7502852491534886 [Eh]
	 Total Energy              =    -420.2225668960683151 [Eh]

	 ================> DF-SCS-MP2 Energies <==================
	-----------------------------------------------------------
	 SCS Same-Spin Scale       =       0.3333333333333333 [-]
	 SCS Opposite-Spin Scale   =       1.2000000000000000 [-]
	 SCS Same-Spin Energy      =      -0.1449594208127085 [Eh]
	 SCS Opposite-Spin Energy  =      -1.5784883840584356 [Eh]
	 SCS Correlation Energy    =      -1.7234478048711441 [Eh]
	 SCS Total Energy          =    -420.1957294517860078 [Eh]
	-----------------------------------------------------------

  Dipole Moment: [D]
     X:     1.4732      Y:    -1.3246      Z:     0.0619     Total:     1.9821

*** Psi4 exiting successfully. Buy a developer a beer!
