                               Psi4 1.3.2 release

  ==> Input File <==

--------------------------------------------------------------------------
#psi4
#
memory 32 gb

molecule  {
0 1
  O       -2.3042200    -1.0991630    -0.0003290
  O       -2.3377670     1.1635920     0.0000360
  C       -0.2184710     0.0274960    -0.0000150
  C        0.5080430     1.2243810    -0.0001580
  C        0.4461120    -1.2054740     0.0002260
  C        1.9006900     1.1869520    -0.0000810
  C        1.8404380    -1.2322990     0.0003120
  C        2.5692530    -0.0403490     0.0001580
  C       -1.7002410     0.1214410    -0.0000850
  H       -0.0326576     2.1666694     0.1496750
  H       -0.1251480    -2.1283920     0.0003360
  H        2.4665660     2.1152060    -0.0002030
  H        2.3606420    -2.1869500     0.0005070
  H        3.6563130    -0.0679050     0.0002230
  H       -3.2647750    -0.9069250    -0.0003290
units angstrom
no_reorient  #important for SAPT in psi4, default
symmetry c1  #important for SAPT in psi4, default
}

set PROPERTIES_ORIGIN ["COM"]
properties('MP2/aug-cc-pvtz', properties = ['dipole'])
--------------------------------------------------------------------------

    Molecular point group: c1
  Charge       = 0
  Multiplicity = 1
  Basis Set: AUG-CC-PVTZ
    Blend: AUG-CC-PVTZ
  Basis Set: (AUG-CC-PVTZ AUX)
    Blend: AUG-CC-PVTZ-JKFIT

    Orbital Energies [Eh]
    ---------------------

    Doubly Occupied:

       1A    -20.617193     2A    -20.549809     3A    -11.394532
       4A    -11.259806     5A    -11.259017     6A    -11.258660
       7A    -11.256692     8A    -11.250254     9A    -11.249401
      10A     -1.460981    11A     -1.356066    12A     -1.170634
      13A     -1.050620    14A     -1.031174    15A     -0.899532
      16A     -0.844673    17A     -0.800852    18A     -0.730313
      19A     -0.705112    20A     -0.675507    21A     -0.640670
      22A     -0.632653    23A     -0.627116    24A     -0.603843
      25A     -0.586912    26A     -0.528383    27A     -0.519922
      28A     -0.507130    29A     -0.484279    30A     -0.458031
      31A     -0.356489    32A     -0.350870

  @DF-RHF Final Energy:  -418.47141603815760

   => Energetics <=

    Nuclear Repulsion Energy =            404.1915075999628471
    One-Electron Energy =               -1371.0915969191846671
    Two-Electron Energy =                 548.4286732810642206
    Total Energy =                       -418.4714160381575994
  Basis Set: (AUG-CC-PVTZ AUX)
    Blend: AUG-CC-PVTZ-RI
    Molecular point group: c1

    Geometry (in Angstrom), charge = 0, multiplicity = 1:

       Center              X                  Y                   Z               Mass
    ------------   -----------------  -----------------  -----------------  -----------------
         O           -2.263267138644    -1.107358281826    -0.001566183421    15.994914619570
         O           -2.296814138644     1.155396718174    -0.001201183421    15.994914619570
         C           -0.177518138644     0.019300718174    -0.001252183421    12.000000000000
         C            0.548995861356     1.216185718174    -0.001395183421    12.000000000000
         C            0.487064861356    -1.213669281826    -0.001011183421    12.000000000000
         C            1.941642861356     1.178756718174    -0.001318183421    12.000000000000
         C            1.881390861356    -1.240494281826    -0.000925183421    12.000000000000
         C            2.610205861356    -0.048544281826    -0.001079183421    12.000000000000
         C           -1.659288138644     0.113245718174    -0.001322183421    12.000000000000
         H            0.008295261356     2.158474118174     0.148437816579     1.007825032230
         H           -0.084195138644    -2.136587281826    -0.000901183421     1.007825032230
         H            2.507518861356     2.107010718174    -0.001440183421     1.007825032230
         H            2.401594861356    -2.195145281826    -0.000730183421     1.007825032230
         H            3.697265861356    -0.076100281826    -0.001014183421     1.007825032230
         H           -3.223822138644    -0.915120281826    -0.001566183421     1.007825032230

  Basis Set: AUG-CC-PVTZ
    Blend: AUG-CC-PVTZ
  Basis Set: (AUG-CC-PVTZ AUX)
    Blend: AUG-CC-PVTZ-JKFIT
	 Reference Energy          =    -418.4714160381575994 [Eh]
	 Singles Energy            =      -0.0000000000000000 [Eh]
	 Same-Spin Energy          =      -0.4349343886474030 [Eh]
	 Opposite-Spin Energy      =      -1.3155169136124298 [Eh]
	 Correlation Energy        =      -1.7504513022598327 [Eh]
	 Total Energy              =    -420.2218673404174183 [Eh]

	 ================> DF-SCS-MP2 Energies <==================
	-----------------------------------------------------------
	 SCS Same-Spin Scale       =       0.3333333333333333 [-]
	 SCS Opposite-Spin Scale   =       1.2000000000000000 [-]
	 SCS Same-Spin Energy      =      -0.1449781295491343 [Eh]
	 SCS Opposite-Spin Energy  =      -1.5786202963349159 [Eh]
	 SCS Correlation Energy    =      -1.7235984258840502 [Eh]
	 SCS Total Energy          =    -420.1950144640416624 [Eh]
	-----------------------------------------------------------

  Dipole Moment: [D]
     X:     1.4773      Y:    -1.3312      Z:     0.0927     Total:     1.9908

*** Psi4 exiting successfully. Buy a developer a beer!
