                               Psi4 1.3.2 release

  ==> Input File <==

--------------------------------------------------------------------------
#psi4
#
memory 32 gb

molecule  {
0 1
  O       -2.3042200    -1.0991630    -0.0003290
  O       -2.3377670     1.1635920     0.0000360
  C       -0.2184710     0.0274960    -0.0000150
  C        0.5080430     1.2243810    -0.0001580
  C        0.4461120    -1.2054740     0.0002260
  C        1.9006900     1.1869520    -0.0000810
  C        1.8404380    -1.2322990     0.0003120
  C        2.5692530    -0.0403490     0.0001580
  C       -1.7002410     0.1214410    -0.0000850
  H       -0.0326500     2.1666470    -0.0003250
  H       -0.1251480    -2.1283920     0.0003360
  H        2.4665530     2.1152472     0.2497970
  H        2.3606420    -2.1869500     0.0005070
  H        3.6563130    -0.0679050     0.0002230
  H       -3.2647750    -0.9069250    -0.0003290
units angstrom
no_reorient  #important for SAPT in psi4, default
symmetry c1  #important for SAPT in psi4, default
}

set PROPERTIES_ORIGIN ["COM"]
properties('MP2/aug-cc-pvtz', properties = ['dipole'])
--------------------------------------------------------------------------

    Molecular point group: c1
  Charge       = 0
  Multiplicity = 1
  Basis Set: AUG-CC-PVTZ
    Blend: AUG-CC-PVTZ
  Basis Set: (AUG-CC-PVTZ AUX)
    Blend: AUG-CC-PVTZ-JKFIT

    Orbital Energies [Eh]
    ---------------------

    Doubly Occupied:

       1A    -20.617402     2A    -20.550018     3A    -11.394767
       4A    -11.260164     5A    -11.259454     6A    -11.258914
       7A    -11.256411     8A    -11.251687     9A    -11.250301
      10A     -1.461196    11A     -1.356294    12A     -1.170836
      13A     -1.050648    14A     -1.031030    15A     -0.899875
      16A     -0.843702    17A     -0.800872    18A     -0.729625
      19A     -0.704889    20A     -0.676320    21A     -0.639035
      22A     -0.632845    23A     -0.626763    24A     -0.604192
      25A     -0.586112    26A     -0.529102    27A     -0.520231
      28A     -0.505418    29A     -0.484140    30A     -0.458179
      31A     -0.356423    32A     -0.350880

  @DF-RHF Final Energy:  -418.46870797425333

   => Energetics <=

    Nuclear Repulsion Energy =            404.1288285806180056
    One-Electron Energy =               -1370.9596144007125531
    Two-Electron Energy =                 548.3620778458412133
    Total Energy =                       -418.4687079742533342
  Basis Set: (AUG-CC-PVTZ AUX)
    Blend: AUG-CC-PVTZ-RI
    Molecular point group: c1

    Geometry (in Angstrom), charge = 0, multiplicity = 1:

       Center              X                  Y                   Z               Mass
    ------------   -----------------  -----------------  -----------------  -----------------
         O           -2.263267094049    -1.107358437084    -0.002392020547    15.994914619570
         O           -2.296814094049     1.155396562916    -0.002027020547    15.994914619570
         C           -0.177518094049     0.019300562916    -0.002078020547    12.000000000000
         C            0.548995905951     1.216185562916    -0.002221020547    12.000000000000
         C            0.487064905951    -1.213669437084    -0.001837020547    12.000000000000
         C            1.941642905951     1.178756562916    -0.002144020547    12.000000000000
         C            1.881390905951    -1.240494437084    -0.001751020547    12.000000000000
         C            2.610205905951    -0.048544437084    -0.001905020547    12.000000000000
         C           -1.659288094049     0.113245562916    -0.002148020547    12.000000000000
         H            0.008302905951     2.158451562916    -0.002388020547     1.007825032230
         H           -0.084195094049    -2.136587437084    -0.001727020547     1.007825032230
         H            2.507505905951     2.107051762916     0.247733979453     1.007825032230
         H            2.401594905951    -2.195145437084    -0.001556020547     1.007825032230
         H            3.697265905951    -0.076100437084    -0.001840020547     1.007825032230
         H           -3.223822094049    -0.915120437084    -0.002392020547     1.007825032230

  Basis Set: AUG-CC-PVTZ
    Blend: AUG-CC-PVTZ
  Basis Set: (AUG-CC-PVTZ AUX)
    Blend: AUG-CC-PVTZ-JKFIT
	 Reference Energy          =    -418.4687079742533342 [Eh]
	 Singles Energy            =      -0.0000000000000000 [Eh]
	 Same-Spin Energy          =      -0.4350220728435457 [Eh]
	 Opposite-Spin Energy      =      -1.3158154518745497 [Eh]
	 Correlation Energy        =      -1.7508375247180954 [Eh]
	 Total Energy              =    -420.2195454989714563 [Eh]

	 ================> DF-SCS-MP2 Energies <==================
	-----------------------------------------------------------
	 SCS Same-Spin Scale       =       0.3333333333333333 [-]
	 SCS Opposite-Spin Scale   =       1.2000000000000000 [-]
	 SCS Same-Spin Energy      =      -0.1450073576145152 [Eh]
	 SCS Opposite-Spin Energy  =      -1.5789785422494595 [Eh]
	 SCS Correlation Energy    =      -1.7239858998639748 [Eh]
	 SCS Total Energy          =    -420.1926938741173103 [Eh]
	-----------------------------------------------------------

  Dipole Moment: [D]
     X:     1.4391      Y:    -1.3595      Z:     0.1519     Total:     1.9855

*** Psi4 exiting successfully. Buy a developer a beer!
