                               Psi4 1.3.2 release

  ==> Input File <==

--------------------------------------------------------------------------
#psi4
#
memory 32 gb

molecule  {
0 1
  O       -2.3042200    -1.0991630    -0.0003290
  O       -2.3377670     1.1635920     0.0000360
  C       -0.2184710     0.0274960    -0.0000150
  C        0.5080430     1.2243810    -0.0001580
  C        0.4461120    -1.2054740     0.0002260
  C        1.9006900     1.1869520    -0.0000810
  C        1.8404380    -1.2322990     0.0003120
  C        2.5692530    -0.0403490     0.0001580
  C       -1.7002364     0.1214251    -0.1000850
  H       -0.0326500     2.1666470    -0.0003250
  H       -0.1251480    -2.1283920     0.0003360
  H        2.4665660     2.1152060    -0.0002030
  H        2.3606420    -2.1869500     0.0005070
  H        3.6563130    -0.0679050     0.0002230
  H       -3.2647750    -0.9069250    -0.0003290
units angstrom
no_reorient  #important for SAPT in psi4, default
symmetry c1  #important for SAPT in psi4, default
}

set PROPERTIES_ORIGIN ["COM"]
properties('MP2/aug-cc-pvtz', properties = ['dipole'])
--------------------------------------------------------------------------

    Molecular point group: c1
  Charge       = 0
  Multiplicity = 1
  Basis Set: AUG-CC-PVTZ
    Blend: AUG-CC-PVTZ
  Basis Set: (AUG-CC-PVTZ AUX)
    Blend: AUG-CC-PVTZ-JKFIT

    Orbital Energies [Eh]
    ---------------------

    Doubly Occupied:

       1A    -20.616925     2A    -20.550891     3A    -11.396014
       4A    -11.260095     5A    -11.258912     6A    -11.258749
       7A    -11.255818     8A    -11.250097     9A    -11.249260
      10A     -1.459277    11A     -1.354050    12A     -1.170516
      13A     -1.050209    14A     -1.031336    15A     -0.899010
      16A     -0.844882    17A     -0.800679    18A     -0.729883
      19A     -0.704694    20A     -0.675476    21A     -0.640670
      22A     -0.631370    23A     -0.626824    24A     -0.604782
      25A     -0.586385    26A     -0.528177    27A     -0.518950
      28A     -0.508926    29A     -0.483260    30A     -0.457793
      31A     -0.356082    32A     -0.351028

  @DF-RHF Final Energy:  -418.46789332790127

   => Energetics <=

    Nuclear Repulsion Energy =            404.0649292328160982
    One-Electron Energy =               -1370.8435999938676559
    Two-Electron Energy =                 548.3107774331502924
    Total Energy =                       -418.4678933279012654
  Basis Set: (AUG-CC-PVTZ AUX)
    Blend: AUG-CC-PVTZ-RI
    Molecular point group: c1

    Geometry (in Angstrom), charge = 0, multiplicity = 1:

       Center              X                  Y                   Z               Mass
    ------------   -----------------  -----------------  -----------------  -----------------
         O           -2.263267653730    -1.107356533376     0.009505673450    15.994914619570
         O           -2.296814653730     1.155398466624     0.009870673450    15.994914619570
         C           -0.177518653730     0.019302466624     0.009819673450    12.000000000000
         C            0.548995346270     1.216187466624     0.009676673450    12.000000000000
         C            0.487064346270    -1.213667533376     0.010060673450    12.000000000000
         C            1.941642346270     1.178758466624     0.009753673450    12.000000000000
         C            1.881390346270    -1.240492533376     0.010146673450    12.000000000000
         C            2.610205346270    -0.048542533376     0.009992673450    12.000000000000
         C           -1.659284053730     0.113231566624    -0.090250326550    12.000000000000
         H            0.008302346270     2.158453466624     0.009509673450     1.007825032230
         H           -0.084195653730    -2.136585533376     0.010170673450     1.007825032230
         H            2.507518346270     2.107012466624     0.009631673450     1.007825032230
         H            2.401594346270    -2.195143533376     0.010341673450     1.007825032230
         H            3.697265346270    -0.076098533376     0.010057673450     1.007825032230
         H           -3.223822653730    -0.915118533376     0.009505673450     1.007825032230

  Basis Set: AUG-CC-PVTZ
    Blend: AUG-CC-PVTZ
  Basis Set: (AUG-CC-PVTZ AUX)
    Blend: AUG-CC-PVTZ-JKFIT
	 Reference Energy          =    -418.4678933279012654 [Eh]
	 Singles Energy            =      -0.0000000000000000 [Eh]
	 Same-Spin Energy          =      -0.4351381119971317 [Eh]
	 Opposite-Spin Energy      =      -1.3159825742965041 [Eh]
	 Correlation Energy        =      -1.7511206862936359 [Eh]
	 Total Energy              =    -420.2190140141948973 [Eh]

	 ================> DF-SCS-MP2 Energies <==================
	-----------------------------------------------------------
	 SCS Same-Spin Scale       =       0.3333333333333333 [-]
	 SCS Opposite-Spin Scale   =       1.2000000000000000 [-]
	 SCS Same-Spin Energy      =      -0.1450460373323772 [Eh]
	 SCS Opposite-Spin Energy  =      -1.5791790891558048 [Eh]
	 SCS Correlation Energy    =      -1.7242251264881820 [Eh]
	 SCS Total Energy          =    -420.1921184543894583 [Eh]
	-----------------------------------------------------------

  Dipole Moment: [D]
     X:     1.4663      Y:    -1.3045      Z:    -0.1250     Total:     1.9666

*** Psi4 exiting successfully. Buy a developer a beer!
