                               Psi4 1.3.2 release

  ==> Input File <==

--------------------------------------------------------------------------
#psi4
#
memory 32 gb

molecule  {
0 1
  O       -2.3042200    -1.0991630    -0.0003290
  O       -2.3377670     1.1635920     0.0000360
  C       -0.2184710     0.0274960    -0.0000150
  C        0.5080430     1.2243810    -0.0001580
  C        0.4461120    -1.2054740     0.0002260
  C        1.9006900     1.1869520    -0.0000810
  C        1.8404380    -1.2322990     0.0003120
  C        2.5692530    -0.0403490     0.0001580
  C       -1.7002271     0.1213932    -0.3000850
  H       -0.0326500     2.1666470    -0.0003250
  H       -0.1251480    -2.1283920     0.0003360
  H        2.4665660     2.1152060    -0.0002030
  H        2.3606420    -2.1869500     0.0005070
  H        3.6563130    -0.0679050     0.0002230
  H       -3.2647750    -0.9069250    -0.0003290
units angstrom
no_reorient  #important for SAPT in psi4, default
symmetry c1  #important for SAPT in psi4, default
}

set PROPERTIES_ORIGIN ["COM"]
properties('MP2/aug-cc-pvtz', properties = ['dipole'])
--------------------------------------------------------------------------

    Molecular point group: c1
  Charge       = 0
  Multiplicity = 1
  Basis Set: AUG-CC-PVTZ
    Blend: AUG-CC-PVTZ
  Basis Set: (AUG-CC-PVTZ AUX)
    Blend: AUG-CC-PVTZ-JKFIT

    Orbital Energies [Eh]
    ---------------------

    Doubly Occupied:

       1A    -20.614402     2A    -20.559411     3A    -11.406327
       4A    -11.265348     5A    -11.258317     6A    -11.258232
       7A    -11.255308     8A    -11.250151     9A    -11.249358
      10A     -1.445688    11A     -1.338820    12A     -1.169795
      13A     -1.047255    14A     -1.031107    15A     -0.894195
      16A     -0.844172    17A     -0.797824    18A     -0.724207
      19A     -0.700526    20A     -0.669964    21A     -0.639802
      22A     -0.624613    23A     -0.621595    24A     -0.603988
      25A     -0.581950    26A     -0.528781    27A     -0.515973
      28A     -0.508956    29A     -0.475475    30A     -0.456021
      31A     -0.353405    32A     -0.350796

  @DF-RHF Final Energy:  -418.42731774956661

   => Energetics <=

    Nuclear Repulsion Energy =            402.7525025618119230
    One-Electron Energy =               -1368.2761229506002110
    Two-Electron Energy =                 547.0963026392216761
    Total Energy =                       -418.4273177495665550
  Basis Set: (AUG-CC-PVTZ AUX)
    Blend: AUG-CC-PVTZ-RI
    Molecular point group: c1

    Geometry (in Angstrom), charge = 0, multiplicity = 1:

       Center              X                  Y                   Z               Mass
    ------------   -----------------  -----------------  -----------------  -----------------
         O           -2.263268568209    -1.107353396616     0.029171875812    15.994914619570
         O           -2.296815568209     1.155401603384     0.029536875812    15.994914619570
         C           -0.177519568209     0.019305603384     0.029485875812    12.000000000000
         C            0.548994431791     1.216190603384     0.029342875812    12.000000000000
         C            0.487063431791    -1.213664396616     0.029726875812    12.000000000000
         C            1.941641431791     1.178761603384     0.029419875812    12.000000000000
         C            1.881389431791    -1.240489396616     0.029812875812    12.000000000000
         C            2.610204431791    -0.048539396616     0.029658875812    12.000000000000
         C           -1.659275668209     0.113202803384    -0.270584124188    12.000000000000
         H            0.008301431791     2.158456603384     0.029175875812     1.007825032230
         H           -0.084196568209    -2.136582396616     0.029836875812     1.007825032230
         H            2.507517431791     2.107015603384     0.029297875812     1.007825032230
         H            2.401593431791    -2.195140396616     0.030007875812     1.007825032230
         H            3.697264431791    -0.076095396616     0.029723875812     1.007825032230
         H           -3.223823568209    -0.915115396616     0.029171875812     1.007825032230

  Basis Set: AUG-CC-PVTZ
    Blend: AUG-CC-PVTZ
  Basis Set: (AUG-CC-PVTZ AUX)
    Blend: AUG-CC-PVTZ-JKFIT
	 Reference Energy          =    -418.4273177495666118 [Eh]
	 Singles Energy            =      -0.0000000000000000 [Eh]
	 Same-Spin Energy          =      -0.4375624033142262 [Eh]
	 Opposite-Spin Energy      =      -1.3226525621642662 [Eh]
	 Correlation Energy        =      -1.7602149654784924 [Eh]
	 Total Energy              =    -420.1875327150451085 [Eh]

	 ================> DF-SCS-MP2 Energies <==================
	-----------------------------------------------------------
	 SCS Same-Spin Scale       =       0.3333333333333333 [-]
	 SCS Opposite-Spin Scale   =       1.2000000000000000 [-]
	 SCS Same-Spin Energy      =      -0.1458541344380754 [Eh]
	 SCS Opposite-Spin Energy  =      -1.5871830745971194 [Eh]
	 SCS Correlation Energy    =      -1.7330372090351949 [Eh]
	 SCS Total Energy          =    -420.1603549586018289 [Eh]
	-----------------------------------------------------------

  Dipole Moment: [D]
     X:     1.4326      Y:    -1.1799      Z:    -0.3504     Total:     1.8887

*** Psi4 exiting successfully. Buy a developer a beer!
