                               Psi4 1.3.2 release

  ==> Input File <==

--------------------------------------------------------------------------
#psi4
#
memory 32 gb

molecule  {
0 1
  O       -2.1104355     0.3224576    -0.4364348
  C        0.0828560    -0.2735390     0.1552020
  C       -1.3718780    -0.5967940     0.3561530
  C        1.0230620    -1.2945310    -0.0146130
  C        0.5146620     1.0579360     0.1858820
  C        2.3798640    -0.9928320    -0.1503380
  C        1.8683010     1.3603090     0.0393330
  C        2.8054620     0.3361700    -0.1221330
  C       -3.5418170     0.1364340    -0.1366890
  H       -1.5887080    -1.6188490     0.0040070
  H       -1.6294080    -0.5627340     1.4290290
  H        0.6929810    -2.3316320    -0.0519460
  H       -0.2198410     1.8503920     0.3003770
  H        3.1021730    -1.7945770    -0.2851790
  H        2.1947460     2.3976470     0.0562560
  H        3.8605860     0.5739780    -0.2341380
  H       -4.0704880     0.9018250    -0.7058890
  H       -3.8008160     0.2290630     0.9273410
  H       -3.8529070    -0.8569990    -0.4882140
units angstrom
no_reorient  #important for SAPT in psi4, default
symmetry c1  #important for SAPT in psi4, default
}

set PROPERTIES_ORIGIN ["COM"]
properties('MP2/aug-cc-pvtz', properties = ['dipole'])
--------------------------------------------------------------------------

    Molecular point group: c1
  Charge       = 0
  Multiplicity = 1
  Basis Set: AUG-CC-PVTZ
    Blend: AUG-CC-PVTZ
  Basis Set: (AUG-CC-PVTZ AUX)
    Blend: AUG-CC-PVTZ-JKFIT

    Orbital Energies [Eh]
    ---------------------

    Doubly Occupied:

       1A    -20.564627     2A    -11.282111     3A    -11.279445
       4A    -11.236640     5A    -11.233252     6A    -11.232241
       7A    -11.231284     8A    -11.230340     9A    -11.227358
      10A     -1.363367    11A     -1.147812    12A     -1.037873
      13A     -1.008865    14A     -0.946588    15A     -0.890394
      16A     -0.821988    17A     -0.793758    18A     -0.696852
      19A     -0.664073    20A     -0.647110    21A     -0.641431
      22A     -0.608725    23A     -0.606748    24A     -0.580586
      25A     -0.554743    26A     -0.540834    27A     -0.504926
      28A     -0.491810    29A     -0.486268    30A     -0.476541
      31A     -0.433737    32A     -0.332046    33A     -0.324906

  @DF-RHF Final Energy:  -383.74050260327152

   => Energetics <=

    Nuclear Repulsion Energy =            416.0392300352185089
    One-Electron Energy =               -1345.3209101450067919
    Two-Electron Energy =                 545.5411775065168740
    Total Energy =                       -383.7405026032714659
  Basis Set: (AUG-CC-PVTZ AUX)
    Blend: AUG-CC-PVTZ-RI
    Molecular point group: c1

    Geometry (in Angstrom), charge = 0, multiplicity = 1:

       Center              X                  Y                   Z               Mass
    ------------   -----------------  -----------------  -----------------  -----------------
         O           -2.159722845728     0.316443594106    -0.417855100529    15.994914619570
         C            0.033568654272    -0.279553005894     0.173781699471    12.000000000000
         C           -1.421165345728    -0.602808005894     0.374732699471    12.000000000000
         C            0.973774654272    -1.300545005894     0.003966699471    12.000000000000
         C            0.465374654272     1.051921994106     0.204461699471    12.000000000000
         C            2.330576654272    -0.998846005894    -0.131758300529    12.000000000000
         C            1.819013654272     1.354294994106     0.057912699471    12.000000000000
         C            2.756174654272     0.330155994106    -0.103553300529    12.000000000000
         C           -3.591104345728     0.130419994106    -0.118109300529    12.000000000000
         H           -1.637995345728    -1.624863005894     0.022586699471     1.007825032230
         H           -1.678695345728    -0.568748005894     1.447608699471     1.007825032230
         H            0.643693654272    -2.337646005894    -0.033366300529     1.007825032230
         H           -0.269128345728     1.844377994106     0.318956699471     1.007825032230
         H            3.052885654272    -1.800591005894    -0.266599300529     1.007825032230
         H            2.145458654272     2.391632994106     0.074835699471     1.007825032230
         H            3.811298654272     0.567963994106    -0.215558300529     1.007825032230
         H           -4.119775345728     0.895810994106    -0.687309300529     1.007825032230
         H           -3.850103345728     0.223048994106     0.945920699471     1.007825032230
         H           -3.902194345728    -0.863013005894    -0.469634300529     1.007825032230

  Basis Set: AUG-CC-PVTZ
    Blend: AUG-CC-PVTZ
  Basis Set: (AUG-CC-PVTZ AUX)
    Blend: AUG-CC-PVTZ-JKFIT
	 Reference Energy          =    -383.7405026032715227 [Eh]
	 Singles Energy            =      -0.0000000000000000 [Eh]
	 Same-Spin Energy          =      -0.4081717808631149 [Eh]
	 Opposite-Spin Energy      =      -1.3168703835054387 [Eh]
	 Correlation Energy        =      -1.7250421643685536 [Eh]
	 Total Energy              =    -385.4655447676400968 [Eh]

	 ================> DF-SCS-MP2 Energies <==================
	-----------------------------------------------------------
	 SCS Same-Spin Scale       =       0.3333333333333333 [-]
	 SCS Opposite-Spin Scale   =       1.2000000000000000 [-]
	 SCS Same-Spin Energy      =      -0.1360572602877050 [Eh]
	 SCS Opposite-Spin Energy  =      -1.5802444602065264 [Eh]
	 SCS Correlation Energy    =      -1.7163017204942315 [Eh]
	 SCS Total Energy          =    -385.4568043237657662 [Eh]
	-----------------------------------------------------------

  Dipole Moment: [D]
     X:    -1.0074      Y:    -0.7111      Z:     0.8752     Total:     1.5121

*** Psi4 exiting successfully. Buy a developer a beer!
