                               Psi4 1.3.2 release

  ==> Input File <==

--------------------------------------------------------------------------
#psi4
#
memory 32 gb

molecule  {
0 1
  O       -2.1452768     0.3447582    -0.3746137
  C        0.0828560    -0.2735390     0.1552020
  C       -1.3718780    -0.5967940     0.3561530
  C        1.0230620    -1.2945310    -0.0146130
  C        0.5146620     1.0579360     0.1858820
  C        2.3798640    -0.9928320    -0.1503380
  C        1.8683010     1.3603090     0.0393330
  C        2.8054620     0.3361700    -0.1221330
  C       -3.5418170     0.1364340    -0.1366890
  H       -1.5887080    -1.6188490     0.0040070
  H       -1.6294080    -0.5627340     1.4290290
  H        0.6929810    -2.3316320    -0.0519460
  H       -0.2198410     1.8503920     0.3003770
  H        3.1021730    -1.7945770    -0.2851790
  H        2.1947460     2.3976470     0.0562560
  H        3.8605860     0.5739780    -0.2341380
  H       -4.0704880     0.9018250    -0.7058890
  H       -3.8008160     0.2290630     0.9273410
  H       -3.8529070    -0.8569990    -0.4882140
units angstrom
no_reorient  #important for SAPT in psi4, default
symmetry c1  #important for SAPT in psi4, default
}

set PROPERTIES_ORIGIN ["COM"]
properties('MP2/aug-cc-pvtz', properties = ['dipole'])
--------------------------------------------------------------------------

    Molecular point group: c1
  Charge       = 0
  Multiplicity = 1
  Basis Set: AUG-CC-PVTZ
    Blend: AUG-CC-PVTZ
  Basis Set: (AUG-CC-PVTZ AUX)
    Blend: AUG-CC-PVTZ-JKFIT

    Orbital Energies [Eh]
    ---------------------

    Doubly Occupied:

       1A    -20.562505     2A    -11.283617     3A    -11.275403
       4A    -11.238356     5A    -11.234325     6A    -11.233132
       7A    -11.232609     8A    -11.231323     9A    -11.228292
      10A     -1.373154    11A     -1.149229    12A     -1.040651
      13A     -1.009896    14A     -0.949250    15A     -0.887390
      16A     -0.822837    17A     -0.795033    18A     -0.698392
      19A     -0.667940    20A     -0.651624    21A     -0.644527
      22A     -0.611772    23A     -0.607809    24A     -0.581497
      25A     -0.554968    26A     -0.546289    27A     -0.500410
      28A     -0.491744    29A     -0.486753    30A     -0.479016
      31A     -0.431518    32A     -0.332997    33A     -0.326013

  @DF-RHF Final Energy:  -383.74606966751480

   => Energetics <=

    Nuclear Repulsion Energy =            416.3225626193189441
    One-Electron Energy =               -1345.8167209008731788
    Two-Electron Energy =                 545.7480886140394887
    Total Energy =                       -383.7460696675148029
  Basis Set: (AUG-CC-PVTZ AUX)
    Blend: AUG-CC-PVTZ-RI
    Molecular point group: c1

    Geometry (in Angstrom), charge = 0, multiplicity = 1:

       Center              X                  Y                   Z               Mass
    ------------   -----------------  -----------------  -----------------  -----------------
         O           -2.189998984998     0.335822207172    -0.364134251036    15.994914619570
         C            0.038133815002    -0.282474992828     0.165681448964    12.000000000000
         C           -1.416600184998    -0.605729992828     0.366632448964    12.000000000000
         C            0.978339815002    -1.303466992828    -0.004133551036    12.000000000000
         C            0.469939815002     1.049000007172     0.196361448964    12.000000000000
         C            2.335141815002    -1.001767992828    -0.139858551036    12.000000000000
         C            1.823578815002     1.351373007172     0.049812448964    12.000000000000
         C            2.760739815002     0.327234007172    -0.111653551036    12.000000000000
         C           -3.586539184998     0.127498007172    -0.126209551036    12.000000000000
         H           -1.633430184998    -1.627784992828     0.014486448964     1.007825032230
         H           -1.674130184998    -0.571669992828     1.439508448964     1.007825032230
         H            0.648258815002    -2.340567992828    -0.041466551036     1.007825032230
         H           -0.264563184998     1.841456007172     0.310856448964     1.007825032230
         H            3.057450815002    -1.803512992828    -0.274699551036     1.007825032230
         H            2.150023815002     2.388711007172     0.066735448964     1.007825032230
         H            3.815863815002     0.565042007172    -0.223658551036     1.007825032230
         H           -4.115210184998     0.892889007172    -0.695409551036     1.007825032230
         H           -3.845538184998     0.220127007172     0.937820448964     1.007825032230
         H           -3.897629184998    -0.865934992828    -0.477734551036     1.007825032230

  Basis Set: AUG-CC-PVTZ
    Blend: AUG-CC-PVTZ
  Basis Set: (AUG-CC-PVTZ AUX)
    Blend: AUG-CC-PVTZ-JKFIT
	 Reference Energy          =    -383.7460696675148029 [Eh]
	 Singles Energy            =      -0.0000000000000000 [Eh]
	 Same-Spin Energy          =      -0.4077229365509636 [Eh]
	 Opposite-Spin Energy      =      -1.3152494410743911 [Eh]
	 Correlation Energy        =      -1.7229723776253547 [Eh]
	 Total Energy              =    -385.4690420451401565 [Eh]

	 ================> DF-SCS-MP2 Energies <==================
	-----------------------------------------------------------
	 SCS Same-Spin Scale       =       0.3333333333333333 [-]
	 SCS Opposite-Spin Scale   =       1.2000000000000000 [-]
	 SCS Same-Spin Energy      =      -0.1359076455169879 [Eh]
	 SCS Opposite-Spin Energy  =      -1.5782993292892693 [Eh]
	 SCS Correlation Energy    =      -1.7142069748062572 [Eh]
	 SCS Total Energy          =    -385.4602766423210483 [Eh]
	-----------------------------------------------------------

  Dipole Moment: [D]
     X:    -0.8349      Y:    -0.7464      Z:     0.7566     Total:     1.3515

*** Psi4 exiting successfully. Buy a developer a beer!
