                               Psi4 1.3.2 release

  ==> Input File <==

--------------------------------------------------------------------------
#psi4
#
memory 32 gb

molecule  {
0 1
  O       -2.1779982     0.3644780    -0.3107896
  C        0.0828560    -0.2735390     0.1552020
  C       -1.3718780    -0.5967940     0.3561530
  C        1.0230620    -1.2945310    -0.0146130
  C        0.5146620     1.0579360     0.1858820
  C        2.3798640    -0.9928320    -0.1503380
  C        1.8683010     1.3603090     0.0393330
  C        2.8054620     0.3361700    -0.1221330
  C       -3.5418170     0.1364340    -0.1366890
  H       -1.5887080    -1.6188490     0.0040070
  H       -1.6294080    -0.5627340     1.4290290
  H        0.6929810    -2.3316320    -0.0519460
  H       -0.2198410     1.8503920     0.3003770
  H        3.1021730    -1.7945770    -0.2851790
  H        2.1947460     2.3976470     0.0562560
  H        3.8605860     0.5739780    -0.2341380
  H       -4.0704880     0.9018250    -0.7058890
  H       -3.8008160     0.2290630     0.9273410
  H       -3.8529070    -0.8569990    -0.4882140
units angstrom
no_reorient  #important for SAPT in psi4, default
symmetry c1  #important for SAPT in psi4, default
}

set PROPERTIES_ORIGIN ["COM"]
properties('MP2/aug-cc-pvtz', properties = ['dipole'])
--------------------------------------------------------------------------

    Molecular point group: c1
  Charge       = 0
  Multiplicity = 1
  Basis Set: AUG-CC-PVTZ
    Blend: AUG-CC-PVTZ
  Basis Set: (AUG-CC-PVTZ AUX)
    Blend: AUG-CC-PVTZ-JKFIT

    Orbital Energies [Eh]
    ---------------------

    Doubly Occupied:

       1A    -20.560267     2A    -11.285230     3A    -11.271728
       4A    -11.240090     5A    -11.235391     6A    -11.234066
       7A    -11.233821     8A    -11.232259     9A    -11.229213
      10A     -1.383331    11A     -1.150604    12A     -1.043381
      13A     -1.010906    14A     -0.952257    15A     -0.884354
      16A     -0.823652    17A     -0.796282    18A     -0.700061
      19A     -0.672079    20A     -0.656632    21A     -0.647328
      22A     -0.614722    23A     -0.608767    24A     -0.582367
      25A     -0.556518    26A     -0.550389    27A     -0.497741
      28A     -0.491544    29A     -0.487741    30A     -0.478667
      31A     -0.428098    32A     -0.333928    33A     -0.326988

  @DF-RHF Final Energy:  -383.74754147775838

   => Energetics <=

    Nuclear Repulsion Energy =            416.5999291535997031
    One-Electron Energy =               -1346.2941343253548894
    Two-Electron Energy =                 545.9466636939966975
    Total Energy =                       -383.7475414777584319
  Basis Set: (AUG-CC-PVTZ AUX)
    Blend: AUG-CC-PVTZ-RI
    Molecular point group: c1

    Geometry (in Angstrom), charge = 0, multiplicity = 1:

       Center              X                  Y                   Z               Mass
    ------------   -----------------  -----------------  -----------------  -----------------
         O           -2.218432988997     0.352958175439    -0.308672849183    15.994914619570
         C            0.042421211003    -0.285058824561     0.157318750817    12.000000000000
         C           -1.412312788997    -0.608313824561     0.358269750817    12.000000000000
         C            0.982627211003    -1.306050824561    -0.012496249183    12.000000000000
         C            0.474227211003     1.046416175439     0.187998750817    12.000000000000
         C            2.339429211003    -1.004351824561    -0.148221249183    12.000000000000
         C            1.827866211003     1.348789175439     0.041449750817    12.000000000000
         C            2.765027211003     0.324650175439    -0.120016249183    12.000000000000
         C           -3.582251788997     0.124914175439    -0.134572249183    12.000000000000
         H           -1.629142788997    -1.630368824561     0.006123750817     1.007825032230
         H           -1.669842788997    -0.574253824561     1.431145750817     1.007825032230
         H            0.652546211003    -2.343151824561    -0.049829249183     1.007825032230
         H           -0.260275788997     1.838872175439     0.302493750817     1.007825032230
         H            3.061738211003    -1.806096824561    -0.283062249183     1.007825032230
         H            2.154311211003     2.386127175439     0.058372750817     1.007825032230
         H            3.820151211003     0.562458175439    -0.232021249183     1.007825032230
         H           -4.110922788997     0.890305175439    -0.703772249183     1.007825032230
         H           -3.841250788997     0.217543175439     0.929457750817     1.007825032230
         H           -3.893341788997    -0.868518824561    -0.486097249183     1.007825032230

  Basis Set: AUG-CC-PVTZ
    Blend: AUG-CC-PVTZ
  Basis Set: (AUG-CC-PVTZ AUX)
    Blend: AUG-CC-PVTZ-JKFIT
	 Reference Energy          =    -383.7475414777583751 [Eh]
	 Singles Energy            =      -0.0000000000000000 [Eh]
	 Same-Spin Energy          =      -0.4074175049080454 [Eh]
	 Opposite-Spin Energy      =      -1.3139768538750032 [Eh]
	 Correlation Energy        =      -1.7213943587830487 [Eh]
	 Total Energy              =    -385.4689358365414478 [Eh]

	 ================> DF-SCS-MP2 Energies <==================
	-----------------------------------------------------------
	 SCS Same-Spin Scale       =       0.3333333333333333 [-]
	 SCS Opposite-Spin Scale   =       1.2000000000000000 [-]
	 SCS Same-Spin Energy      =      -0.1358058349693484 [Eh]
	 SCS Opposite-Spin Energy  =      -1.5767722246500038 [Eh]
	 SCS Correlation Energy    =      -1.7125780596193523 [Eh]
	 SCS Total Energy          =    -385.4601195373777500 [Eh]
	-----------------------------------------------------------

  Dipole Moment: [D]
     X:    -0.6607      Y:    -0.7784      Z:     0.6301     Total:     1.1998

*** Psi4 exiting successfully. Buy a developer a beer!
