                               Psi4 1.3.2 release

  ==> Input File <==

--------------------------------------------------------------------------
#psi4
#
memory 32 gb

molecule  {
0 1
  O       -2.1564240     0.3516210    -0.3535530
  C        0.0909854    -0.2624766     0.2592573
  C       -1.3718780    -0.5967940     0.3561530
  C        1.0230620    -1.2945310    -0.0146130
  C        0.5146620     1.0579360     0.1858820
  C        2.3798640    -0.9928320    -0.1503380
  C        1.8683010     1.3603090     0.0393330
  C        2.8054620     0.3361700    -0.1221330
  C       -3.5418170     0.1364340    -0.1366890
  H       -1.5887080    -1.6188490     0.0040070
  H       -1.6294080    -0.5627340     1.4290290
  H        0.6929810    -2.3316320    -0.0519460
  H       -0.2198410     1.8503920     0.3003770
  H        3.1021730    -1.7945770    -0.2851790
  H        2.1947460     2.3976470     0.0562560
  H        3.8605860     0.5739780    -0.2341380
  H       -4.0704880     0.9018250    -0.7058890
  H       -3.8008160     0.2290630     0.9273410
  H       -3.8529070    -0.8569990    -0.4882140
units angstrom
no_reorient  #important for SAPT in psi4, default
symmetry c1  #important for SAPT in psi4, default
}

set PROPERTIES_ORIGIN ["COM"]
properties('MP2/aug-cc-pvtz', properties = ['dipole'])
--------------------------------------------------------------------------

    Molecular point group: c1
  Charge       = 0
  Multiplicity = 1
  Basis Set: AUG-CC-PVTZ
    Blend: AUG-CC-PVTZ
  Basis Set: (AUG-CC-PVTZ AUX)
    Blend: AUG-CC-PVTZ-JKFIT

    Orbital Energies [Eh]
    ---------------------

    Doubly Occupied:

       1A    -20.562564     2A    -11.284001     3A    -11.274577
       4A    -11.240096     5A    -11.235837     6A    -11.234030
       7A    -11.233366     8A    -11.231704     9A    -11.228025
      10A     -1.376537    11A     -1.149343    12A     -1.041651
      13A     -1.010084    14A     -0.949938    15A     -0.887387
      16A     -0.823226    17A     -0.794274    18A     -0.698752
      19A     -0.669231    20A     -0.652850    21A     -0.645739
      22A     -0.612983    23A     -0.607928    24A     -0.581637
      25A     -0.556911    26A     -0.546838    27A     -0.500028
      28A     -0.492820    29A     -0.484911    30A     -0.478064
      31A     -0.430855    32A     -0.332775    33A     -0.325730

  @DF-RHF Final Energy:  -383.74319774725473

   => Energetics <=

    Nuclear Repulsion Energy =            416.1808312706598940
    One-Electron Energy =               -1345.4986720284862258
    Two-Electron Energy =                 545.5746430105716627
    Total Energy =                       -383.7431977472547260
  Basis Set: (AUG-CC-PVTZ AUX)
    Blend: AUG-CC-PVTZ-RI
    Molecular point group: c1

    Geometry (in Angstrom), charge = 0, multiplicity = 1:

       Center              X                  Y                   Z               Mass
    ------------   -----------------  -----------------  -----------------  -----------------
         O           -2.200484731579     0.340698340404    -0.356061890440    15.994914619570
         C            0.046924668421    -0.273399259596     0.256748409560    12.000000000000
         C           -1.415938731579    -0.607716659596     0.353644109560    12.000000000000
         C            0.979001268421    -1.305453659596    -0.017121890440    12.000000000000
         C            0.470601268421     1.047013340404     0.183373109560    12.000000000000
         C            2.335803268421    -1.003754659596    -0.152846890440    12.000000000000
         C            1.824240268421     1.349386340404     0.036824109560    12.000000000000
         C            2.761401268421     0.325247340404    -0.124641890440    12.000000000000
         C           -3.585877731579     0.125511340404    -0.139197890440    12.000000000000
         H           -1.632768731579    -1.629771659596     0.001498109560     1.007825032230
         H           -1.673468731579    -0.573656659596     1.426520109560     1.007825032230
         H            0.648920268421    -2.342554659596    -0.054454890440     1.007825032230
         H           -0.263901731579     1.839469340404     0.297868109560     1.007825032230
         H            3.058112268421    -1.805499659596    -0.287687890440     1.007825032230
         H            2.150685268421     2.386724340404     0.053747109560     1.007825032230
         H            3.816525268421     0.563055340404    -0.236646890440     1.007825032230
         H           -4.114548731579     0.890902340404    -0.708397890440     1.007825032230
         H           -3.844876731579     0.218140340404     0.924832109560     1.007825032230
         H           -3.896967731579    -0.867921659596    -0.490722890440     1.007825032230

  Basis Set: AUG-CC-PVTZ
    Blend: AUG-CC-PVTZ
  Basis Set: (AUG-CC-PVTZ AUX)
    Blend: AUG-CC-PVTZ-JKFIT
	 Reference Energy          =    -383.7431977472547260 [Eh]
	 Singles Energy            =      -0.0000000000000000 [Eh]
	 Same-Spin Energy          =      -0.4077564822135752 [Eh]
	 Opposite-Spin Energy      =      -1.3151194804272945 [Eh]
	 Correlation Energy        =      -1.7228759626408698 [Eh]
	 Total Energy              =    -385.4660737098955678 [Eh]

	 ================> DF-SCS-MP2 Energies <==================
	-----------------------------------------------------------
	 SCS Same-Spin Scale       =       0.3333333333333333 [-]
	 SCS Opposite-Spin Scale   =       1.2000000000000000 [-]
	 SCS Same-Spin Energy      =      -0.1359188274045250 [Eh]
	 SCS Opposite-Spin Energy  =      -1.5781433765127535 [Eh]
	 SCS Correlation Energy    =      -1.7140622039172786 [Eh]
	 SCS Total Energy          =    -385.4572599511719773 [Eh]
	-----------------------------------------------------------

  Dipole Moment: [D]
     X:    -0.7934      Y:    -0.7583      Z:     0.6755     Total:     1.2887

*** Psi4 exiting successfully. Buy a developer a beer!
