                               Psi4 1.3.2 release

  ==> Input File <==

--------------------------------------------------------------------------
#psi4
#
memory 32 gb

molecule  {
0 1
  O       -2.1564240     0.3516210    -0.3535530
  C        0.0797140    -0.2765530     0.1293214
  C       -1.3718780    -0.5967940     0.3561530
  C        1.0230620    -1.2945310    -0.0146130
  C        0.5146620     1.0579360     0.1858820
  C        2.3798640    -0.9928320    -0.1503380
  C        1.8683010     1.3603090     0.0393330
  C        2.8054620     0.3361700    -0.1221330
  C       -3.5418170     0.1364340    -0.1366890
  H       -1.5887080    -1.6188490     0.0040070
  H       -1.6294080    -0.5627340     1.4290290
  H        0.6929810    -2.3316320    -0.0519460
  H       -0.2198410     1.8503920     0.3003770
  H        3.1021730    -1.7945770    -0.2851790
  H        2.1947460     2.3976470     0.0562560
  H        3.8605860     0.5739780    -0.2341380
  H       -4.0704880     0.9018250    -0.7058890
  H       -3.8008160     0.2290630     0.9273410
  H       -3.8529070    -0.8569990    -0.4882140
units angstrom
no_reorient  #important for SAPT in psi4, default
symmetry c1  #important for SAPT in psi4, default
}

set PROPERTIES_ORIGIN ["COM"]
properties('MP2/aug-cc-pvtz', properties = ['dipole'])
--------------------------------------------------------------------------

    Molecular point group: c1
  Charge       = 0
  Multiplicity = 1
  Basis Set: AUG-CC-PVTZ
    Blend: AUG-CC-PVTZ
  Basis Set: (AUG-CC-PVTZ AUX)
    Blend: AUG-CC-PVTZ-JKFIT

    Orbital Energies [Eh]
    ---------------------

    Doubly Occupied:

       1A    -20.561527     2A    -11.284168     3A    -11.273982
       4A    -11.238954     5A    -11.234683     6A    -11.233419
       7A    -11.232843     8A    -11.231770     9A    -11.229093
      10A     -1.376485    11A     -1.149558    12A     -1.041531
      13A     -1.010172    14A     -0.950186    15A     -0.886099
      16A     -0.822860    17A     -0.795660    18A     -0.698924
      19A     -0.669312    20A     -0.653553    21A     -0.645242
      22A     -0.612810    23A     -0.607784    24A     -0.581772
      25A     -0.554938    26A     -0.547970    27A     -0.499035
      28A     -0.491807    29A     -0.487174    30A     -0.478906
      31A     -0.430363    32A     -0.333558    33A     -0.326190

  @DF-RHF Final Energy:  -383.74656957563394

   => Energetics <=

    Nuclear Repulsion Energy =            416.4280142164357130
    One-Electron Energy =               -1346.0045072828354478
    Two-Electron Energy =                 545.8299234907658501
    Total Energy =                       -383.7465695756338846
  Basis Set: (AUG-CC-PVTZ AUX)
    Blend: AUG-CC-PVTZ-RI
    Molecular point group: c1

    Geometry (in Angstrom), charge = 0, multiplicity = 1:

       Center              X                  Y                   Z               Mass
    ------------   -----------------  -----------------  -----------------  -----------------
         O           -2.199376733765     0.342082074496    -0.343288970194    15.994914619570
         C            0.036761266235    -0.286091925504     0.139585429806    12.000000000000
         C           -1.414830733765    -0.606332925504     0.366417029806    12.000000000000
         C            0.980109266235    -1.304069925504    -0.004348970194    12.000000000000
         C            0.471709266235     1.048397074496     0.196146029806    12.000000000000
         C            2.336911266235    -1.002370925504    -0.140073970194    12.000000000000
         C            1.825348266235     1.350770074496     0.049597029806    12.000000000000
         C            2.762509266235     0.326631074496    -0.111868970194    12.000000000000
         C           -3.584769733765     0.126895074496    -0.126424970194    12.000000000000
         H           -1.631660733765    -1.628387925504     0.014271029806     1.007825032230
         H           -1.672360733765    -0.572272925504     1.439293029806     1.007825032230
         H            0.650028266235    -2.341170925504    -0.041681970194     1.007825032230
         H           -0.262793733765     1.840853074496     0.310641029806     1.007825032230
         H            3.059220266235    -1.804115925504    -0.274914970194     1.007825032230
         H            2.151793266235     2.388108074496     0.066520029806     1.007825032230
         H            3.817633266235     0.564439074496    -0.223873970194     1.007825032230
         H           -4.113440733765     0.892286074496    -0.695624970194     1.007825032230
         H           -3.843768733765     0.219524074496     0.937605029806     1.007825032230
         H           -3.895859733765    -0.866537925504    -0.477949970194     1.007825032230

  Basis Set: AUG-CC-PVTZ
    Blend: AUG-CC-PVTZ
  Basis Set: (AUG-CC-PVTZ AUX)
    Blend: AUG-CC-PVTZ-JKFIT
	 Reference Energy          =    -383.7465695756339414 [Eh]
	 Singles Energy            =      -0.0000000000000000 [Eh]
	 Same-Spin Energy          =      -0.4076288870295227 [Eh]
	 Opposite-Spin Energy      =      -1.3148543946388433 [Eh]
	 Correlation Energy        =      -1.7224832816683660 [Eh]
	 Total Energy              =    -385.4690528573023016 [Eh]

	 ================> DF-SCS-MP2 Energies <==================
	-----------------------------------------------------------
	 SCS Same-Spin Scale       =       0.3333333333333333 [-]
	 SCS Opposite-Spin Scale   =       1.2000000000000000 [-]
	 SCS Same-Spin Energy      =      -0.1358762956765076 [Eh]
	 SCS Opposite-Spin Energy  =      -1.5778252735666121 [Eh]
	 SCS Correlation Energy    =      -1.7137015692431197 [Eh]
	 SCS Total Energy          =    -385.4602711448770833 [Eh]
	-----------------------------------------------------------

  Dipole Moment: [D]
     X:    -0.7667      Y:    -0.7557      Z:     0.7246     Total:     1.2977

*** Psi4 exiting successfully. Buy a developer a beer!
