                               Psi4 1.3.2 release

  ==> Input File <==

--------------------------------------------------------------------------
#psi4
#
memory 32 gb

molecule  {
0 1
  O       -2.0719044     0.3944847    -0.3827758
  C        0.0828560    -0.2735390     0.1552020
  C       -1.3718780    -0.5967940     0.3561530
  C        1.0230620    -1.2945310    -0.0146130
  C        0.5146620     1.0579360     0.1858820
  C        2.3798640    -0.9928320    -0.1503380
  C        1.8683010     1.3603090     0.0393330
  C        2.8054620     0.3361700    -0.1221330
  C       -3.5418170     0.1364340    -0.1366890
  H       -1.5887080    -1.6188490     0.0040070
  H       -1.6294080    -0.5627340     1.4290290
  H        0.6929810    -2.3316320    -0.0519460
  H       -0.2198410     1.8503920     0.3003770
  H        3.1021730    -1.7945770    -0.2851790
  H        2.1947460     2.3976470     0.0562560
  H        3.8605860     0.5739780    -0.2341380
  H       -4.0704880     0.9018250    -0.7058890
  H       -3.8008160     0.2290630     0.9273410
  H       -3.8529070    -0.8569990    -0.4882140
units angstrom
no_reorient  #important for SAPT in psi4, default
symmetry c1  #important for SAPT in psi4, default
}

set PROPERTIES_ORIGIN ["COM"]
properties('MP2/aug-cc-pvtz', properties = ['dipole'])
--------------------------------------------------------------------------

    Molecular point group: c1
  Charge       = 0
  Multiplicity = 1
  Basis Set: AUG-CC-PVTZ
    Blend: AUG-CC-PVTZ
  Basis Set: (AUG-CC-PVTZ AUX)
    Blend: AUG-CC-PVTZ-JKFIT

    Orbital Energies [Eh]
    ---------------------

    Doubly Occupied:

       1A    -20.566947     2A    -11.283440     3A    -11.281366
       4A    -11.234940     5A    -11.232075     6A    -11.230916
       7A    -11.229925     8A    -11.229025     9A    -11.225482
      10A     -1.356272    11A     -1.146170    12A     -1.035366
      13A     -1.007563    14A     -0.944620    15A     -0.893442
      16A     -0.820612    17A     -0.792280    18A     -0.695575
      19A     -0.661584    20A     -0.645324    21A     -0.637716
      22A     -0.607328    23A     -0.601024    24A     -0.579256
      25A     -0.556361    26A     -0.539527    27A     -0.507636
      28A     -0.491067    29A     -0.485194    30A     -0.473734
      31A     -0.436727    32A     -0.330786    33A     -0.323256

  @DF-RHF Final Energy:  -383.73527157486660

   => Energetics <=

    Nuclear Repulsion Energy =            416.0827232599871763
    One-Electron Energy =               -1345.4709125637907619
    Two-Electron Energy =                 545.6529177289369272
    Total Energy =                       -383.7352715748666014
  Basis Set: (AUG-CC-PVTZ AUX)
    Blend: AUG-CC-PVTZ-RI
    Molecular point group: c1

    Geometry (in Angstrom), charge = 0, multiplicity = 1:

       Center              X                  Y                   Z               Mass
    ------------   -----------------  -----------------  -----------------  -----------------
         O           -2.126240370911     0.379033179192    -0.371226893284    15.994914619570
         C            0.028520029089    -0.288990520808     0.166750906716    12.000000000000
         C           -1.426213970911    -0.612245520808     0.367701906716    12.000000000000
         C            0.968726029089    -1.309982520808    -0.003064093284    12.000000000000
         C            0.460326029089     1.042484479192     0.197430906716    12.000000000000
         C            2.325528029089    -1.008283520808    -0.138789093284    12.000000000000
         C            1.813965029089     1.344857479192     0.050881906716    12.000000000000
         C            2.751126029089     0.320718479192    -0.110584093284    12.000000000000
         C           -3.596152970911     0.120982479192    -0.125140093284    12.000000000000
         H           -1.643043970911    -1.634300520808     0.015555906716     1.007825032230
         H           -1.683743970911    -0.578185520808     1.440577906716     1.007825032230
         H            0.638645029089    -2.347083520808    -0.040397093284     1.007825032230
         H           -0.274176970911     1.834940479192     0.311925906716     1.007825032230
         H            3.047837029089    -1.810028520808    -0.273630093284     1.007825032230
         H            2.140410029089     2.382195479192     0.067804906716     1.007825032230
         H            3.806250029089     0.558526479192    -0.222589093284     1.007825032230
         H           -4.124823970911     0.886373479192    -0.694340093284     1.007825032230
         H           -3.855151970911     0.213611479192     0.938889906716     1.007825032230
         H           -3.907242970911    -0.872450520808    -0.476665093284     1.007825032230

  Basis Set: AUG-CC-PVTZ
    Blend: AUG-CC-PVTZ
  Basis Set: (AUG-CC-PVTZ AUX)
    Blend: AUG-CC-PVTZ-JKFIT
	 Reference Energy          =    -383.7352715748666014 [Eh]
	 Singles Energy            =      -0.0000000000000000 [Eh]
	 Same-Spin Energy          =      -0.4087210370986842 [Eh]
	 Opposite-Spin Energy      =      -1.3184456870272754 [Eh]
	 Correlation Energy        =      -1.7271667241259596 [Eh]
	 Total Energy              =    -385.4624382989925380 [Eh]

	 ================> DF-SCS-MP2 Energies <==================
	-----------------------------------------------------------
	 SCS Same-Spin Scale       =       0.3333333333333333 [-]
	 SCS Opposite-Spin Scale   =       1.2000000000000000 [-]
	 SCS Same-Spin Energy      =      -0.1362403456995614 [Eh]
	 SCS Opposite-Spin Energy  =      -1.5821348244327305 [Eh]
	 SCS Correlation Energy    =      -1.7183751701322918 [Eh]
	 SCS Total Energy          =    -385.4536467449988777 [Eh]
	-----------------------------------------------------------

  Dipole Moment: [D]
     X:    -1.2026      Y:    -0.8380      Z:     0.7784     Total:     1.6596

*** Psi4 exiting successfully. Buy a developer a beer!
