                               Psi4 1.3.2 release

  ==> Input File <==

--------------------------------------------------------------------------
#psi4
#
memory 32 gb

molecule  {
0 1
  O       -2.1146166     0.3736440    -0.3686059
  C        0.0828560    -0.2735390     0.1552020
  C       -1.3718780    -0.5967940     0.3561530
  C        1.0230620    -1.2945310    -0.0146130
  C        0.5146620     1.0579360     0.1858820
  C        2.3798640    -0.9928320    -0.1503380
  C        1.8683010     1.3603090     0.0393330
  C        2.8054620     0.3361700    -0.1221330
  C       -3.5418170     0.1364340    -0.1366890
  H       -1.5887080    -1.6188490     0.0040070
  H       -1.6294080    -0.5627340     1.4290290
  H        0.6929810    -2.3316320    -0.0519460
  H       -0.2198410     1.8503920     0.3003770
  H        3.1021730    -1.7945770    -0.2851790
  H        2.1947460     2.3976470     0.0562560
  H        3.8605860     0.5739780    -0.2341380
  H       -4.0704880     0.9018250    -0.7058890
  H       -3.8008160     0.2290630     0.9273410
  H       -3.8529070    -0.8569990    -0.4882140
units angstrom
no_reorient  #important for SAPT in psi4, default
symmetry c1  #important for SAPT in psi4, default
}

set PROPERTIES_ORIGIN ["COM"]
properties('MP2/aug-cc-pvtz', properties = ['dipole'])
--------------------------------------------------------------------------

    Molecular point group: c1
  Charge       = 0
  Multiplicity = 1
  Basis Set: AUG-CC-PVTZ
    Blend: AUG-CC-PVTZ
  Basis Set: (AUG-CC-PVTZ AUX)
    Blend: AUG-CC-PVTZ-JKFIT

    Orbital Energies [Eh]
    ---------------------

    Doubly Occupied:

       1A    -20.564498     2A    -11.282602     3A    -11.278783
       4A    -11.236880     5A    -11.233351     6A    -11.232148
       7A    -11.231469     8A    -11.230314     9A    -11.227019
      10A     -1.365625    11A     -1.147909    12A     -1.038379
      13A     -1.008875    14A     -0.947026    15A     -0.890126
      16A     -0.821837    17A     -0.793823    18A     -0.697139
      19A     -0.665101    20A     -0.648775    21A     -0.641639
      22A     -0.609851    23A     -0.604541    24A     -0.580478
      25A     -0.555600    26A     -0.543233    27A     -0.503562
      28A     -0.491533    29A     -0.486008    30A     -0.477474
      31A     -0.434036    32A     -0.332026    33A     -0.324805

  @DF-RHF Final Energy:  -383.74269286567090

   => Energetics <=

    Nuclear Repulsion Energy =            416.2231810110718584
    One-Electron Energy =               -1345.6788156257268838
    Two-Electron Energy =                 545.7129417489841217
    Total Energy =                       -383.7426928656709606
  Basis Set: (AUG-CC-PVTZ AUX)
    Blend: AUG-CC-PVTZ-RI
    Molecular point group: c1

    Geometry (in Angstrom), charge = 0, multiplicity = 1:

       Center              X                  Y                   Z               Mass
    ------------   -----------------  -----------------  -----------------  -----------------
         O           -2.163356107572     0.360923179402    -0.358913636722    15.994914619570
         C            0.034116492428    -0.286259820598     0.164894263278    12.000000000000
         C           -1.420617507572    -0.609514820598     0.365845263278    12.000000000000
         C            0.974322492428    -1.307251820598    -0.004920736722    12.000000000000
         C            0.465922492428     1.045215179402     0.195574263278    12.000000000000
         C            2.331124492428    -1.005552820598    -0.140645736722    12.000000000000
         C            1.819561492428     1.347588179402     0.049025263278    12.000000000000
         C            2.756722492428     0.323449179402    -0.112440736722    12.000000000000
         C           -3.590556507572     0.123713179402    -0.126996736722    12.000000000000
         H           -1.637447507572    -1.631569820598     0.013699263278     1.007825032230
         H           -1.678147507572    -0.575454820598     1.438721263278     1.007825032230
         H            0.644241492428    -2.344352820598    -0.042253736722     1.007825032230
         H           -0.268580507572     1.837671179402     0.310069263278     1.007825032230
         H            3.053433492428    -1.807297820598    -0.275486736722     1.007825032230
         H            2.146006492428     2.384926179402     0.065948263278     1.007825032230
         H            3.811846492428     0.561257179402    -0.224445736722     1.007825032230
         H           -4.119227507572     0.889104179402    -0.696196736722     1.007825032230
         H           -3.849555507572     0.216342179402     0.937033263278     1.007825032230
         H           -3.901646507572    -0.869719820598    -0.478521736722     1.007825032230

  Basis Set: AUG-CC-PVTZ
    Blend: AUG-CC-PVTZ
  Basis Set: (AUG-CC-PVTZ AUX)
    Blend: AUG-CC-PVTZ-JKFIT
	 Reference Energy          =    -383.7426928656709038 [Eh]
	 Singles Energy            =      -0.0000000000000000 [Eh]
	 Same-Spin Energy          =      -0.4081051087771134 [Eh]
	 Opposite-Spin Energy      =      -1.3164986948683945 [Eh]
	 Correlation Energy        =      -1.7246038036455080 [Eh]
	 Total Energy              =    -385.4672966693163971 [Eh]

	 ================> DF-SCS-MP2 Energies <==================
	-----------------------------------------------------------
	 SCS Same-Spin Scale       =       0.3333333333333333 [-]
	 SCS Opposite-Spin Scale   =       1.2000000000000000 [-]
	 SCS Same-Spin Energy      =      -0.1360350362590378 [Eh]
	 SCS Opposite-Spin Energy  =      -1.5797984338420734 [Eh]
	 SCS Correlation Energy    =      -1.7158334701011113 [Eh]
	 SCS Total Energy          =    -385.4585263357720351 [Eh]
	-----------------------------------------------------------

  Dipole Moment: [D]
     X:    -0.9989      Y:    -0.8001      Z:     0.7488     Total:     1.4828

*** Psi4 exiting successfully. Buy a developer a beer!
