                               Psi4 1.3.2 release

  ==> Input File <==

--------------------------------------------------------------------------
#psi4
#
memory 32 gb

molecule  {
0 1
  O       -2.2181751     0.3866643    -0.2228782
  C        0.0828560    -0.2735390     0.1552020
  C       -1.3718780    -0.5967940     0.3561530
  C        1.0230620    -1.2945310    -0.0146130
  C        0.5146620     1.0579360     0.1858820
  C        2.3798640    -0.9928320    -0.1503380
  C        1.8683010     1.3603090     0.0393330
  C        2.8054620     0.3361700    -0.1221330
  C       -3.5418170     0.1364340    -0.1366890
  H       -1.5887080    -1.6188490     0.0040070
  H       -1.6294080    -0.5627340     1.4290290
  H        0.6929810    -2.3316320    -0.0519460
  H       -0.2198410     1.8503920     0.3003770
  H        3.1021730    -1.7945770    -0.2851790
  H        2.1947460     2.3976470     0.0562560
  H        3.8605860     0.5739780    -0.2341380
  H       -4.0704880     0.9018250    -0.7058890
  H       -3.8008160     0.2290630     0.9273410
  H       -3.8529070    -0.8569990    -0.4882140
units angstrom
no_reorient  #important for SAPT in psi4, default
symmetry c1  #important for SAPT in psi4, default
}

set PROPERTIES_ORIGIN ["COM"]
properties('MP2/aug-cc-pvtz', properties = ['dipole'])
--------------------------------------------------------------------------

    Molecular point group: c1
  Charge       = 0
  Multiplicity = 1
  Basis Set: AUG-CC-PVTZ
    Blend: AUG-CC-PVTZ
  Basis Set: (AUG-CC-PVTZ AUX)
    Blend: AUG-CC-PVTZ-JKFIT

    Orbital Energies [Eh]
    ---------------------

    Doubly Occupied:

       1A    -20.557228     2A    -11.287437     3A    -11.267512
       4A    -11.242352     5A    -11.236768     6A    -11.235515
       7A    -11.235035     8A    -11.233407     9A    -11.230376
      10A     -1.396824    11A     -1.152317    12A     -1.046825
      13A     -1.012183    14A     -0.956478    15A     -0.880553
      16A     -0.824656    17A     -0.797813    18A     -0.702468
      19A     -0.677728    20A     -0.663378    21A     -0.650813
      22A     -0.618310    23A     -0.609868    24A     -0.583417
      25A     -0.561136    26A     -0.552236    27A     -0.496789
      28A     -0.492136    29A     -0.489274    30A     -0.475000
      31A     -0.421357    32A     -0.335103    33A     -0.328045

  @DF-RHF Final Energy:  -383.74309231428680

   => Energetics <=

    Nuclear Repulsion Energy =            416.9368838780774809
    One-Electron Energy =               -1346.8592783404026250
    Two-Electron Energy =                 546.1793021480384596
    Total Energy =                       -383.7430923142867414
  Basis Set: (AUG-CC-PVTZ AUX)
    Blend: AUG-CC-PVTZ-RI
    Molecular point group: c1

    Geometry (in Angstrom), charge = 0, multiplicity = 1:

       Center              X                  Y                   Z               Mass
    ------------   -----------------  -----------------  -----------------  -----------------
         O           -2.253345619118     0.372237464923    -0.232280240702    15.994914619570
         C            0.047685480882    -0.287965835077     0.145799959298    12.000000000000
         C           -1.407048519118    -0.611220835077     0.346750959298    12.000000000000
         C            0.987891480882    -1.308957835077    -0.024015040702    12.000000000000
         C            0.479491480882     1.043509164923     0.176479959298    12.000000000000
         C            2.344693480882    -1.007258835077    -0.159740040702    12.000000000000
         C            1.833130480882     1.345882164923     0.029930959298    12.000000000000
         C            2.770291480882     0.321743164923    -0.131535040702    12.000000000000
         C           -3.576987519118     0.122007164923    -0.146091040702    12.000000000000
         H           -1.623878519118    -1.633275835077    -0.005395040702     1.007825032230
         H           -1.664578519118    -0.577160835077     1.419626959298     1.007825032230
         H            0.657810480882    -2.346058835077    -0.061348040702     1.007825032230
         H           -0.255011519118     1.835965164923     0.290974959298     1.007825032230
         H            3.067002480882    -1.809003835077    -0.294581040702     1.007825032230
         H            2.159575480882     2.383220164923     0.046853959298     1.007825032230
         H            3.825415480882     0.559551164923    -0.243540040702     1.007825032230
         H           -4.105658519118     0.887398164923    -0.715291040702     1.007825032230
         H           -3.835986519118     0.214636164923     0.917938959298     1.007825032230
         H           -3.888077519118    -0.871425835077    -0.497616040702     1.007825032230

  Basis Set: AUG-CC-PVTZ
    Blend: AUG-CC-PVTZ
  Basis Set: (AUG-CC-PVTZ AUX)
    Blend: AUG-CC-PVTZ-JKFIT
	 Reference Energy          =    -383.7430923142867982 [Eh]
	 Singles Energy            =      -0.0000000000000000 [Eh]
	 Same-Spin Energy          =      -0.4072271192297564 [Eh]
	 Opposite-Spin Energy      =      -1.3128204201537375 [Eh]
	 Correlation Energy        =      -1.7200475393834938 [Eh]
	 Total Energy              =    -385.4631398536702704 [Eh]

	 ================> DF-SCS-MP2 Energies <==================
	-----------------------------------------------------------
	 SCS Same-Spin Scale       =       0.3333333333333333 [-]
	 SCS Opposite-Spin Scale   =       1.2000000000000000 [-]
	 SCS Same-Spin Energy      =      -0.1357423730765854 [Eh]
	 SCS Opposite-Spin Energy  =      -1.5753845041844849 [Eh]
	 SCS Correlation Energy    =      -1.7111268772610704 [Eh]
	 SCS Total Energy          =    -385.4542191915478497 [Eh]
	-----------------------------------------------------------

  Dipole Moment: [D]
     X:    -0.4340      Y:    -0.8162      Z:     0.4528     Total:     1.0293

*** Psi4 exiting successfully. Buy a developer a beer!
