                               Psi4 1.3.2 release

  ==> Input File <==

--------------------------------------------------------------------------
#psi4
#
memory 32 gb

molecule  {
0 1
  O       -2.2371214     0.3041368    -0.3208726
  C        0.0828560    -0.2735390     0.1552020
  C       -1.3718780    -0.5967940     0.3561530
  C        1.0230620    -1.2945310    -0.0146130
  C        0.5146620     1.0579360     0.1858820
  C        2.3798640    -0.9928320    -0.1503380
  C        1.8683010     1.3603090     0.0393330
  C        2.8054620     0.3361700    -0.1221330
  C       -3.5418170     0.1364340    -0.1366890
  H       -1.5887080    -1.6188490     0.0040070
  H       -1.6294080    -0.5627340     1.4290290
  H        0.6929810    -2.3316320    -0.0519460
  H       -0.2198410     1.8503920     0.3003770
  H        3.1021730    -1.7945770    -0.2851790
  H        2.1947460     2.3976470     0.0562560
  H        3.8605860     0.5739780    -0.2341380
  H       -4.0704880     0.9018250    -0.7058890
  H       -3.8008160     0.2290630     0.9273410
  H       -3.8529070    -0.8569990    -0.4882140
units angstrom
no_reorient  #important for SAPT in psi4, default
symmetry c1  #important for SAPT in psi4, default
}

set PROPERTIES_ORIGIN ["COM"]
properties('MP2/aug-cc-pvtz', properties = ['dipole'])
--------------------------------------------------------------------------

    Molecular point group: c1
  Charge       = 0
  Multiplicity = 1
  Basis Set: AUG-CC-PVTZ
    Blend: AUG-CC-PVTZ
  Basis Set: (AUG-CC-PVTZ AUX)
    Blend: AUG-CC-PVTZ-JKFIT

    Orbital Energies [Eh]
    ---------------------

    Doubly Occupied:

       1A    -20.555604     2A    -11.288359     3A    -11.265096
       4A    -11.243403     5A    -11.237583     6A    -11.236409
       7A    -11.236028     8A    -11.234449     9A    -11.231944
      10A     -1.403212    11A     -1.153442    12A     -1.048584
      13A     -1.013141    14A     -0.958607    15A     -0.878169
      16A     -0.825854    17A     -0.798898    18A     -0.703491
      19A     -0.680159    20A     -0.664468    21A     -0.653832
      22A     -0.620094    23A     -0.614575    24A     -0.584682
      25A     -0.557788    26A     -0.555855    27A     -0.497108
      28A     -0.491715    29A     -0.491161    30A     -0.470284
      31A     -0.420760    32A     -0.336051    33A     -0.329529

  @DF-RHF Final Energy:  -383.74400994306222

   => Energetics <=

    Nuclear Repulsion Energy =            416.9561299133558805
    One-Electron Energy =               -1346.8396097122672472
    Two-Electron Energy =                 546.1394698558491427
    Total Energy =                       -383.7440099430622240
  Basis Set: (AUG-CC-PVTZ AUX)
    Blend: AUG-CC-PVTZ-RI
    Molecular point group: c1

    Geometry (in Angstrom), charge = 0, multiplicity = 1:

       Center              X                  Y                   Z               Mass
    ------------   -----------------  -----------------  -----------------  -----------------
         O           -2.269809436985     0.300523318676    -0.317434701130    15.994914619570
         C            0.050167963015    -0.277152481324     0.158639898870    12.000000000000
         C           -1.404566036985    -0.600407481324     0.359590898870    12.000000000000
         C            0.990373963015    -1.298144481324    -0.011175101130    12.000000000000
         C            0.481973963015     1.054322518676     0.189319898870    12.000000000000
         C            2.347175963015    -0.996445481324    -0.146900101130    12.000000000000
         C            1.835612963015     1.356695518676     0.042770898870    12.000000000000
         C            2.772773963015     0.332556518676    -0.118695101130    12.000000000000
         C           -3.574505036985     0.132820518676    -0.133251101130    12.000000000000
         H           -1.621396036985    -1.622462481324     0.007444898870     1.007825032230
         H           -1.662096036985    -0.566347481324     1.432466898870     1.007825032230
         H            0.660292963015    -2.335245481324    -0.048508101130     1.007825032230
         H           -0.252529036985     1.846778518676     0.303814898870     1.007825032230
         H            3.069484963015    -1.798190481324    -0.281741101130     1.007825032230
         H            2.162057963015     2.394033518676     0.059693898870     1.007825032230
         H            3.827897963015     0.570364518676    -0.230700101130     1.007825032230
         H           -4.103176036985     0.898211518676    -0.702451101130     1.007825032230
         H           -3.833504036985     0.225449518676     0.930778898870     1.007825032230
         H           -3.885595036985    -0.860612481324    -0.484776101130     1.007825032230

  Basis Set: AUG-CC-PVTZ
    Blend: AUG-CC-PVTZ
  Basis Set: (AUG-CC-PVTZ AUX)
    Blend: AUG-CC-PVTZ-JKFIT
	 Reference Energy          =    -383.7440099430622240 [Eh]
	 Singles Energy            =      -0.0000000000000000 [Eh]
	 Same-Spin Energy          =      -0.4069749505160605 [Eh]
	 Opposite-Spin Energy      =      -1.3121084079915468 [Eh]
	 Correlation Energy        =      -1.7190833585076073 [Eh]
	 Total Energy              =    -385.4630933015698133 [Eh]

	 ================> DF-SCS-MP2 Energies <==================
	-----------------------------------------------------------
	 SCS Same-Spin Scale       =       0.3333333333333333 [-]
	 SCS Opposite-Spin Scale   =       1.2000000000000000 [-]
	 SCS Same-Spin Energy      =      -0.1356583168386868 [Eh]
	 SCS Opposite-Spin Energy  =      -1.5745300895898562 [Eh]
	 SCS Correlation Energy    =      -1.7101884064285431 [Eh]
	 SCS Total Energy          =    -385.4541983494907527 [Eh]
	-----------------------------------------------------------

  Dipole Moment: [D]
     X:    -0.2716      Y:    -0.6585      Z:     0.6363     Total:     0.9552

*** Psi4 exiting successfully. Buy a developer a beer!
