                               Psi4 1.3.2 release

  ==> Input File <==

--------------------------------------------------------------------------
#psi4
#
memory 32 gb

molecule  {
0 1
  O       -2.1356366     0.3627786    -0.3611887
  C        0.0828560    -0.2735390     0.1552020
  C       -1.3718780    -0.5967940     0.3561530
  C        1.0230620    -1.2945310    -0.0146130
  C        0.5146620     1.0579360     0.1858820
  C        2.3798640    -0.9928320    -0.1503380
  C        1.8683010     1.3603090     0.0393330
  C        2.8054620     0.3361700    -0.1221330
  C       -3.5418170     0.1364340    -0.1366890
  H       -1.5887080    -1.6188490     0.0040070
  H       -1.6294080    -0.5627340     1.4290290
  H        0.6929810    -2.3316320    -0.0519460
  H       -0.2198410     1.8503920     0.3003770
  H        3.1021730    -1.7945770    -0.2851790
  H        2.1947460     2.3976470     0.0562560
  H        3.8605860     0.5739780    -0.2341380
  H       -4.0704880     0.9018250    -0.7058890
  H       -3.8008160     0.2290630     0.9273410
  H       -3.8529070    -0.8569990    -0.4882140
units angstrom
no_reorient  #important for SAPT in psi4, default
symmetry c1  #important for SAPT in psi4, default
}

set PROPERTIES_ORIGIN ["COM"]
properties('MP2/aug-cc-pvtz', properties = ['dipole'])
--------------------------------------------------------------------------

    Molecular point group: c1
  Charge       = 0
  Multiplicity = 1
  Basis Set: AUG-CC-PVTZ
    Blend: AUG-CC-PVTZ
  Basis Set: (AUG-CC-PVTZ AUX)
    Blend: AUG-CC-PVTZ-JKFIT

    Orbital Energies [Eh]
    ---------------------

    Doubly Occupied:

       1A    -20.563167     2A    -11.283332     3A    -11.276454
       4A    -11.237893     5A    -11.234009     6A    -11.232783
       7A    -11.232249     8A    -11.230972     9A    -11.227804
      10A     -1.370875    11A     -1.148795    12A     -1.039950
      13A     -1.009549    14A     -0.948532    15A     -0.888295
      16A     -0.822468    17A     -0.794629    18A     -0.698004
      19A     -0.667107    20A     -0.650896    21A     -0.643563
      22A     -0.611253    23A     -0.606349    24A     -0.581125
      25A     -0.555378    26A     -0.545506    27A     -0.501290
      28A     -0.491660    29A     -0.486452    30A     -0.478719
      31A     -0.432388    32A     -0.332662    33A     -0.325578

  @DF-RHF Final Energy:  -383.74527870842445

   => Energetics <=

    Nuclear Repulsion Energy =            416.3132197075303793
    One-Electron Energy =               -1345.8176248210802441
    Two-Electron Energy =                 545.7591264051253575
    Total Energy =                       -383.7452787084245074
  Basis Set: (AUG-CC-PVTZ AUX)
    Blend: AUG-CC-PVTZ-RI
    Molecular point group: c1

    Geometry (in Angstrom), charge = 0, multiplicity = 1:

       Center              X                  Y                   Z               Mass
    ------------   -----------------  -----------------  -----------------  -----------------
         O           -2.181621914171     0.351481443197    -0.352468292254    15.994914619570
         C            0.036870685829    -0.284836156803     0.163922407746    12.000000000000
         C           -1.417863314171    -0.608091156803     0.364873407746    12.000000000000
         C            0.977076685829    -1.305828156803    -0.005892592254    12.000000000000
         C            0.468676685829     1.046638843197     0.194602407746    12.000000000000
         C            2.333878685829    -1.004129156803    -0.141617592254    12.000000000000
         C            1.822315685829     1.349011843197     0.048053407746    12.000000000000
         C            2.759476685829     0.324872843197    -0.113412592254    12.000000000000
         C           -3.587802314171     0.125136843197    -0.127968592254    12.000000000000
         H           -1.634693314171    -1.630146156803     0.012727407746     1.007825032230
         H           -1.675393314171    -0.574031156803     1.437749407746     1.007825032230
         H            0.646995685829    -2.342929156803    -0.043225592254     1.007825032230
         H           -0.265826314171     1.839094843197     0.309097407746     1.007825032230
         H            3.056187685829    -1.805874156803    -0.276458592254     1.007825032230
         H            2.148760685829     2.386349843197     0.064976407746     1.007825032230
         H            3.814600685829     0.562680843197    -0.225417592254     1.007825032230
         H           -4.116473314171     0.890527843197    -0.697168592254     1.007825032230
         H           -3.846801314171     0.217765843197     0.936061407746     1.007825032230
         H           -3.898892314171    -0.868296156803    -0.479493592254     1.007825032230

  Basis Set: AUG-CC-PVTZ
    Blend: AUG-CC-PVTZ
  Basis Set: (AUG-CC-PVTZ AUX)
    Blend: AUG-CC-PVTZ-JKFIT
	 Reference Energy          =    -383.7452787084244505 [Eh]
	 Singles Energy            =      -0.0000000000000000 [Eh]
	 Same-Spin Energy          =      -0.4078403133359290 [Eh]
	 Opposite-Spin Energy      =      -1.3156125189042434 [Eh]
	 Correlation Energy        =      -1.7234528322401723 [Eh]
	 Total Energy              =    -385.4687315406646348 [Eh]

	 ================> DF-SCS-MP2 Energies <==================
	-----------------------------------------------------------
	 SCS Same-Spin Scale       =       0.3333333333333333 [-]
	 SCS Opposite-Spin Scale   =       1.2000000000000000 [-]
	 SCS Same-Spin Energy      =      -0.1359467711119763 [Eh]
	 SCS Opposite-Spin Energy  =      -1.5787350226850920 [Eh]
	 SCS Correlation Energy    =      -1.7146817937970684 [Eh]
	 SCS Total Energy          =    -385.4599605022215201 [Eh]
	-----------------------------------------------------------

  Dipole Moment: [D]
     X:    -0.8902      Y:    -0.7794      Z:     0.7325     Total:     1.3916

*** Psi4 exiting successfully. Buy a developer a beer!
