                               Psi4 1.3.2 release

  ==> Input File <==

--------------------------------------------------------------------------
#psi4
#
memory 32 gb

molecule  {
0 1
  O       -2.1564240     0.3516210    -0.3535530
  C        0.0855549    -0.2706235     0.1811438
  C       -1.3718780    -0.5967940     0.3561530
  C        1.0230620    -1.2945310    -0.0146130
  C        0.5146620     1.0579360     0.1858820
  C        2.3798640    -0.9928320    -0.1503380
  C        1.8683010     1.3603090     0.0393330
  C        2.8054620     0.3361700    -0.1221330
  C       -3.5418170     0.1364340    -0.1366890
  H       -1.5887080    -1.6188490     0.0040070
  H       -1.6294080    -0.5627340     1.4290290
  H        0.6929810    -2.3316320    -0.0519460
  H       -0.2198410     1.8503920     0.3003770
  H        3.1021730    -1.7945770    -0.2851790
  H        2.1947460     2.3976470     0.0562560
  H        3.8605860     0.5739780    -0.2341380
  H       -4.0704880     0.9018250    -0.7058890
  H       -3.8008160     0.2290630     0.9273410
  H       -3.8529070    -0.8569990    -0.4882140
units angstrom
no_reorient  #important for SAPT in psi4, default
symmetry c1  #important for SAPT in psi4, default
}

set PROPERTIES_ORIGIN ["COM"]
properties('MP2/aug-cc-pvtz', properties = ['dipole'])
--------------------------------------------------------------------------

    Molecular point group: c1
  Charge       = 0
  Multiplicity = 1
  Basis Set: AUG-CC-PVTZ
    Blend: AUG-CC-PVTZ
  Basis Set: (AUG-CC-PVTZ AUX)
    Blend: AUG-CC-PVTZ-JKFIT

    Orbital Energies [Eh]
    ---------------------

    Doubly Occupied:

       1A    -20.561995     2A    -11.284117     3A    -11.274269
       4A    -11.239038     5A    -11.234718     6A    -11.233507
       7A    -11.233260     8A    -11.231568     9A    -11.228243
      10A     -1.376544    11A     -1.149739    12A     -1.041600
      13A     -1.010258    14A     -0.950217    15A     -0.886638
      16A     -0.823274    17A     -0.795214    18A     -0.698922
      19A     -0.669280    20A     -0.653038    21A     -0.645661
      22A     -0.612764    23A     -0.608341    24A     -0.581789
      25A     -0.555653    26A     -0.547745    27A     -0.499495
      28A     -0.491754    29A     -0.486642    30A     -0.479333
      31A     -0.430653    32A     -0.333102    33A     -0.326395

  @DF-RHF Final Energy:  -383.74691089427876

   => Energetics <=

    Nuclear Repulsion Energy =            416.3857484929737325
    One-Electron Energy =               -1345.9157845656768586
    Two-Electron Energy =                 545.7831251784243705
    Total Energy =                       -383.7469108942786988
  Basis Set: (AUG-CC-PVTZ AUX)
    Blend: AUG-CC-PVTZ-RI
    Molecular point group: c1

    Geometry (in Angstrom), charge = 0, multiplicity = 1:

       Center              X                  Y                   Z               Mass
    ------------   -----------------  -----------------  -----------------  -----------------
         O           -2.199950904182     0.341499194548    -0.348383200365    15.994914619570
         C            0.042027995818    -0.280745305452     0.186313599635    12.000000000000
         C           -1.415404904182    -0.606915805452     0.361322799635    12.000000000000
         C            0.979535095818    -1.304652805452    -0.009443200365    12.000000000000
         C            0.471135095818     1.047814194548     0.191051799635    12.000000000000
         C            2.336337095818    -1.002953805452    -0.145168200365    12.000000000000
         C            1.824774095818     1.350187194548     0.044502799635    12.000000000000
         C            2.761935095818     0.326048194548    -0.116963200365    12.000000000000
         C           -3.585343904182     0.126312194548    -0.131519200365    12.000000000000
         H           -1.632234904182    -1.628970805452     0.009176799635     1.007825032230
         H           -1.672934904182    -0.572855805452     1.434198799635     1.007825032230
         H            0.649454095818    -2.341753805452    -0.046776200365     1.007825032230
         H           -0.263367904182     1.840270194548     0.305546799635     1.007825032230
         H            3.058646095818    -1.804698805452    -0.280009200365     1.007825032230
         H            2.151219095818     2.387525194548     0.061425799635     1.007825032230
         H            3.817059095818     0.563856194548    -0.228968200365     1.007825032230
         H           -4.114014904182     0.891703194548    -0.700719200365     1.007825032230
         H           -3.844342904182     0.218941194548     0.932510799635     1.007825032230
         H           -3.896433904182    -0.867120805452    -0.483044200365     1.007825032230

  Basis Set: AUG-CC-PVTZ
    Blend: AUG-CC-PVTZ
  Basis Set: (AUG-CC-PVTZ AUX)
    Blend: AUG-CC-PVTZ-JKFIT
	 Reference Energy          =    -383.7469108942787557 [Eh]
	 Singles Energy            =      -0.0000000000000000 [Eh]
	 Same-Spin Energy          =      -0.4076062857213973 [Eh]
	 Opposite-Spin Energy      =      -1.3147756537075757 [Eh]
	 Correlation Energy        =      -1.7223819394289730 [Eh]
	 Total Energy              =    -385.4692928337077547 [Eh]

	 ================> DF-SCS-MP2 Energies <==================
	-----------------------------------------------------------
	 SCS Same-Spin Scale       =       0.3333333333333333 [-]
	 SCS Opposite-Spin Scale   =       1.2000000000000000 [-]
	 SCS Same-Spin Energy      =      -0.1358687619071324 [Eh]
	 SCS Opposite-Spin Energy  =      -1.5777307844490907 [Eh]
	 SCS Correlation Energy    =      -1.7135995463562230 [Eh]
	 SCS Total Energy          =    -385.4605104406350051 [Eh]
	-----------------------------------------------------------

  Dipole Moment: [D]
     X:    -0.7845      Y:    -0.7586      Z:     0.7057     Total:     1.2996

*** Psi4 exiting successfully. Buy a developer a beer!
