                               Psi4 1.3.2 release

  ==> Input File <==

--------------------------------------------------------------------------
#psi4
#
memory 32 gb

molecule  {
0 1
  O       -2.1564240     0.3516210    -0.3535530
  C        0.0878099    -0.2678074     0.2071389
  C       -1.3718780    -0.5967940     0.3561530
  C        1.0230620    -1.2945310    -0.0146130
  C        0.5146620     1.0579360     0.1858820
  C        2.3798640    -0.9928320    -0.1503380
  C        1.8683010     1.3603090     0.0393330
  C        2.8054620     0.3361700    -0.1221330
  C       -3.5418170     0.1364340    -0.1366890
  H       -1.5887080    -1.6188490     0.0040070
  H       -1.6294080    -0.5627340     1.4290290
  H        0.6929810    -2.3316320    -0.0519460
  H       -0.2198410     1.8503920     0.3003770
  H        3.1021730    -1.7945770    -0.2851790
  H        2.1947460     2.3976470     0.0562560
  H        3.8605860     0.5739780    -0.2341380
  H       -4.0704880     0.9018250    -0.7058890
  H       -3.8008160     0.2290630     0.9273410
  H       -3.8529070    -0.8569990    -0.4882140
units angstrom
no_reorient  #important for SAPT in psi4, default
symmetry c1  #important for SAPT in psi4, default
}

set PROPERTIES_ORIGIN ["COM"]
properties('MP2/aug-cc-pvtz', properties = ['dipole'])
--------------------------------------------------------------------------

    Molecular point group: c1
  Charge       = 0
  Multiplicity = 1
  Basis Set: AUG-CC-PVTZ
    Blend: AUG-CC-PVTZ
  Basis Set: (AUG-CC-PVTZ AUX)
    Blend: AUG-CC-PVTZ-JKFIT

    Orbital Energies [Eh]
    ---------------------

    Doubly Occupied:

       1A    -20.562202     2A    -11.284085     3A    -11.274388
       4A    -11.239267     5A    -11.234855     6A    -11.233740
       7A    -11.233351     8A    -11.231553     9A    -11.228024
      10A     -1.376554    11A     -1.149696    12A     -1.041623
      13A     -1.010239    14A     -0.950167    15A     -0.886896
      16A     -0.823345    17A     -0.794938    18A     -0.698887
      19A     -0.669263    20A     -0.652890    21A     -0.645767
      22A     -0.612796    23A     -0.608372    24A     -0.581761
      25A     -0.556059    26A     -0.547505    27A     -0.499691
      28A     -0.492015    29A     -0.486130    30A     -0.479165
      31A     -0.430751    32A     -0.332943    33A     -0.326303

  @DF-RHF Final Energy:  -383.74623674747193

   => Energetics <=

    Nuclear Repulsion Energy =            416.3362599945999705
    One-Electron Energy =               -1345.8145430970946563
    Two-Electron Energy =                 545.7320463550228169
    Total Energy =                       -383.7462367474719258
  Basis Set: (AUG-CC-PVTZ AUX)
    Blend: AUG-CC-PVTZ-RI
    Molecular point group: c1

    Geometry (in Angstrom), charge = 0, multiplicity = 1:

       Center              X                  Y                   Z               Mass
    ------------   -----------------  -----------------  -----------------  -----------------
         O           -2.200172574522     0.341222367122    -0.350938562964    15.994914619570
         C            0.044061325478    -0.278206032878     0.209753337036    12.000000000000
         C           -1.415626574522    -0.607192632878     0.358767437036    12.000000000000
         C            0.979313425478    -1.304929632878    -0.011998562964    12.000000000000
         C            0.470913425478     1.047537367122     0.188496437036    12.000000000000
         C            2.336115425478    -1.003230632878    -0.147723562964    12.000000000000
         C            1.824552425478     1.349910367122     0.041947437036    12.000000000000
         C            2.761713425478     0.325771367122    -0.119518562964    12.000000000000
         C           -3.585565574522     0.126035367122    -0.134074562964    12.000000000000
         H           -1.632456574522    -1.629247632878     0.006621437036     1.007825032230
         H           -1.673156574522    -0.573132632878     1.431643437036     1.007825032230
         H            0.649232425478    -2.342030632878    -0.049331562964     1.007825032230
         H           -0.263589574522     1.839993367122     0.302991437036     1.007825032230
         H            3.058424425478    -1.804975632878    -0.282564562964     1.007825032230
         H            2.150997425478     2.387248367122     0.058870437036     1.007825032230
         H            3.816837425478     0.563579367122    -0.231523562964     1.007825032230
         H           -4.114236574522     0.891426367122    -0.703274562964     1.007825032230
         H           -3.844564574522     0.218664367122     0.929955437036     1.007825032230
         H           -3.896655574522    -0.867397632878    -0.485599562964     1.007825032230

  Basis Set: AUG-CC-PVTZ
    Blend: AUG-CC-PVTZ
  Basis Set: (AUG-CC-PVTZ AUX)
    Blend: AUG-CC-PVTZ-JKFIT
	 Reference Energy          =    -383.7462367474719258 [Eh]
	 Singles Energy            =      -0.0000000000000000 [Eh]
	 Same-Spin Energy          =      -0.4076318528698334 [Eh]
	 Opposite-Spin Energy      =      -1.3148223709503493 [Eh]
	 Correlation Energy        =      -1.7224542238201828 [Eh]
	 Total Energy              =    -385.4686909712921192 [Eh]

	 ================> DF-SCS-MP2 Energies <==================
	-----------------------------------------------------------
	 SCS Same-Spin Scale       =       0.3333333333333333 [-]
	 SCS Opposite-Spin Scale   =       1.2000000000000000 [-]
	 SCS Same-Spin Energy      =      -0.1358772842899444 [Eh]
	 SCS Opposite-Spin Energy  =      -1.5777868451404191 [Eh]
	 SCS Correlation Energy    =      -1.7136641294303636 [Eh]
	 SCS Total Energy          =    -385.4599008769022817 [Eh]
	-----------------------------------------------------------

  Dipole Moment: [D]
     X:    -0.7899      Y:    -0.7591      Z:     0.6959     Total:     1.2979

*** Psi4 exiting successfully. Buy a developer a beer!
