                               Psi4 1.3.2 release

  ==> Input File <==

--------------------------------------------------------------------------
#psi4
#
memory 32 gb

molecule  {
0 1
  O       -2.1564240     0.3516210    -0.3535530
  C        0.0923786    -0.2575531     0.3114939
  C       -1.3718780    -0.5967940     0.3561530
  C        1.0230620    -1.2945310    -0.0146130
  C        0.5146620     1.0579360     0.1858820
  C        2.3798640    -0.9928320    -0.1503380
  C        1.8683010     1.3603090     0.0393330
  C        2.8054620     0.3361700    -0.1221330
  C       -3.5418170     0.1364340    -0.1366890
  H       -1.5887080    -1.6188490     0.0040070
  H       -1.6294080    -0.5627340     1.4290290
  H        0.6929810    -2.3316320    -0.0519460
  H       -0.2198410     1.8503920     0.3003770
  H        3.1021730    -1.7945770    -0.2851790
  H        2.1947460     2.3976470     0.0562560
  H        3.8605860     0.5739780    -0.2341380
  H       -4.0704880     0.9018250    -0.7058890
  H       -3.8008160     0.2290630     0.9273410
  H       -3.8529070    -0.8569990    -0.4882140
units angstrom
no_reorient  #important for SAPT in psi4, default
symmetry c1  #important for SAPT in psi4, default
}

set PROPERTIES_ORIGIN ["COM"]
properties('MP2/aug-cc-pvtz', properties = ['dipole'])
--------------------------------------------------------------------------

    Molecular point group: c1
  Charge       = 0
  Multiplicity = 1
  Basis Set: AUG-CC-PVTZ
    Blend: AUG-CC-PVTZ
  Basis Set: (AUG-CC-PVTZ AUX)
    Blend: AUG-CC-PVTZ-JKFIT

    Orbital Energies [Eh]
    ---------------------

    Doubly Occupied:

       1A    -20.562850     2A    -11.283881     3A    -11.274697
       4A    -11.241400     5A    -11.237625     6A    -11.234054
       7A    -11.233350     8A    -11.232065     9A    -11.228630
      10A     -1.376464    11A     -1.148651    12A     -1.041649
      13A     -1.009788    14A     -0.949538    15A     -0.887846
      16A     -0.822794    17A     -0.793452    18A     -0.698542
      19A     -0.669211    20A     -0.653126    21A     -0.645407
      22A     -0.613255    23A     -0.606915    24A     -0.581415
      25A     -0.557757    26A     -0.545983    27A     -0.500339
      28A     -0.493689    29A     -0.483572    30A     -0.476074
      31A     -0.430821    32A     -0.332738    33A     -0.324726

  @DF-RHF Final Energy:  -383.73789819811827

   => Energetics <=

    Nuclear Repulsion Energy =            415.9513737128727939
    One-Electron Energy =               -1345.0339342402699003
    Two-Electron Energy =                 545.3446623292788900
    Total Energy =                       -383.7378981981182733
  Basis Set: (AUG-CC-PVTZ AUX)
    Blend: AUG-CC-PVTZ-RI
    Molecular point group: c1

    Geometry (in Angstrom), charge = 0, multiplicity = 1:

       Center              X                  Y                   Z               Mass
    ------------   -----------------  -----------------  -----------------  -----------------
         O           -2.200621685512     0.340214351970    -0.361196837177    15.994914619570
         C            0.048180914488    -0.268959748030     0.303850062823    12.000000000000
         C           -1.416075685512    -0.608200648030     0.348509162823    12.000000000000
         C            0.978864314488    -1.305937648030    -0.022256837177    12.000000000000
         C            0.470464314488     1.046529351970     0.178238162823    12.000000000000
         C            2.335666314488    -1.004238648030    -0.157981837177    12.000000000000
         C            1.824103314488     1.348902351970     0.031689162823    12.000000000000
         C            2.761264314488     0.324763351970    -0.129776837177    12.000000000000
         C           -3.586014685512     0.125027351970    -0.144332837177    12.000000000000
         H           -1.632905685512    -1.630255648030    -0.003636837177     1.007825032230
         H           -1.673605685512    -0.574140648030     1.421385162823     1.007825032230
         H            0.648783314488    -2.343038648030    -0.059589837177     1.007825032230
         H           -0.264038685512     1.838985351970     0.292733162823     1.007825032230
         H            3.057975314488    -1.805983648030    -0.292822837177     1.007825032230
         H            2.150548314488     2.386240351970     0.048612162823     1.007825032230
         H            3.816388314488     0.562571351970    -0.241781837177     1.007825032230
         H           -4.114685685512     0.890418351970    -0.713532837177     1.007825032230
         H           -3.845013685512     0.217656351970     0.919697162823     1.007825032230
         H           -3.897104685512    -0.868405648030    -0.495857837177     1.007825032230

  Basis Set: AUG-CC-PVTZ
    Blend: AUG-CC-PVTZ
  Basis Set: (AUG-CC-PVTZ AUX)
    Blend: AUG-CC-PVTZ-JKFIT
	 Reference Energy          =    -383.7378981981182733 [Eh]
	 Singles Energy            =      -0.0000000000000000 [Eh]
	 Same-Spin Energy          =      -0.4079793803131968 [Eh]
	 Opposite-Spin Energy      =      -1.3157090371558913 [Eh]
	 Correlation Energy        =      -1.7236884174690881 [Eh]
	 Total Energy              =    -385.4615866155873505 [Eh]

	 ================> DF-SCS-MP2 Energies <==================
	-----------------------------------------------------------
	 SCS Same-Spin Scale       =       0.3333333333333333 [-]
	 SCS Opposite-Spin Scale   =       1.2000000000000000 [-]
	 SCS Same-Spin Energy      =      -0.1359931267710656 [Eh]
	 SCS Opposite-Spin Energy  =      -1.5788508445870695 [Eh]
	 SCS Correlation Energy    =      -1.7148439713581352 [Eh]
	 SCS Total Energy          =    -385.4527421694763802 [Eh]
	-----------------------------------------------------------

  Dipole Moment: [D]
     X:    -0.7872      Y:    -0.7547      Z:     0.6539     Total:     1.2716

*** Psi4 exiting successfully. Buy a developer a beer!
