                               Psi4 1.3.2 release

  ==> Input File <==

--------------------------------------------------------------------------
#psi4
#
memory 32 gb

molecule  {
0 1
  O       -2.1564240     0.3516210    -0.3535530
  C        0.0676393    -0.2861763     0.0521257
  C       -1.3718780    -0.5967940     0.3561530
  C        1.0230620    -1.2945310    -0.0146130
  C        0.5146620     1.0579360     0.1858820
  C        2.3798640    -0.9928320    -0.1503380
  C        1.8683010     1.3603090     0.0393330
  C        2.8054620     0.3361700    -0.1221330
  C       -3.5418170     0.1364340    -0.1366890
  H       -1.5887080    -1.6188490     0.0040070
  H       -1.6294080    -0.5627340     1.4290290
  H        0.6929810    -2.3316320    -0.0519460
  H       -0.2198410     1.8503920     0.3003770
  H        3.1021730    -1.7945770    -0.2851790
  H        2.1947460     2.3976470     0.0562560
  H        3.8605860     0.5739780    -0.2341380
  H       -4.0704880     0.9018250    -0.7058890
  H       -3.8008160     0.2290630     0.9273410
  H       -3.8529070    -0.8569990    -0.4882140
units angstrom
no_reorient  #important for SAPT in psi4, default
symmetry c1  #important for SAPT in psi4, default
}

set PROPERTIES_ORIGIN ["COM"]
properties('MP2/aug-cc-pvtz', properties = ['dipole'])
--------------------------------------------------------------------------

    Molecular point group: c1
  Charge       = 0
  Multiplicity = 1
  Basis Set: AUG-CC-PVTZ
    Blend: AUG-CC-PVTZ
  Basis Set: (AUG-CC-PVTZ AUX)
    Blend: AUG-CC-PVTZ-JKFIT

    Orbital Energies [Eh]
    ---------------------

    Doubly Occupied:

       1A    -20.560694     2A    -11.284210     3A    -11.273427
       4A    -11.239740     5A    -11.234789     6A    -11.233604
       7A    -11.232952     8A    -11.232442     9A    -11.231224
      10A     -1.376302    11A     -1.148633    12A     -1.041364
      13A     -1.009759    14A     -0.949808    15A     -0.885237
      16A     -0.821570    17A     -0.796072    18A     -0.698762
      19A     -0.669369    20A     -0.654699    21A     -0.644258
      22A     -0.612938    23A     -0.605989    24A     -0.581538
      25A     -0.554301    26A     -0.547499    27A     -0.498265
      28A     -0.493122    29A     -0.486593    30A     -0.476594
      31A     -0.429702    32A     -0.334396    33A     -0.325136

  @DF-RHF Final Energy:  -383.74181586214388

   => Energetics <=

    Nuclear Repulsion Energy =            416.3511861499488873
    One-Electron Energy =               -1345.8560234047579343
    Two-Electron Energy =                 545.7630213926651095
    Total Energy =                       -383.7418158621438806
  Basis Set: (AUG-CC-PVTZ AUX)
    Blend: AUG-CC-PVTZ-RI
    Molecular point group: c1

    Geometry (in Angstrom), charge = 0, multiplicity = 1:

       Center              X                  Y                   Z               Mass
    ------------   -----------------  -----------------  -----------------  -----------------
         O           -2.198189770192     0.343028061274    -0.335700501422    15.994914619570
         C            0.025873529808    -0.294769238726     0.069978198578    12.000000000000
         C           -1.413643770192    -0.605386938726     0.374005498578    12.000000000000
         C            0.981296229808    -1.303123938726     0.003239498578    12.000000000000
         C            0.472896229808     1.049343061274     0.203734498578    12.000000000000
         C            2.338098229808    -1.001424938726    -0.132485501422    12.000000000000
         C            1.826535229808     1.351716061274     0.057185498578    12.000000000000
         C            2.763696229808     0.327577061274    -0.104280501422    12.000000000000
         C           -3.583582770192     0.127841061274    -0.118836501422    12.000000000000
         H           -1.630473770192    -1.627441938726     0.021859498578     1.007825032230
         H           -1.671173770192    -0.571326938726     1.446881498578     1.007825032230
         H            0.651215229808    -2.340224938726    -0.034093501422     1.007825032230
         H           -0.261606770192     1.841799061274     0.318229498578     1.007825032230
         H            3.060407229808    -1.803169938726    -0.267326501422     1.007825032230
         H            2.152980229808     2.389054061274     0.074108498578     1.007825032230
         H            3.818820229808     0.565385061274    -0.216285501422     1.007825032230
         H           -4.112253770192     0.893232061274    -0.688036501422     1.007825032230
         H           -3.842581770192     0.220470061274     0.945193498578     1.007825032230
         H           -3.894672770192    -0.865591938726    -0.470361501422     1.007825032230

  Basis Set: AUG-CC-PVTZ
    Blend: AUG-CC-PVTZ
  Basis Set: (AUG-CC-PVTZ AUX)
    Blend: AUG-CC-PVTZ-JKFIT
	 Reference Energy          =    -383.7418158621438806 [Eh]
	 Singles Energy            =      -0.0000000000000000 [Eh]
	 Same-Spin Energy          =      -0.4078469221705897 [Eh]
	 Opposite-Spin Energy      =      -1.3155015482437062 [Eh]
	 Correlation Energy        =      -1.7233484704142961 [Eh]
	 Total Energy              =    -385.4651643325581745 [Eh]

	 ================> DF-SCS-MP2 Energies <==================
	-----------------------------------------------------------
	 SCS Same-Spin Scale       =       0.3333333333333333 [-]
	 SCS Opposite-Spin Scale   =       1.2000000000000000 [-]
	 SCS Same-Spin Energy      =      -0.1359489740568632 [Eh]
	 SCS Opposite-Spin Energy  =      -1.5786018578924474 [Eh]
	 SCS Correlation Energy    =      -1.7145508319493108 [Eh]
	 SCS Total Energy          =    -385.4563666940932194 [Eh]
	-----------------------------------------------------------

  Dipole Moment: [D]
     X:    -0.7221      Y:    -0.7474      Z:     0.7517     Total:     1.2826

*** Psi4 exiting successfully. Buy a developer a beer!
