                               Psi4 1.3.2 release

  ==> Input File <==

--------------------------------------------------------------------------
#psi4
#
memory 32 gb

molecule  {
0 1
  O       -2.1985903     0.3761638    -0.2672136
  C        0.0828560    -0.2735390     0.1552020
  C       -1.3718780    -0.5967940     0.3561530
  C        1.0230620    -1.2945310    -0.0146130
  C        0.5146620     1.0579360     0.1858820
  C        2.3798640    -0.9928320    -0.1503380
  C        1.8683010     1.3603090     0.0393330
  C        2.8054620     0.3361700    -0.1221330
  C       -3.5418170     0.1364340    -0.1366890
  H       -1.5887080    -1.6188490     0.0040070
  H       -1.6294080    -0.5627340     1.4290290
  H        0.6929810    -2.3316320    -0.0519460
  H       -0.2198410     1.8503920     0.3003770
  H        3.1021730    -1.7945770    -0.2851790
  H        2.1947460     2.3976470     0.0562560
  H        3.8605860     0.5739780    -0.2341380
  H       -4.0704880     0.9018250    -0.7058890
  H       -3.8008160     0.2290630     0.9273410
  H       -3.8529070    -0.8569990    -0.4882140
units angstrom
no_reorient  #important for SAPT in psi4, default
symmetry c1  #important for SAPT in psi4, default
}

set PROPERTIES_ORIGIN ["COM"]
properties('MP2/aug-cc-pvtz', properties = ['dipole'])
--------------------------------------------------------------------------

    Molecular point group: c1
  Charge       = 0
  Multiplicity = 1
  Basis Set: AUG-CC-PVTZ
    Blend: AUG-CC-PVTZ
  Basis Set: (AUG-CC-PVTZ AUX)
    Blend: AUG-CC-PVTZ-JKFIT

    Orbital Energies [Eh]
    ---------------------

    Doubly Occupied:

       1A    -20.558745     2A    -11.286336     3A    -11.269515
       4A    -11.241235     5A    -11.236090     6A    -11.234781
       7A    -11.234472     8A    -11.232850     9A    -11.229807
      10A     -1.390142    11A     -1.151481    12A     -1.045141
      13A     -1.011558    14A     -0.954359    15A     -0.882400
      16A     -0.824168    17A     -0.797074    18A     -0.701241
      19A     -0.674909    20A     -0.660033    21A     -0.649107
      22A     -0.616576    23A     -0.609344    24A     -0.582911
      25A     -0.558660    26A     -0.551688    27A     -0.497020
      28A     -0.491645    29A     -0.488596    30A     -0.477041
      31A     -0.425048    32A     -0.334528    33A     -0.327555

  @DF-RHF Final Energy:  -383.74621648442275

   => Energetics <=

    Nuclear Repulsion Energy =            416.7748781102635576
    One-Electron Energy =               -1346.5900759169576304
    Two-Electron Energy =                 546.0689813222712701
    Total Energy =                       -383.7462164844228028
  Basis Set: (AUG-CC-PVTZ AUX)
    Blend: AUG-CC-PVTZ-RI
    Molecular point group: c1

    Geometry (in Angstrom), charge = 0, multiplicity = 1:

       Center              X                  Y                   Z               Mass
    ------------   -----------------  -----------------  -----------------  -----------------
         O           -2.236326962168     0.363112816864    -0.270806493885    15.994914619570
         C            0.045119337832    -0.286589983136     0.151609106115    12.000000000000
         C           -1.409614662168    -0.609844983136     0.352560106115    12.000000000000
         C            0.985325337832    -1.307581983136    -0.018205893885    12.000000000000
         C            0.476925337832     1.044885016864     0.182289106115    12.000000000000
         C            2.342127337832    -1.005882983136    -0.153930893885    12.000000000000
         C            1.830564337832     1.347258016864     0.035740106115    12.000000000000
         C            2.767725337832     0.323119016864    -0.125725893885    12.000000000000
         C           -3.579553662168     0.123383016864    -0.140281893885    12.000000000000
         H           -1.626444662168    -1.631899983136     0.000414106115     1.007825032230
         H           -1.667144662168    -0.575784983136     1.425436106115     1.007825032230
         H            0.655244337832    -2.344682983136    -0.055538893885     1.007825032230
         H           -0.257577662168     1.837341016864     0.296784106115     1.007825032230
         H            3.064436337832    -1.807627983136    -0.288771893885     1.007825032230
         H            2.157009337832     2.384596016864     0.052663106115     1.007825032230
         H            3.822849337832     0.560927016864    -0.237730893885     1.007825032230
         H           -4.108224662168     0.888774016864    -0.709481893885     1.007825032230
         H           -3.838552662168     0.216012016864     0.923748106115     1.007825032230
         H           -3.890643662168    -0.870049983136    -0.491806893885     1.007825032230

  Basis Set: AUG-CC-PVTZ
    Blend: AUG-CC-PVTZ
  Basis Set: (AUG-CC-PVTZ AUX)
    Blend: AUG-CC-PVTZ-JKFIT
	 Reference Energy          =    -383.7462164844227459 [Eh]
	 Singles Energy            =      -0.0000000000000000 [Eh]
	 Same-Spin Energy          =      -0.4072920086000232 [Eh]
	 Opposite-Spin Energy      =      -1.3133218577858115 [Eh]
	 Correlation Energy        =      -1.7206138663858348 [Eh]
	 Total Energy              =    -385.4668303508086069 [Eh]

	 ================> DF-SCS-MP2 Energies <==================
	-----------------------------------------------------------
	 SCS Same-Spin Scale       =       0.3333333333333333 [-]
	 SCS Opposite-Spin Scale   =       1.2000000000000000 [-]
	 SCS Same-Spin Energy      =      -0.1357640028666744 [Eh]
	 SCS Opposite-Spin Energy  =      -1.5759862293429736 [Eh]
	 SCS Correlation Energy    =      -1.7117502322096481 [Eh]
	 SCS Total Energy          =    -385.4579667166323702 [Eh]
	-----------------------------------------------------------

  Dipole Moment: [D]
     X:    -0.5459      Y:    -0.7980      Z:     0.5423     Total:     1.1086

*** Psi4 exiting successfully. Buy a developer a beer!
