                               Psi4 1.3.2 release

  ==> Input File <==

--------------------------------------------------------------------------
#psi4
#
memory 32 gb

molecule  {
0 1
  O       -2.1972755     0.3284425    -0.3376354
  C        0.0828560    -0.2735390     0.1552020
  C       -1.3718780    -0.5967940     0.3561530
  C        1.0230620    -1.2945310    -0.0146130
  C        0.5146620     1.0579360     0.1858820
  C        2.3798640    -0.9928320    -0.1503380
  C        1.8683010     1.3603090     0.0393330
  C        2.8054620     0.3361700    -0.1221330
  C       -3.5418170     0.1364340    -0.1366890
  H       -1.5887080    -1.6188490     0.0040070
  H       -1.6294080    -0.5627340     1.4290290
  H        0.6929810    -2.3316320    -0.0519460
  H       -0.2198410     1.8503920     0.3003770
  H        3.1021730    -1.7945770    -0.2851790
  H        2.1947460     2.3976470     0.0562560
  H        3.8605860     0.5739780    -0.2341380
  H       -4.0704880     0.9018250    -0.7058890
  H       -3.8008160     0.2290630     0.9273410
  H       -3.8529070    -0.8569990    -0.4882140
units angstrom
no_reorient  #important for SAPT in psi4, default
symmetry c1  #important for SAPT in psi4, default
}

set PROPERTIES_ORIGIN ["COM"]
properties('MP2/aug-cc-pvtz', properties = ['dipole'])
--------------------------------------------------------------------------

    Molecular point group: c1
  Charge       = 0
  Multiplicity = 1
  Basis Set: AUG-CC-PVTZ
    Blend: AUG-CC-PVTZ
  Basis Set: (AUG-CC-PVTZ AUX)
    Blend: AUG-CC-PVTZ-JKFIT

    Orbital Energies [Eh]
    ---------------------

    Doubly Occupied:

       1A    -20.558789     2A    -11.286046     3A    -11.269549
       4A    -11.241107     5A    -11.236085     6A    -11.234829
       7A    -11.234574     8A    -11.233015     9A    -11.230239
      10A     -1.389035    11A     -1.151533    12A     -1.044963
      13A     -1.011654    14A     -0.954116    15A     -0.882332
      16A     -0.824449    17A     -0.797157    18A     -0.701025
      19A     -0.674279    20A     -0.658591    21A     -0.649457
      22A     -0.616215    23A     -0.611526    24A     -0.583194
      25A     -0.555474    26A     -0.552756    27A     -0.497109
      28A     -0.491464    29A     -0.488777    30A     -0.476919
      31A     -0.426112    32A     -0.334649    33A     -0.327922

  @DF-RHF Final Energy:  -383.74767631105613

   => Energetics <=

    Nuclear Repulsion Energy =            416.6611535981804764
    One-Electron Energy =               -1346.3677792632147430
    Two-Electron Energy =                 545.9589493539781415
    Total Energy =                       -383.7476763110561251
  Basis Set: (AUG-CC-PVTZ AUX)
    Blend: AUG-CC-PVTZ-RI
    Molecular point group: c1

    Geometry (in Angstrom), charge = 0, multiplicity = 1:

       Center              X                  Y                   Z               Mass
    ------------   -----------------  -----------------  -----------------  -----------------
         O           -2.235184436835     0.321644308945    -0.332001117061    15.994914619570
         C            0.044947063165    -0.280337191055     0.160836282939    12.000000000000
         C           -1.409786936835    -0.603592191055     0.361787282939    12.000000000000
         C            0.985153063165    -1.301329191055    -0.008978717061    12.000000000000
         C            0.476753063165     1.051137808945     0.191516282939    12.000000000000
         C            2.341955063165    -0.999630191055    -0.144703717061    12.000000000000
         C            1.830392063165     1.353510808945     0.044967282939    12.000000000000
         C            2.767553063165     0.329371808945    -0.116498717061    12.000000000000
         C           -3.579725936835     0.129635808945    -0.131054717061    12.000000000000
         H           -1.626616936835    -1.625647191055     0.009641282939     1.007825032230
         H           -1.667316936835    -0.569532191055     1.434663282939     1.007825032230
         H            0.655072063165    -2.338430191055    -0.046311717061     1.007825032230
         H           -0.257749936835     1.843593808945     0.306011282939     1.007825032230
         H            3.064264063165    -1.801375191055    -0.279544717061     1.007825032230
         H            2.156837063165     2.390848808945     0.061890282939     1.007825032230
         H            3.822677063165     0.567179808945    -0.228503717061     1.007825032230
         H           -4.108396936835     0.895026808945    -0.700254717061     1.007825032230
         H           -3.838724936835     0.222264808945     0.932975282939     1.007825032230
         H           -3.890815936835    -0.863797191055    -0.482579717061     1.007825032230

  Basis Set: AUG-CC-PVTZ
    Blend: AUG-CC-PVTZ
  Basis Set: (AUG-CC-PVTZ AUX)
    Blend: AUG-CC-PVTZ-JKFIT
	 Reference Energy          =    -383.7476763110561251 [Eh]
	 Singles Energy            =      -0.0000000000000000 [Eh]
	 Same-Spin Energy          =      -0.4072272063876392 [Eh]
	 Opposite-Spin Energy      =      -1.3133200831882652 [Eh]
	 Correlation Energy        =      -1.7205472895759044 [Eh]
	 Total Energy              =    -385.4682236006320295 [Eh]

	 ================> DF-SCS-MP2 Energies <==================
	-----------------------------------------------------------
	 SCS Same-Spin Scale       =       0.3333333333333333 [-]
	 SCS Opposite-Spin Scale   =       1.2000000000000000 [-]
	 SCS Same-Spin Energy      =      -0.1357424021292131 [Eh]
	 SCS Opposite-Spin Energy  =      -1.5759840998259182 [Eh]
	 SCS Correlation Energy    =      -1.7117265019551313 [Eh]
	 SCS Total Energy          =    -385.4594028130112520 [Eh]
	-----------------------------------------------------------

  Dipole Moment: [D]
     X:    -0.5350      Y:    -0.7101      Z:     0.6777     Total:     1.1179

*** Psi4 exiting successfully. Buy a developer a beer!
