                               Psi4 1.3.2 release

  ==> Input File <==

--------------------------------------------------------------------------
#psi4
#
memory 32 gb

molecule  {
0 1
  O       -2.1564240     0.3516210    -0.3535530
  C        0.0828560    -0.2735390     0.1552020
  C       -1.3718780    -0.5967940     0.3561530
  C        1.0230620    -1.2945310    -0.0146130
  C        0.5146620     1.0579360     0.1858820
  C        2.3798640    -0.9928320    -0.1503380
  C        1.8683010     1.3603090     0.0393330
  C        2.8054620     0.3361700    -0.1221330
  C       -3.5418170     0.1364340    -0.1366890
  H       -1.5887080    -1.6188490     0.0040070
  H       -1.6294080    -0.5627340     1.4290290
  H        0.6929810    -2.3316320    -0.0519460
  H       -0.2198410     1.8503920     0.3003770
  H        3.1021730    -1.7945770    -0.2851790
  H        2.1947460     2.3976470     0.0562560
  H        3.8605860     0.5739780    -0.2341380
  H       -4.0704880     0.9018250    -0.7058890
  H       -3.8008160     0.2290630     0.9273410
  H       -3.8529070    -0.8569990    -0.4882140
units angstrom
no_reorient  #important for SAPT in psi4, default
symmetry c1  #important for SAPT in psi4, default
}

set PROPERTIES_ORIGIN ["COM"]
properties('MP2/aug-cc-pvtz', properties = ['dipole'])
--------------------------------------------------------------------------

    Molecular point group: c1
  Charge       = 0
  Multiplicity = 1
  Basis Set: AUG-CC-PVTZ
    Blend: AUG-CC-PVTZ
  Basis Set: (AUG-CC-PVTZ AUX)
    Blend: AUG-CC-PVTZ-JKFIT

    Orbital Energies [Eh]
    ---------------------

    Doubly Occupied:

       1A    -20.561769     2A    -11.284145     3A    -11.274134
       4A    -11.238934     5A    -11.234682     6A    -11.233434
       7A    -11.233033     8A    -11.231641     9A    -11.228602
      10A     -1.376521    11A     -1.149694    12A     -1.041569
      13A     -1.010236    14A     -0.950224    15A     -0.886373
      16A     -0.823113    17A     -0.795455    18A     -0.698934
      19A     -0.669296    20A     -0.653262    21A     -0.645482
      22A     -0.612773    23A     -0.608140    24A     -0.581793
      25A     -0.555274    26A     -0.547905    27A     -0.499276
      28A     -0.491670    29A     -0.487008    30A     -0.479244
      31A     -0.430523    32A     -0.333311    33A     -0.326353

  @DF-RHF Final Energy:  -383.74702198777220

   => Energetics <=

    Nuclear Repulsion Energy =            416.4163245532471933
    One-Electron Energy =               -1345.9790858819385448
    Two-Electron Energy =                 545.8157393409190945
    Total Energy =                       -383.7470219877722002
  Basis Set: (AUG-CC-PVTZ AUX)
    Blend: AUG-CC-PVTZ-RI
    Molecular point group: c1

    Geometry (in Angstrom), charge = 0, multiplicity = 1:

       Center              X                  Y                   Z               Mass
    ------------   -----------------  -----------------  -----------------  -----------------
         O           -2.199685597715     0.341785793163    -0.345833077247    15.994914619570
         C            0.039594402285    -0.283374206837     0.162921922753    12.000000000000
         C           -1.415139597715    -0.606629206837     0.363872922753    12.000000000000
         C            0.979800402285    -1.304366206837    -0.006893077247    12.000000000000
         C            0.471400402285     1.048100793163     0.193601922753    12.000000000000
         C            2.336602402285    -1.002667206837    -0.142618077247    12.000000000000
         C            1.825039402285     1.350473793163     0.047052922753    12.000000000000
         C            2.762200402285     0.326334793163    -0.114413077247    12.000000000000
         C           -3.585078597715     0.126598793163    -0.128969077247    12.000000000000
         H           -1.631969597715    -1.628684206837     0.011726922753     1.007825032230
         H           -1.672669597715    -0.572569206837     1.436748922753     1.007825032230
         H            0.649719402285    -2.341467206837    -0.044226077247     1.007825032230
         H           -0.263102597715     1.840556793163     0.308096922753     1.007825032230
         H            3.058911402285    -1.804412206837    -0.277459077247     1.007825032230
         H            2.151484402285     2.387811793163     0.063975922753     1.007825032230
         H            3.817324402285     0.564142793163    -0.226418077247     1.007825032230
         H           -4.113749597715     0.891989793163    -0.698169077247     1.007825032230
         H           -3.844077597715     0.219227793163     0.935060922753     1.007825032230
         H           -3.896168597715    -0.866834206837    -0.480494077247     1.007825032230

  Basis Set: AUG-CC-PVTZ
    Blend: AUG-CC-PVTZ
  Basis Set: (AUG-CC-PVTZ AUX)
    Blend: AUG-CC-PVTZ-JKFIT
	 Reference Energy          =    -383.7470219877722002 [Eh]
	 Singles Energy            =      -0.0000000000000000 [Eh]
	 Same-Spin Energy          =      -0.4076052940618448 [Eh]
	 Opposite-Spin Energy      =      -1.3147864857093294 [Eh]
	 Correlation Energy        =      -1.7223917797711743 [Eh]
	 Total Energy              =    -385.4694137675433581 [Eh]

	 ================> DF-SCS-MP2 Energies <==================
	-----------------------------------------------------------
	 SCS Same-Spin Scale       =       0.3333333333333333 [-]
	 SCS Opposite-Spin Scale   =       1.2000000000000000 [-]
	 SCS Same-Spin Energy      =      -0.1358684313539482 [Eh]
	 SCS Opposite-Spin Energy  =      -1.5777437828511953 [Eh]
	 SCS Correlation Energy    =      -1.7136122142051435 [Eh]
	 SCS Total Energy          =    -385.4606342019773706 [Eh]
	-----------------------------------------------------------

  Dipole Moment: [D]
     X:    -0.7768      Y:    -0.7574      Z:     0.7152     Total:     1.2995

*** Psi4 exiting successfully. Buy a developer a beer!
