                               Psi4 1.3.2 release

  ==> Input File <==

--------------------------------------------------------------------------
#psi4
#
memory 32 gb

molecule  {
0 1
  O       -2.0860772     0.3061867    -0.4764522
  C        0.0828560    -0.2735390     0.1552020
  C       -1.3718780    -0.5967940     0.3561530
  C        1.0230620    -1.2945310    -0.0146130
  C        0.5146620     1.0579360     0.1858820
  C        2.3798640    -0.9928320    -0.1503380
  C        1.8683010     1.3603090     0.0393330
  C        2.8054620     0.3361700    -0.1221330
  C       -3.5418170     0.1364340    -0.1366890
  H       -1.5887080    -1.6188490     0.0040070
  H       -1.6294080    -0.5627340     1.4290290
  H        0.6929810    -2.3316320    -0.0519460
  H       -0.2198410     1.8503920     0.3003770
  H        3.1021730    -1.7945770    -0.2851790
  H        2.1947460     2.3976470     0.0562560
  H        3.8605860     0.5739780    -0.2341380
  H       -4.0704880     0.9018250    -0.7058890
  H       -3.8008160     0.2290630     0.9273410
  H       -3.8529070    -0.8569990    -0.4882140
units angstrom
no_reorient  #important for SAPT in psi4, default
symmetry c1  #important for SAPT in psi4, default
}

set PROPERTIES_ORIGIN ["COM"]
properties('MP2/aug-cc-pvtz', properties = ['dipole'])
--------------------------------------------------------------------------

    Molecular point group: c1
  Charge       = 0
  Multiplicity = 1
  Basis Set: AUG-CC-PVTZ
    Blend: AUG-CC-PVTZ
  Basis Set: (AUG-CC-PVTZ AUX)
    Blend: AUG-CC-PVTZ-JKFIT

    Orbital Energies [Eh]
    ---------------------

    Doubly Occupied:

       1A    -20.565948     2A    -11.282313     3A    -11.281188
       4A    -11.235523     5A    -11.232538     6A    -11.231652
       7A    -11.230375     8A    -11.229664     9A    -11.226737
      10A     -1.357214    11A     -1.146855    12A     -1.036024
      13A     -1.008174    14A     -0.945107    15A     -0.892278
      16A     -0.821411    17A     -0.792915    18A     -0.695896
      19A     -0.661707    20A     -0.644630    21A     -0.639063
      22A     -0.606806    23A     -0.605895    24A     -0.579965
      25A     -0.554941    26A     -0.537308    27A     -0.508210
      28A     -0.491718    29A     -0.485978    30A     -0.473790
      31A     -0.434669    32A     -0.331408    33A     -0.324098

  @DF-RHF Final Energy:  -383.73462767874207

   => Energetics <=

    Nuclear Repulsion Energy =            415.8530546610788861
    One-Electron Energy =               -1344.9913659897367779
    Two-Electron Energy =                 545.4036836499158198
    Total Energy =                       -383.7346276787420720
  Basis Set: (AUG-CC-PVTZ AUX)
    Blend: AUG-CC-PVTZ-RI
    Molecular point group: c1

    Geometry (in Angstrom), charge = 0, multiplicity = 1:

       Center              X                  Y                   Z               Mass
    ------------   -----------------  -----------------  -----------------  -----------------
         O           -2.138556147493     0.302304625857    -0.452629129502    15.994914619570
         C            0.030377052507    -0.277421074143     0.179025070498    12.000000000000
         C           -1.424356947493    -0.600676074143     0.379976070498    12.000000000000
         C            0.970583052507    -1.298413074143     0.009210070498    12.000000000000
         C            0.462183052507     1.054053925857     0.209705070498    12.000000000000
         C            2.327385052507    -0.996714074143    -0.126514929502    12.000000000000
         C            1.815822052507     1.356426925857     0.063156070498    12.000000000000
         C            2.752983052507     0.332287925857    -0.098309929502    12.000000000000
         C           -3.594295947493     0.132551925857    -0.112865929502    12.000000000000
         H           -1.641186947493    -1.622731074143     0.027830070498     1.007825032230
         H           -1.681886947493    -0.566616074143     1.452852070498     1.007825032230
         H            0.640502052507    -2.335514074143    -0.028122929502     1.007825032230
         H           -0.272319947493     1.846509925857     0.324200070498     1.007825032230
         H            3.049694052507    -1.798459074143    -0.261355929502     1.007825032230
         H            2.142267052507     2.393764925857     0.080079070498     1.007825032230
         H            3.808107052507     0.570095925857    -0.210314929502     1.007825032230
         H           -4.122966947493     0.897942925857    -0.682065929502     1.007825032230
         H           -3.853294947493     0.225180925857     0.951164070498     1.007825032230
         H           -3.905385947493    -0.860881074143    -0.464390929502     1.007825032230

  Basis Set: AUG-CC-PVTZ
    Blend: AUG-CC-PVTZ
  Basis Set: (AUG-CC-PVTZ AUX)
    Blend: AUG-CC-PVTZ-JKFIT
	 Reference Energy          =    -383.7346276787420720 [Eh]
	 Singles Energy            =      -0.0000000000000000 [Eh]
	 Same-Spin Energy          =      -0.4085508724940105 [Eh]
	 Opposite-Spin Energy      =      -1.3181429197347190 [Eh]
	 Correlation Energy        =      -1.7266937922287293 [Eh]
	 Total Energy              =    -385.4613214709708018 [Eh]

	 ================> DF-SCS-MP2 Energies <==================
	-----------------------------------------------------------
	 SCS Same-Spin Scale       =       0.3333333333333333 [-]
	 SCS Opposite-Spin Scale   =       1.2000000000000000 [-]
	 SCS Same-Spin Energy      =      -0.1361836241646701 [Eh]
	 SCS Opposite-Spin Energy  =      -1.5817715036816626 [Eh]
	 SCS Correlation Energy    =      -1.7179551278463328 [Eh]
	 SCS Total Energy          =    -385.4525828065883957 [Eh]
	-----------------------------------------------------------

  Dipole Moment: [D]
     X:    -1.1197      Y:    -0.6856      Z:     0.9491     Total:     1.6200

*** Psi4 exiting successfully. Buy a developer a beer!
