                               Psi4 1.3.2 release

  ==> Input File <==

--------------------------------------------------------------------------
#psi4
#
memory 32 gb

molecule  {
0 1
  O       -2.2759131     0.2787334    -0.3032849
  C        0.0828560    -0.2735390     0.1552020
  C       -1.3718780    -0.5967940     0.3561530
  C        1.0230620    -1.2945310    -0.0146130
  C        0.5146620     1.0579360     0.1858820
  C        2.3798640    -0.9928320    -0.1503380
  C        1.8683010     1.3603090     0.0393330
  C        2.8054620     0.3361700    -0.1221330
  C       -3.5418170     0.1364340    -0.1366890
  H       -1.5887080    -1.6188490     0.0040070
  H       -1.6294080    -0.5627340     1.4290290
  H        0.6929810    -2.3316320    -0.0519460
  H       -0.2198410     1.8503920     0.3003770
  H        3.1021730    -1.7945770    -0.2851790
  H        2.1947460     2.3976470     0.0562560
  H        3.8605860     0.5739780    -0.2341380
  H       -4.0704880     0.9018250    -0.7058890
  H       -3.8008160     0.2290630     0.9273410
  H       -3.8529070    -0.8569990    -0.4882140
units angstrom
no_reorient  #important for SAPT in psi4, default
symmetry c1  #important for SAPT in psi4, default
}

set PROPERTIES_ORIGIN ["COM"]
properties('MP2/aug-cc-pvtz', properties = ['dipole'])
--------------------------------------------------------------------------

    Molecular point group: c1
  Charge       = 0
  Multiplicity = 1
  Basis Set: AUG-CC-PVTZ
    Blend: AUG-CC-PVTZ
  Basis Set: (AUG-CC-PVTZ AUX)
    Blend: AUG-CC-PVTZ-JKFIT

    Orbital Energies [Eh]
    ---------------------

    Doubly Occupied:

       1A    -20.552291     2A    -11.291137     3A    -11.260857
       4A    -11.245831     5A    -11.239207     6A    -11.238083
       7A    -11.237498     8A    -11.235957     9A    -11.233730
      10A     -1.419039    11A     -1.155433    12A     -1.052460
      13A     -1.014710    14A     -0.963605    15A     -0.874058
      16A     -0.827346    17A     -0.800623    18A     -0.706424
      19A     -0.687042    20A     -0.670681    21A     -0.658736
      22A     -0.624116    23A     -0.617387    24A     -0.586262
      25A     -0.562221    26A     -0.557060    27A     -0.498065
      28A     -0.493711    29A     -0.492487    30A     -0.461258
      31A     -0.414468    32A     -0.337530    33A     -0.331191

  @DF-RHF Final Energy:  -383.73533465177962

   => Energetics <=

    Nuclear Repulsion Energy =            417.2990116548145352
    One-Electron Energy =               -1347.3876888047648208
    Two-Electron Energy =                 546.3533424981707185
    Total Energy =                       -383.7353346517795671
  Basis Set: (AUG-CC-PVTZ AUX)
    Blend: AUG-CC-PVTZ-RI
    Molecular point group: c1

    Geometry (in Angstrom), charge = 0, multiplicity = 1:

       Center              X                  Y                   Z               Mass
    ------------   -----------------  -----------------  -----------------  -----------------
         O           -2.303518366093     0.278448457051    -0.302151469602    15.994914619570
         C            0.055250733907    -0.273823942949     0.156335430398    12.000000000000
         C           -1.399483266093    -0.597078942949     0.357286430398    12.000000000000
         C            0.995456733907    -1.294815942949    -0.013479569602    12.000000000000
         C            0.487056733907     1.057651057051     0.187015430398    12.000000000000
         C            2.352258733907    -0.993116942949    -0.149204569602    12.000000000000
         C            1.840695733907     1.360024057051     0.040466430398    12.000000000000
         C            2.777856733907     0.335885057051    -0.120999569602    12.000000000000
         C           -3.569422266093     0.136149057051    -0.135555569602    12.000000000000
         H           -1.616313266093    -1.619133942949     0.005140430398     1.007825032230
         H           -1.657013266093    -0.563018942949     1.430162430398     1.007825032230
         H            0.665375733907    -2.331916942949    -0.050812569602     1.007825032230
         H           -0.247446266093     1.850107057051     0.301510430398     1.007825032230
         H            3.074567733907    -1.794861942949    -0.284045569602     1.007825032230
         H            2.167140733907     2.397362057051     0.057389430398     1.007825032230
         H            3.832980733907     0.573693057051    -0.233004569602     1.007825032230
         H           -4.098093266093     0.901540057051    -0.704755569602     1.007825032230
         H           -3.828421266093     0.228778057051     0.928474430398     1.007825032230
         H           -3.880512266093    -0.857283942949    -0.487080569602     1.007825032230

  Basis Set: AUG-CC-PVTZ
    Blend: AUG-CC-PVTZ
  Basis Set: (AUG-CC-PVTZ AUX)
    Blend: AUG-CC-PVTZ-JKFIT
	 Reference Energy          =    -383.7353346517796240 [Eh]
	 Singles Energy            =      -0.0000000000000000 [Eh]
	 Same-Spin Energy          =      -0.4068499923159055 [Eh]
	 Opposite-Spin Energy      =      -1.3111566048618903 [Eh]
	 Correlation Energy        =      -1.7180065971777958 [Eh]
	 Total Energy              =    -385.4533412489574289 [Eh]

	 ================> DF-SCS-MP2 Energies <==================
	-----------------------------------------------------------
	 SCS Same-Spin Scale       =       0.3333333333333333 [-]
	 SCS Opposite-Spin Scale   =       1.2000000000000000 [-]
	 SCS Same-Spin Energy      =      -0.1356166641053018 [Eh]
	 SCS Opposite-Spin Energy  =      -1.5733879258342685 [Eh]
	 SCS Correlation Energy    =      -1.7090045899395703 [Eh]
	 SCS Total Energy          =    -385.4443392417192058 [Eh]
	-----------------------------------------------------------

  Dipole Moment: [D]
     X:     0.0157      Y:    -0.6032      Z:     0.5915     Total:     0.8450

*** Psi4 exiting successfully. Buy a developer a beer!
