                               Psi4 1.3.2 release

  ==> Input File <==

--------------------------------------------------------------------------
#psi4
#
memory 32 gb

molecule  {
0 1
  O       -2.1564240     0.3516210    -0.3535530
  C        0.0761297    -0.2796644     0.1035099
  C       -1.3718780    -0.5967940     0.3561530
  C        1.0230620    -1.2945310    -0.0146130
  C        0.5146620     1.0579360     0.1858820
  C        2.3798640    -0.9928320    -0.1503380
  C        1.8683010     1.3603090     0.0393330
  C        2.8054620     0.3361700    -0.1221330
  C       -3.5418170     0.1364340    -0.1366890
  H       -1.5887080    -1.6188490     0.0040070
  H       -1.6294080    -0.5627340     1.4290290
  H        0.6929810    -2.3316320    -0.0519460
  H       -0.2198410     1.8503920     0.3003770
  H        3.1021730    -1.7945770    -0.2851790
  H        2.1947460     2.3976470     0.0562560
  H        3.8605860     0.5739780    -0.2341380
  H       -4.0704880     0.9018250    -0.7058890
  H       -3.8008160     0.2290630     0.9273410
  H       -3.8529070    -0.8569990    -0.4882140
units angstrom
no_reorient  #important for SAPT in psi4, default
symmetry c1  #important for SAPT in psi4, default
}

set PROPERTIES_ORIGIN ["COM"]
properties('MP2/aug-cc-pvtz', properties = ['dipole'])
--------------------------------------------------------------------------

    Molecular point group: c1
  Charge       = 0
  Multiplicity = 1
  Basis Set: AUG-CC-PVTZ
    Blend: AUG-CC-PVTZ
  Basis Set: (AUG-CC-PVTZ AUX)
    Blend: AUG-CC-PVTZ-JKFIT

    Orbital Energies [Eh]
    ---------------------

    Doubly Occupied:

       1A    -20.561267     2A    -11.284187     3A    -11.273814
       4A    -11.239097     5A    -11.234701     6A    -11.233428
       7A    -11.232761     8A    -11.231949     9A    -11.229709
      10A     -1.376437    11A     -1.149334    12A     -1.041485
      13A     -1.010069    14A     -0.950104    15A     -0.885819
      16A     -0.822517    17A     -0.795831    18A     -0.698891
      19A     -0.669328    20A     -0.653898    21A     -0.644951
      22A     -0.612858    23A     -0.607294    24A     -0.581723
      25A     -0.554659    26A     -0.547929    27A     -0.498778
      28A     -0.492145    29A     -0.487132    30A     -0.478338
      31A     -0.430174    32A     -0.333831    33A     -0.325920

  @DF-RHF Final Energy:  -383.74555239196224

   => Energetics <=

    Nuclear Repulsion Energy =            416.4209214564421586
    One-Electron Energy =               -1345.9922282836889735
    Two-Electron Energy =                 545.8257544352846935
    Total Energy =                       -383.7455523919621783
  Basis Set: (AUG-CC-PVTZ AUX)
    Blend: AUG-CC-PVTZ-RI
    Molecular point group: c1

    Geometry (in Angstrom), charge = 0, multiplicity = 1:

       Center              X                  Y                   Z               Mass
    ------------   -----------------  -----------------  -----------------  -----------------
         O           -2.199024390971     0.342387930414    -0.340751655788    15.994914619570
         C            0.033529309029    -0.288897469586     0.116311244212    12.000000000000
         C           -1.414478390971    -0.606027069586     0.368954344212    12.000000000000
         C            0.980461609029    -1.303764069586    -0.001811655788    12.000000000000
         C            0.472061609029     1.048702930414     0.198683344212    12.000000000000
         C            2.337263609029    -1.002065069586    -0.137536655788    12.000000000000
         C            1.825700609029     1.351075930414     0.052134344212    12.000000000000
         C            2.762861609029     0.326936930414    -0.109331655788    12.000000000000
         C           -3.584417390971     0.127200930414    -0.123887655788    12.000000000000
         H           -1.631308390971    -1.628082069586     0.016808344212     1.007825032230
         H           -1.672008390971    -0.571967069586     1.441830344212     1.007825032230
         H            0.650380609029    -2.340865069586    -0.039144655788     1.007825032230
         H           -0.262441390971     1.841158930414     0.313178344212     1.007825032230
         H            3.059572609029    -1.803810069586    -0.272377655788     1.007825032230
         H            2.152145609029     2.388413930414     0.069057344212     1.007825032230
         H            3.817985609029     0.564744930414    -0.221336655788     1.007825032230
         H           -4.113088390971     0.892591930414    -0.693087655788     1.007825032230
         H           -3.843416390971     0.219829930414     0.940142344212     1.007825032230
         H           -3.895507390971    -0.866232069586    -0.475412655788     1.007825032230

  Basis Set: AUG-CC-PVTZ
    Blend: AUG-CC-PVTZ
  Basis Set: (AUG-CC-PVTZ AUX)
    Blend: AUG-CC-PVTZ-JKFIT
	 Reference Energy          =    -383.7455523919622351 [Eh]
	 Singles Energy            =      -0.0000000000000000 [Eh]
	 Same-Spin Energy          =      -0.4076770449098724 [Eh]
	 Opposite-Spin Energy      =      -1.3149903776054694 [Eh]
	 Correlation Energy        =      -1.7226674225153418 [Eh]
	 Total Energy              =    -385.4682198144775498 [Eh]

	 ================> DF-SCS-MP2 Energies <==================
	-----------------------------------------------------------
	 SCS Same-Spin Scale       =       0.3333333333333333 [-]
	 SCS Opposite-Spin Scale   =       1.2000000000000000 [-]
	 SCS Same-Spin Energy      =      -0.1358923483032908 [Eh]
	 SCS Opposite-Spin Energy  =      -1.5779884531265633 [Eh]
	 SCS Correlation Energy    =      -1.7138808014298541 [Eh]
	 SCS Total Energy          =    -385.4594331933921012 [Eh]
	-----------------------------------------------------------

  Dipole Moment: [D]
     X:    -0.7542      Y:    -0.7534      Z:     0.7338     Total:     1.2942

*** Psi4 exiting successfully. Buy a developer a beer!
