                               Psi4 1.3.2 release

  ==> Input File <==

--------------------------------------------------------------------------
#psi4
#
memory 32 gb

molecule  {
0 1
  O       -2.1673323     0.3581949    -0.3322761
  C        0.0828560    -0.2735390     0.1552020
  C       -1.3718780    -0.5967940     0.3561530
  C        1.0230620    -1.2945310    -0.0146130
  C        0.5146620     1.0579360     0.1858820
  C        2.3798640    -0.9928320    -0.1503380
  C        1.8683010     1.3603090     0.0393330
  C        2.8054620     0.3361700    -0.1221330
  C       -3.5418170     0.1364340    -0.1366890
  H       -1.5887080    -1.6188490     0.0040070
  H       -1.6294080    -0.5627340     1.4290290
  H        0.6929810    -2.3316320    -0.0519460
  H       -0.2198410     1.8503920     0.3003770
  H        3.1021730    -1.7945770    -0.2851790
  H        2.1947460     2.3976470     0.0562560
  H        3.8605860     0.5739780    -0.2341380
  H       -4.0704880     0.9018250    -0.7058890
  H       -3.8008160     0.2290630     0.9273410
  H       -3.8529070    -0.8569990    -0.4882140
units angstrom
no_reorient  #important for SAPT in psi4, default
symmetry c1  #important for SAPT in psi4, default
}

set PROPERTIES_ORIGIN ["COM"]
properties('MP2/aug-cc-pvtz', properties = ['dipole'])
--------------------------------------------------------------------------

    Molecular point group: c1
  Charge       = 0
  Multiplicity = 1
  Basis Set: AUG-CC-PVTZ
    Blend: AUG-CC-PVTZ
  Basis Set: (AUG-CC-PVTZ AUX)
    Blend: AUG-CC-PVTZ-JKFIT

    Orbital Energies [Eh]
    ---------------------

    Doubly Occupied:

       1A    -20.561022     2A    -11.284684     3A    -11.272908
       4A    -11.239513     5A    -11.235038     6A    -11.233742
       7A    -11.233441     8A    -11.231953     9A    -11.228909
      10A     -1.379918    11A     -1.150152    12A     -1.042481
      13A     -1.010573    14A     -0.951229    15A     -0.885358
      16A     -0.823385    17A     -0.795872    18A     -0.699491
      19A     -0.670678    20A     -0.654937    21A     -0.646414
      22A     -0.613758    23A     -0.608460    24A     -0.582083
      25A     -0.555775    26A     -0.549295    27A     -0.498389
      28A     -0.491594    29A     -0.487341    30A     -0.479120
      31A     -0.429386    32A     -0.333621    33A     -0.326678

  @DF-RHF Final Energy:  -383.74751319949297

   => Energetics <=

    Nuclear Repulsion Energy =            416.5089486654690063
    One-Electron Energy =               -1346.1385303247045613
    Two-Electron Energy =                 545.8820684597425270
    Total Energy =                       -383.7475131994930280
  Basis Set: (AUG-CC-PVTZ AUX)
    Blend: AUG-CC-PVTZ-RI
    Molecular point group: c1

    Geometry (in Angstrom), charge = 0, multiplicity = 1:

       Center              X                  Y                   Z               Mass
    ------------   -----------------  -----------------  -----------------  -----------------
         O           -2.209164612850     0.347498332935    -0.327344031556    15.994914619570
         C            0.041023687150    -0.284235567065     0.160134068444    12.000000000000
         C           -1.413710312850    -0.607490567065     0.361085068444    12.000000000000
         C            0.981229687150    -1.305227567065    -0.009680931556    12.000000000000
         C            0.472829687150     1.047239432935     0.190814068444    12.000000000000
         C            2.338031687150    -1.003528567065    -0.145405931556    12.000000000000
         C            1.826468687150     1.349612432935     0.044265068444    12.000000000000
         C            2.763629687150     0.325473432935    -0.117200931556    12.000000000000
         C           -3.583649312850     0.125737432935    -0.131756931556    12.000000000000
         H           -1.630540312850    -1.629545567065     0.008939068444     1.007825032230
         H           -1.671240312850    -0.573430567065     1.433961068444     1.007825032230
         H            0.651148687150    -2.342328567065    -0.047013931556     1.007825032230
         H           -0.261673312850     1.839695432935     0.305309068444     1.007825032230
         H            3.060340687150    -1.805273567065    -0.280246931556     1.007825032230
         H            2.152913687150     2.386950432935     0.061188068444     1.007825032230
         H            3.818753687150     0.563281432935    -0.229205931556     1.007825032230
         H           -4.112320312850     0.891128432935    -0.700956931556     1.007825032230
         H           -3.842648312850     0.218366432935     0.932273068444     1.007825032230
         H           -3.894739312850    -0.867695567065    -0.483281931556     1.007825032230

  Basis Set: AUG-CC-PVTZ
    Blend: AUG-CC-PVTZ
  Basis Set: (AUG-CC-PVTZ AUX)
    Blend: AUG-CC-PVTZ-JKFIT
	 Reference Energy          =    -383.7475131994929711 [Eh]
	 Singles Energy            =      -0.0000000000000000 [Eh]
	 Same-Spin Energy          =      -0.4075035254025549 [Eh]
	 Opposite-Spin Energy      =      -1.3143622954806378 [Eh]
	 Correlation Energy        =      -1.7218658208831927 [Eh]
	 Total Energy              =    -385.4693790203761523 [Eh]

	 ================> DF-SCS-MP2 Energies <==================
	-----------------------------------------------------------
	 SCS Same-Spin Scale       =       0.3333333333333333 [-]
	 SCS Opposite-Spin Scale   =       1.2000000000000000 [-]
	 SCS Same-Spin Energy      =      -0.1358345084675183 [Eh]
	 SCS Opposite-Spin Energy  =      -1.5772347545767653 [Eh]
	 SCS Correlation Energy    =      -1.7130692630442836 [Eh]
	 SCS Total Energy          =    -385.4605824625372748 [Eh]
	-----------------------------------------------------------

  Dipole Moment: [D]
     X:    -0.7187      Y:    -0.7681      Z:     0.6730     Total:     1.2488

*** Psi4 exiting successfully. Buy a developer a beer!
