                               Psi4 1.3.2 release

  ==> Input File <==

--------------------------------------------------------------------------
#psi4
#
memory 32 gb

molecule  {
0 1
  O       -2.0283392     0.4141176    -0.3960454
  C        0.0828560    -0.2735390     0.1552020
  C       -1.3718780    -0.5967940     0.3561530
  C        1.0230620    -1.2945310    -0.0146130
  C        0.5146620     1.0579360     0.1858820
  C        2.3798640    -0.9928320    -0.1503380
  C        1.8683010     1.3603090     0.0393330
  C        2.8054620     0.3361700    -0.1221330
  C       -3.5418170     0.1364340    -0.1366890
  H       -1.5887080    -1.6188490     0.0040070
  H       -1.6294080    -0.5627340     1.4290290
  H        0.6929810    -2.3316320    -0.0519460
  H       -0.2198410     1.8503920     0.3003770
  H        3.1021730    -1.7945770    -0.2851790
  H        2.1947460     2.3976470     0.0562560
  H        3.8605860     0.5739780    -0.2341380
  H       -4.0704880     0.9018250    -0.7058890
  H       -3.8008160     0.2290630     0.9273410
  H       -3.8529070    -0.8569990    -0.4882140
units angstrom
no_reorient  #important for SAPT in psi4, default
symmetry c1  #important for SAPT in psi4, default
}

set PROPERTIES_ORIGIN ["COM"]
properties('MP2/aug-cc-pvtz', properties = ['dipole'])
--------------------------------------------------------------------------

    Molecular point group: c1
  Charge       = 0
  Multiplicity = 1
  Basis Set: AUG-CC-PVTZ
    Blend: AUG-CC-PVTZ
  Basis Set: (AUG-CC-PVTZ AUX)
    Blend: AUG-CC-PVTZ-JKFIT

    Orbital Energies [Eh]
    ---------------------

    Doubly Occupied:

       1A    -20.569107     2A    -11.288057     3A    -11.280394
       4A    -11.233117     5A    -11.230842     6A    -11.229719
       7A    -11.228409     8A    -11.227764     9A    -11.223985
      10A     -1.348365    11A     -1.144468    12A     -1.032511
      13A     -1.006293    14A     -0.943089    15A     -0.896189
      16A     -0.819432    17A     -0.790836    18A     -0.694194
      19A     -0.658649    20A     -0.642810    21A     -0.633773
      22A     -0.605112    23A     -0.597806    24A     -0.578141
      25A     -0.557472    26A     -0.537915    27A     -0.509582
      28A     -0.490461    29A     -0.484365    30A     -0.468900
      31A     -0.438686    32A     -0.329583    33A     -0.321684

  @DF-RHF Final Energy:  -383.72526717559163

   => Energetics <=

    Nuclear Repulsion Energy =            415.9955678248303457
    One-Electron Energy =               -1345.3582514759448259
    Two-Electron Energy =                 545.6374164755228549
    Total Energy =                       -383.7252671755916253
  Basis Set: (AUG-CC-PVTZ AUX)
    Blend: AUG-CC-PVTZ-RI
    Molecular point group: c1

    Geometry (in Angstrom), charge = 0, multiplicity = 1:

       Center              X                  Y                   Z               Mass
    ------------   -----------------  -----------------  -----------------  -----------------
         O           -2.088383400518     0.396093633729    -0.382757813705    15.994914619570
         C            0.022811799482    -0.291562966271     0.168489586295    12.000000000000
         C           -1.431922200518    -0.614817966271     0.369440586295    12.000000000000
         C            0.963017799482    -1.312554966271    -0.001325413705    12.000000000000
         C            0.454617799482     1.039912033729     0.199169586295    12.000000000000
         C            2.319819799482    -1.010855966271    -0.137050413705    12.000000000000
         C            1.808256799482     1.342285033729     0.052620586295    12.000000000000
         C            2.745417799482     0.318146033729    -0.108845413705    12.000000000000
         C           -3.601861200518     0.118410033729    -0.123401413705    12.000000000000
         H           -1.648752200518    -1.636872966271     0.017294586295     1.007825032230
         H           -1.689452200518    -0.580757966271     1.442316586295     1.007825032230
         H            0.632936799482    -2.349655966271    -0.038658413705     1.007825032230
         H           -0.279885200518     1.832368033729     0.313664586295     1.007825032230
         H            3.042128799482    -1.812600966271    -0.271891413705     1.007825032230
         H            2.134701799482     2.379623033729     0.069543586295     1.007825032230
         H            3.800541799482     0.555954033729    -0.220850413705     1.007825032230
         H           -4.130532200518     0.883801033729    -0.692601413705     1.007825032230
         H           -3.860860200518     0.211039033729     0.940628586295     1.007825032230
         H           -3.912951200518    -0.875022966271    -0.474926413705     1.007825032230

  Basis Set: AUG-CC-PVTZ
    Blend: AUG-CC-PVTZ
  Basis Set: (AUG-CC-PVTZ AUX)
    Blend: AUG-CC-PVTZ-JKFIT
	 Reference Energy          =    -383.7252671755916253 [Eh]
	 Singles Energy            =      -0.0000000000000000 [Eh]
	 Same-Spin Energy          =      -0.4094469600181218 [Eh]
	 Opposite-Spin Energy      =      -1.3206154167578155 [Eh]
	 Correlation Energy        =      -1.7300623767759373 [Eh]
	 Total Energy              =    -385.4553295523675729 [Eh]

	 ================> DF-SCS-MP2 Energies <==================
	-----------------------------------------------------------
	 SCS Same-Spin Scale       =       0.3333333333333333 [-]
	 SCS Opposite-Spin Scale   =       1.2000000000000000 [-]
	 SCS Same-Spin Energy      =      -0.1364823200060406 [Eh]
	 SCS Opposite-Spin Energy  =      -1.5847385001093786 [Eh]
	 SCS Correlation Energy    =      -1.7212208201154191 [Eh]
	 SCS Total Energy          =    -385.4464879957070593 [Eh]
	-----------------------------------------------------------

  Dipole Moment: [D]
     X:    -1.3885      Y:    -0.8712      Z:     0.8042     Total:     1.8258

*** Psi4 exiting successfully. Buy a developer a beer!
