                               Psi4 1.3.2 release

  ==> Input File <==

--------------------------------------------------------------------------
#psi4
#
memory 32 gb

molecule  {
0 1
  O       -2.1564240     0.3516210    -0.3535530
  C        0.0573951    -0.2930665     0.0011118
  C       -1.3718780    -0.5967940     0.3561530
  C        1.0230620    -1.2945310    -0.0146130
  C        0.5146620     1.0579360     0.1858820
  C        2.3798640    -0.9928320    -0.1503380
  C        1.8683010     1.3603090     0.0393330
  C        2.8054620     0.3361700    -0.1221330
  C       -3.5418170     0.1364340    -0.1366890
  H       -1.5887080    -1.6188490     0.0040070
  H       -1.6294080    -0.5627340     1.4290290
  H        0.6929810    -2.3316320    -0.0519460
  H       -0.2198410     1.8503920     0.3003770
  H        3.1021730    -1.7945770    -0.2851790
  H        2.1947460     2.3976470     0.0562560
  H        3.8605860     0.5739780    -0.2341380
  H       -4.0704880     0.9018250    -0.7058890
  H       -3.8008160     0.2290630     0.9273410
  H       -3.8529070    -0.8569990    -0.4882140
units angstrom
no_reorient  #important for SAPT in psi4, default
symmetry c1  #important for SAPT in psi4, default
}

set PROPERTIES_ORIGIN ["COM"]
properties('MP2/aug-cc-pvtz', properties = ['dipole'])
--------------------------------------------------------------------------

    Molecular point group: c1
  Charge       = 0
  Multiplicity = 1
  Basis Set: AUG-CC-PVTZ
    Blend: AUG-CC-PVTZ
  Basis Set: (AUG-CC-PVTZ AUX)
    Blend: AUG-CC-PVTZ-JKFIT

    Orbital Energies [Eh]
    ---------------------

    Doubly Occupied:

       1A    -20.560046     2A    -11.284202     3A    -11.272968
       4A    -11.240829     5A    -11.235082     6A    -11.234296
       7A    -11.233793     8A    -11.233364     9A    -11.232245
      10A     -1.376110    11A     -1.147615    12A     -1.041190
      13A     -1.009334    14A     -0.949333    15A     -0.884629
      16A     -0.820311    17A     -0.796178    18A     -0.698558
      19A     -0.669442    20A     -0.655575    21A     -0.643461
      22A     -0.612945    23A     -0.604366    24A     -0.581209
      25A     -0.554192    26A     -0.546632    27A     -0.497951
      28A     -0.493958    29A     -0.485634    30A     -0.474172
      31A     -0.429100    32A     -0.334913    33A     -0.324131

  @DF-RHF Final Energy:  -383.73579421675458

   => Energetics <=

    Nuclear Repulsion Energy =            416.2094497659507510
    One-Electron Energy =               -1345.5749573314969894
    Two-Electron Energy =                 545.6297133487917108
    Total Energy =                       -383.7357942167545843
  Basis Set: (AUG-CC-PVTZ AUX)
    Blend: AUG-CC-PVTZ-RI
    Molecular point group: c1

    Geometry (in Angstrom), charge = 0, multiplicity = 1:

       Center              X                  Y                   Z               Mass
    ------------   -----------------  -----------------  -----------------  -----------------
         O           -2.197182747886     0.343705379668    -0.330685748177    15.994914619570
         C            0.016636352114    -0.300982120332     0.023979051823    12.000000000000
         C           -1.412636747886    -0.604709620332     0.379020251823    12.000000000000
         C            0.982303252114    -1.302446620332     0.008254251823    12.000000000000
         C            0.473903252114     1.050020379668     0.208749251823    12.000000000000
         C            2.339105252114    -1.000747620332    -0.127470748177    12.000000000000
         C            1.827542252114     1.352393379668     0.062200251823    12.000000000000
         C            2.764703252114     0.328254379668    -0.099265748177    12.000000000000
         C           -3.582575747886     0.128518379668    -0.113821748177    12.000000000000
         H           -1.629466747886    -1.626764620332     0.026874251823     1.007825032230
         H           -1.670166747886    -0.570649620332     1.451896251823     1.007825032230
         H            0.652222252114    -2.339547620332    -0.029078748177     1.007825032230
         H           -0.260599747886     1.842476379668     0.323244251823     1.007825032230
         H            3.061414252114    -1.802492620332    -0.262311748177     1.007825032230
         H            2.153987252114     2.389731379668     0.079123251823     1.007825032230
         H            3.819827252114     0.566062379668    -0.211270748177     1.007825032230
         H           -4.111246747886     0.893909379668    -0.683021748177     1.007825032230
         H           -3.841574747886     0.221147379668     0.950208251823     1.007825032230
         H           -3.893665747886    -0.864914620332    -0.465346748177     1.007825032230

  Basis Set: AUG-CC-PVTZ
    Blend: AUG-CC-PVTZ
  Basis Set: (AUG-CC-PVTZ AUX)
    Blend: AUG-CC-PVTZ-JKFIT
	 Reference Energy          =    -383.7357942167545843 [Eh]
	 Singles Energy            =      -0.0000000000000000 [Eh]
	 Same-Spin Energy          =      -0.4081149819447468 [Eh]
	 Opposite-Spin Energy      =      -1.3163312828353915 [Eh]
	 Correlation Energy        =      -1.7244462647801382 [Eh]
	 Total Energy              =    -385.4602404815346972 [Eh]

	 ================> DF-SCS-MP2 Energies <==================
	-----------------------------------------------------------
	 SCS Same-Spin Scale       =       0.3333333333333333 [-]
	 SCS Opposite-Spin Scale   =       1.2000000000000000 [-]
	 SCS Same-Spin Energy      =      -0.1360383273149156 [Eh]
	 SCS Opposite-Spin Energy  =      -1.5795975394024697 [Eh]
	 SCS Correlation Energy    =      -1.7156358667173852 [Eh]
	 SCS Total Energy          =    -385.4514300834719620 [Eh]
	-----------------------------------------------------------

  Dipole Moment: [D]
     X:    -0.6806      Y:    -0.7394      Z:     0.7692     Total:     1.2655

*** Psi4 exiting successfully. Buy a developer a beer!
