                               Psi4 1.3.2 release

  ==> Input File <==

--------------------------------------------------------------------------
#psi4
#
memory 32 gb

molecule  {
0 1
  O       -2.1769724     0.3401745    -0.3457011
  C        0.0828560    -0.2735390     0.1552020
  C       -1.3718780    -0.5967940     0.3561530
  C        1.0230620    -1.2945310    -0.0146130
  C        0.5146620     1.0579360     0.1858820
  C        2.3798640    -0.9928320    -0.1503380
  C        1.8683010     1.3603090     0.0393330
  C        2.8054620     0.3361700    -0.1221330
  C       -3.5418170     0.1364340    -0.1366890
  H       -1.5887080    -1.6188490     0.0040070
  H       -1.6294080    -0.5627340     1.4290290
  H        0.6929810    -2.3316320    -0.0519460
  H       -0.2198410     1.8503920     0.3003770
  H        3.1021730    -1.7945770    -0.2851790
  H        2.1947460     2.3976470     0.0562560
  H        3.8605860     0.5739780    -0.2341380
  H       -4.0704880     0.9018250    -0.7058890
  H       -3.8008160     0.2290630     0.9273410
  H       -3.8529070    -0.8569990    -0.4882140
units angstrom
no_reorient  #important for SAPT in psi4, default
symmetry c1  #important for SAPT in psi4, default
}

set PROPERTIES_ORIGIN ["COM"]
properties('MP2/aug-cc-pvtz', properties = ['dipole'])
--------------------------------------------------------------------------

    Molecular point group: c1
  Charge       = 0
  Multiplicity = 1
  Basis Set: AUG-CC-PVTZ
    Blend: AUG-CC-PVTZ
  Basis Set: (AUG-CC-PVTZ AUX)
    Blend: AUG-CC-PVTZ-JKFIT

    Orbital Energies [Eh]
    ---------------------

    Doubly Occupied:

       1A    -20.560308     2A    -11.285048     3A    -11.271829
       4A    -11.240005     5A    -11.235373     6A    -11.234110
       7A    -11.233813     8A    -11.232321     9A    -11.229413
      10A     -1.382572    11A     -1.150606    12A     -1.043239
      13A     -1.010937    14A     -0.952089    15A     -0.884378
      16A     -0.823773    17A     -0.796299    18A     -0.699938
      19A     -0.671682    20A     -0.655841    21A     -0.647434
      22A     -0.614426    23A     -0.609875    24A     -0.582483
      25A     -0.555299    26A     -0.550345    27A     -0.497842
      28A     -0.491568    29A     -0.487776    30A     -0.478706
      31A     -0.428433    32A     -0.333972    33A     -0.327134

  @DF-RHF Final Energy:  -383.74784756993421

   => Energetics <=

    Nuclear Repulsion Energy =            416.5323592673277062
    One-Electron Energy =               -1346.1626739259982060
    Two-Electron Energy =                 545.8824670887362345
    Total Energy =                       -383.7478475699342653
  Basis Set: (AUG-CC-PVTZ AUX)
    Blend: AUG-CC-PVTZ-RI
    Molecular point group: c1

    Geometry (in Angstrom), charge = 0, multiplicity = 1:

       Center              X                  Y                   Z               Mass
    ------------   -----------------  -----------------  -----------------  -----------------
         O           -2.217541596779     0.331839096910    -0.339009990338    15.994914619570
         C            0.042286803221    -0.281874403090     0.161893109662    12.000000000000
         C           -1.412447196779    -0.605129403090     0.362844109662    12.000000000000
         C            0.982492803221    -1.302866403090    -0.007921890338    12.000000000000
         C            0.474092803221     1.049600596910     0.192573109662    12.000000000000
         C            2.339294803221    -1.001167403090    -0.143646890338    12.000000000000
         C            1.827731803221     1.351973596910     0.046024109662    12.000000000000
         C            2.764892803221     0.327834596910    -0.115441890338    12.000000000000
         C           -3.582386196779     0.128098596910    -0.129997890338    12.000000000000
         H           -1.629277196779    -1.627184403090     0.010698109662     1.007825032230
         H           -1.669977196779    -0.571069403090     1.435720109662     1.007825032230
         H            0.652411803221    -2.339967403090    -0.045254890338     1.007825032230
         H           -0.260410196779     1.842056596910     0.307068109662     1.007825032230
         H            3.061603803221    -1.802912403090    -0.278487890338     1.007825032230
         H            2.154176803221     2.389311596910     0.062947109662     1.007825032230
         H            3.820016803221     0.565642596910    -0.227446890338     1.007825032230
         H           -4.111057196779     0.893489596910    -0.699197890338     1.007825032230
         H           -3.841385196779     0.220727596910     0.934032109662     1.007825032230
         H           -3.893476196779    -0.865334403090    -0.481522890338     1.007825032230

  Basis Set: AUG-CC-PVTZ
    Blend: AUG-CC-PVTZ
  Basis Set: (AUG-CC-PVTZ AUX)
    Blend: AUG-CC-PVTZ-JKFIT
	 Reference Energy          =    -383.7478475699342084 [Eh]
	 Singles Energy            =      -0.0000000000000000 [Eh]
	 Same-Spin Energy          =      -0.4074007299191157 [Eh]
	 Opposite-Spin Energy      =      -1.3140219361342902 [Eh]
	 Correlation Energy        =      -1.7214226660534058 [Eh]
	 Total Energy              =    -385.4692702359876080 [Eh]

	 ================> DF-SCS-MP2 Energies <==================
	-----------------------------------------------------------
	 SCS Same-Spin Scale       =       0.3333333333333333 [-]
	 SCS Opposite-Spin Scale   =       1.2000000000000000 [-]
	 SCS Same-Spin Energy      =      -0.1358002433063719 [Eh]
	 SCS Opposite-Spin Energy  =      -1.5768263233611481 [Eh]
	 SCS Correlation Energy    =      -1.7126265666675200 [Eh]
	 SCS Total Energy          =    -385.4604741366017038 [Eh]
	-----------------------------------------------------------

  Dipole Moment: [D]
     X:    -0.6585      Y:    -0.7343      Z:     0.6970     Total:     1.2077

*** Psi4 exiting successfully. Buy a developer a beer!
