                               Psi4 1.3.2 release

  ==> Input File <==

--------------------------------------------------------------------------
#psi4
#
memory 32 gb

molecule  {
0 1
  O       -2.1338940     0.3376085    -0.3954517
  C        0.0828560    -0.2735390     0.1552020
  C       -1.3718780    -0.5967940     0.3561530
  C        1.0230620    -1.2945310    -0.0146130
  C        0.5146620     1.0579360     0.1858820
  C        2.3798640    -0.9928320    -0.1503380
  C        1.8683010     1.3603090     0.0393330
  C        2.8054620     0.3361700    -0.1221330
  C       -3.5418170     0.1364340    -0.1366890
  H       -1.5887080    -1.6188490     0.0040070
  H       -1.6294080    -0.5627340     1.4290290
  H        0.6929810    -2.3316320    -0.0519460
  H       -0.2198410     1.8503920     0.3003770
  H        3.1021730    -1.7945770    -0.2851790
  H        2.1947460     2.3976470     0.0562560
  H        3.8605860     0.5739780    -0.2341380
  H       -4.0704880     0.9018250    -0.7058890
  H       -3.8008160     0.2290630     0.9273410
  H       -3.8529070    -0.8569990    -0.4882140
units angstrom
no_reorient  #important for SAPT in psi4, default
symmetry c1  #important for SAPT in psi4, default
}

set PROPERTIES_ORIGIN ["COM"]
properties('MP2/aug-cc-pvtz', properties = ['dipole'])
--------------------------------------------------------------------------

    Molecular point group: c1
  Charge       = 0
  Multiplicity = 1
  Basis Set: AUG-CC-PVTZ
    Blend: AUG-CC-PVTZ
  Basis Set: (AUG-CC-PVTZ AUX)
    Blend: AUG-CC-PVTZ-JKFIT

    Orbital Energies [Eh]
    ---------------------

    Doubly Occupied:

       1A    -20.563229     2A    -11.283101     3A    -11.276713
       4A    -11.237780     5A    -11.233967     6A    -11.232834
       7A    -11.232174     8A    -11.231000     9A    -11.227981
      10A     -1.369831    11A     -1.148760    12A     -1.039727
      13A     -1.009553    14A     -0.948314    15A     -0.888405
      16A     -0.822557    17A     -0.794609    18A     -0.697864
      19A     -0.666614    20A     -0.650038    21A     -0.643542
      22A     -0.610759    23A     -0.607468    24A     -0.581197
      25A     -0.554801    26A     -0.544527    27A     -0.501766
      28A     -0.491796    29A     -0.486561    30A     -0.478459
      31A     -0.432379    32A     -0.332681    33A     -0.325658

  @DF-RHF Final Energy:  -383.74466070808450

   => Energetics <=

    Nuclear Repulsion Energy =            416.2281527281610352
    One-Electron Energy =               -1345.6523345869386503
    Two-Electron Energy =                 545.6795211506931764
    Total Energy =                       -383.7446607080844387
  Basis Set: (AUG-CC-PVTZ AUX)
    Blend: AUG-CC-PVTZ-RI
    Molecular point group: c1

    Geometry (in Angstrom), charge = 0, multiplicity = 1:

       Center              X                  Y                   Z               Mass
    ------------   -----------------  -----------------  -----------------  -----------------
         O           -2.180107642307     0.329609312908    -0.382241904600    15.994914619570
         C            0.036642357693    -0.281538187092     0.168411795400    12.000000000000
         C           -1.418091642307    -0.604793187092     0.369362795400    12.000000000000
         C            0.976848357693    -1.302530187092    -0.001403204600    12.000000000000
         C            0.468448357693     1.049936812908     0.199091795400    12.000000000000
         C            2.333650357693    -1.000831187092    -0.137128204600    12.000000000000
         C            1.822087357693     1.352309812908     0.052542795400    12.000000000000
         C            2.759248357693     0.328170812908    -0.108923204600    12.000000000000
         C           -3.588030642307     0.128434812908    -0.123479204600    12.000000000000
         H           -1.634921642307    -1.626848187092     0.017216795400     1.007825032230
         H           -1.675621642307    -0.570733187092     1.442238795400     1.007825032230
         H            0.646767357693    -2.339631187092    -0.038736204600     1.007825032230
         H           -0.266054642307     1.842392812908     0.313586795400     1.007825032230
         H            3.055959357693    -1.802576187092    -0.271969204600     1.007825032230
         H            2.148532357693     2.389647812908     0.069465795400     1.007825032230
         H            3.814372357693     0.565978812908    -0.220928204600     1.007825032230
         H           -4.116701642307     0.893825812908    -0.692679204600     1.007825032230
         H           -3.847029642307     0.221063812908     0.940550795400     1.007825032230
         H           -3.899120642307    -0.864998187092    -0.475004204600     1.007825032230

  Basis Set: AUG-CC-PVTZ
    Blend: AUG-CC-PVTZ
  Basis Set: (AUG-CC-PVTZ AUX)
    Blend: AUG-CC-PVTZ-JKFIT
	 Reference Energy          =    -383.7446607080844956 [Eh]
	 Singles Energy            =      -0.0000000000000000 [Eh]
	 Same-Spin Energy          =      -0.4078565400874400 [Eh]
	 Opposite-Spin Energy      =      -1.3157511320776840 [Eh]
	 Correlation Energy        =      -1.7236076721651239 [Eh]
	 Total Energy              =    -385.4682683802496399 [Eh]

	 ================> DF-SCS-MP2 Energies <==================
	-----------------------------------------------------------
	 SCS Same-Spin Scale       =       0.3333333333333333 [-]
	 SCS Opposite-Spin Scale   =       1.2000000000000000 [-]
	 SCS Same-Spin Energy      =      -0.1359521800291467 [Eh]
	 SCS Opposite-Spin Energy  =      -1.5789013584932208 [Eh]
	 SCS Correlation Energy    =      -1.7148535385223673 [Eh]
	 SCS Total Energy          =    -385.4595142466068864 [Eh]
	-----------------------------------------------------------

  Dipole Moment: [D]
     X:    -0.8928      Y:    -0.7350      Z:     0.7971     Total:     1.4045

*** Psi4 exiting successfully. Buy a developer a beer!
