                               Psi4 1.4a3.dev225

  ==> Input File <==

--------------------------------------------------------------------------
#psi4
#
memory 32 gb

molecule  {
0 1
  O       -0.4387840     2.7607480     0.8353900
  O       -2.1331470    -1.1223190    -0.8372800
  N       -1.8213880     1.6463300    -0.5966440
  N       -1.3631050    -2.2953590     0.9499780
  C        0.3530890     0.6863100    -0.0267190
  C        0.1273570    -0.7062790    -0.0589400
  C        1.6757520     1.1521170    -0.0434370
  C        1.2227880    -1.5827320    -0.1454420
  C        2.7536970     0.2775120    -0.1531960
  C        2.5274700    -1.0985820    -0.2079210
  C       -0.6753445     1.8145366     0.1611259
  C       -1.2296110    -1.3487220    -0.0223170
  H        1.8350890     2.2234210     0.0367700
  H        1.0390000    -2.6541090    -0.1799310
  H        3.7675570     0.6687350    -0.1864300
  H        3.3600860    -1.7923230    -0.2949860
  H       -2.0668670     0.7647910    -1.0387640
  H       -2.5394600     2.3415160    -0.4355780
  H       -0.7232160    -2.3232030     1.7312060
  H       -2.2766340    -2.7186030     1.0611610
units angstrom
no_reorient  #important for SAPT in psi4, default
symmetry c1  #important for SAPT in psi4, default
}

set PROPERTIES_ORIGIN ["COM"]
properties('MP2/aug-cc-pvtz', properties = ['dipole'])
--------------------------------------------------------------------------

    Molecular point group: c1
  Charge       = 0
  Multiplicity = 1
  Basis Set: AUG-CC-PVTZ
    Blend: AUG-CC-PVTZ
  Basis Set: (AUG-CC-PVTZ AUX)
    Blend: AUG-CC-PVTZ-JKFIT

    Orbital Energies [Eh]
    ---------------------

    Doubly Occupied:

       1A    -20.544911     2A    -20.526026     3A    -15.607479
       4A    -15.564507     5A    -11.384273     6A    -11.357254
       7A    -11.278983     8A    -11.271600     9A    -11.264591
      10A    -11.260463    11A    -11.257439    12A    -11.253931
      13A     -1.405256    14A     -1.398669    15A     -1.235245
      16A     -1.195635    17A     -1.171977    18A     -1.052958
      19A     -1.044619    20A     -0.905292    21A     -0.864438
      22A     -0.820763    23A     -0.782943    24A     -0.761809
      25A     -0.721451    26A     -0.700546    27A     -0.681830
      28A     -0.660547    29A     -0.647477    30A     -0.637787
      31A     -0.611511    32A     -0.599234    33A     -0.580858
      34A     -0.575012    35A     -0.540918    36A     -0.524109
      37A     -0.516960    38A     -0.454186    39A     -0.440266
      40A     -0.430754    41A     -0.405674    42A     -0.361514
      43A     -0.355778

  @DF-RHF Final Energy:  -566.47128553851223

   => Energetics <=

    Nuclear Repulsion Energy =            669.6720169802916871
    One-Electron Energy =               -2100.9716604758814356
    Two-Electron Energy =                 864.8283579570776283
    Total Energy =                       -566.4712855385122339
  Basis Set: (AUG-CC-PVTZ AUX)
    Blend: AUG-CC-PVTZ-RI
    Molecular point group: c1

    Geometry (in Angstrom), charge = 0, multiplicity = 1:

       Center              X                  Y                   Z               Mass
    ------------   -----------------  -----------------  -----------------  -----------------
         O           -0.425045994727     2.736787195846     0.837497461802    15.994914619570
         O           -2.119408994727    -1.146279804154    -0.835172538198    15.994914619570
         N           -1.807649994727     1.622369195846    -0.594536538198    14.003074004430
         N           -1.349366994727    -2.319319804154     0.952085461802    14.003074004430
         C            0.366827005273     0.662349195846    -0.024611538198    12.000000000000
         C            0.141095005273    -0.730239804154    -0.056832538198    12.000000000000
         C            1.689490005273     1.128156195846    -0.041329538198    12.000000000000
         C            1.236526005273    -1.606692804154    -0.143334538198    12.000000000000
         C            2.767435005273     0.253551195846    -0.151088538198    12.000000000000
         C            2.541208005273    -1.122542804154    -0.205813538198    12.000000000000
         C           -0.661606494727     1.790575795846     0.163233361802    12.000000000000
         C           -1.215872994727    -1.372682804154    -0.020209538198    12.000000000000
         H            1.848827005273     2.199460195846     0.038877461802     1.007825032230
         H            1.052738005273    -2.678069804154    -0.177823538198     1.007825032230
         H            3.781295005273     0.644774195846    -0.184322538198     1.007825032230
         H            3.373824005273    -1.816283804154    -0.292878538198     1.007825032230
         H           -2.053128994727     0.740830195846    -1.036656538198     1.007825032230
         H           -2.525721994727     2.317555195846    -0.433470538198     1.007825032230
         H           -0.709477994727    -2.347163804154     1.733313461802     1.007825032230
         H           -2.262895994727    -2.742563804154     1.063268461802     1.007825032230

  Basis Set: AUG-CC-PVTZ
    Blend: AUG-CC-PVTZ
  Basis Set: (AUG-CC-PVTZ AUX)
    Blend: AUG-CC-PVTZ-JKFIT
	 Reference Energy          =    -566.4712855385122339 [Eh]
	 Singles Energy            =      -0.0000000000000000 [Eh]
	 Same-Spin Energy          =      -0.5958115362598062 [Eh]
	 Opposite-Spin Energy      =      -1.7877354731183541 [Eh]
	 Correlation Energy        =      -2.3835470093781606 [Eh]
	 Total Energy              =    -568.8548325478903962 [Eh]

	 ================> DF-SCS-MP2 Energies <==================
	-----------------------------------------------------------
	 SCS Same-Spin Scale       =       0.3333333333333333 [-]
	 SCS Opposite-Spin Scale   =       1.2000000000000000 [-]
	 SCS Same-Spin Energy      =      -0.1986038454199354 [Eh]
	 SCS Opposite-Spin Energy  =      -2.1452825677420249 [Eh]
	 SCS Correlation Energy    =      -2.3438864131619601 [Eh]
	 SCS Total Energy          =    -568.8151719516741878 [Eh]
	-----------------------------------------------------------

  Dipole Moment: [D]
     X:     1.0386      Y:    -3.7549      Z:     1.2541     Total:     4.0927

*** Psi4 exiting successfully. Buy a developer a beer!
