                               Psi4 1.4a3.dev225

  ==> Input File <==

--------------------------------------------------------------------------
#psi4
#
memory 32 gb

molecule  {
0 1
  O       -0.4387840     2.7607480     0.8353900
  O       -2.1331470    -1.1223190    -0.8372800
  N       -1.8213880     1.6463300    -0.5966440
  N       -1.3631050    -2.2953590     0.9499780
  C        0.3530890     0.6863100    -0.0267190
  C        0.1273570    -0.7062790    -0.0589400
  C        1.6757520     1.1521170    -0.0434370
  C        1.2227880    -1.5827320    -0.1454420
  C        2.7536970     0.2775120    -0.1531960
  C        2.5274700    -1.0985820    -0.2079210
  C       -0.6853200     1.7746360     0.1326930
  C       -1.2296110    -1.3487220    -0.0223170
  H        1.8350890     2.2234210     0.0367700
  H        1.0390000    -2.6541090    -0.1799310
  H        3.7675570     0.6687350    -0.1864300
  H        3.3600860    -1.7923230    -0.2949860
  H       -2.0668670     0.7647910    -1.0387640
  H       -2.4685288     2.2728455    -0.4514881
  H       -0.7232160    -2.3232030     1.7312060
  H       -2.2766340    -2.7186030     1.0611610
units angstrom
no_reorient  #important for SAPT in psi4, default
symmetry c1  #important for SAPT in psi4, default
}

set PROPERTIES_ORIGIN ["COM"]
properties('MP2/aug-cc-pvtz', properties = ['dipole'])
--------------------------------------------------------------------------

    Molecular point group: c1
  Charge       = 0
  Multiplicity = 1
  Basis Set: AUG-CC-PVTZ
    Blend: AUG-CC-PVTZ
  Basis Set: (AUG-CC-PVTZ AUX)
    Blend: AUG-CC-PVTZ-JKFIT

    Orbital Energies [Eh]
    ---------------------

    Doubly Occupied:

       1A    -20.547367     2A    -20.516610     3A    -15.609250
       4A    -15.562218     5A    -11.386586     6A    -11.358308
       7A    -11.280848     8A    -11.273289     9A    -11.265845
      10A    -11.262326    11A    -11.258694    12A    -11.255920
      13A     -1.401823    14A     -1.371760    15A     -1.237231
      16A     -1.216696    17A     -1.176363    18A     -1.056271
      19A     -1.047434    20A     -0.910522    21A     -0.873182
      22A     -0.823612    23A     -0.794317    24A     -0.764562
      25A     -0.729634    26A     -0.707105    27A     -0.694725
      28A     -0.659907    29A     -0.652008    30A     -0.632735
      31A     -0.611291    32A     -0.595916    33A     -0.581581
      34A     -0.567454    35A     -0.539713    36A     -0.523527
      37A     -0.517933    38A     -0.456444    39A     -0.441351
      40A     -0.429822    41A     -0.404733    42A     -0.363187
      43A     -0.356687

  @DF-RHF Final Energy:  -566.46508019719909

   => Energetics <=

    Nuclear Repulsion Energy =            670.4612071179680015
    One-Electron Energy =               -2102.4189983718297299
    Two-Electron Energy =                 865.4927110566625288
    Total Energy =                       -566.4650801971990859
  Basis Set: (AUG-CC-PVTZ AUX)
    Blend: AUG-CC-PVTZ-RI
    Molecular point group: c1

    Geometry (in Angstrom), charge = 0, multiplicity = 1:

       Center              X                  Y                   Z               Mass
    ------------   -----------------  -----------------  -----------------  -----------------
         O           -0.424752076775     2.740127557912     0.839674912091    15.994914619570
         O           -2.119115076775    -1.142939442088    -0.832995087909    15.994914619570
         N           -1.807356076775     1.625709557912    -0.592359087909    14.003074004430
         N           -1.349073076775    -2.315979442088     0.954262912091    14.003074004430
         C            0.367120923225     0.665689557912    -0.022434087909    12.000000000000
         C            0.141388923225    -0.726899442088    -0.054655087909    12.000000000000
         C            1.689783923225     1.131496557912    -0.039152087909    12.000000000000
         C            1.236819923225    -1.603352442088    -0.141157087909    12.000000000000
         C            2.767728923225     0.256891557912    -0.148911087909    12.000000000000
         C            2.541501923225    -1.119202442088    -0.203636087909    12.000000000000
         C           -0.671288076775     1.754015557912     0.136977912091    12.000000000000
         C           -1.215579076775    -1.369342442088    -0.018032087909    12.000000000000
         H            1.849120923225     2.202800557912     0.041054912091     1.007825032230
         H            1.053031923225    -2.674729442088    -0.175646087909     1.007825032230
         H            3.781588923225     0.648114557912    -0.182145087909     1.007825032230
         H            3.374117923225    -1.812943442088    -0.290701087909     1.007825032230
         H           -2.052835076775     0.744170557912    -1.034479087909     1.007825032230
         H           -2.454496876775     2.252225057912    -0.447203187909     1.007825032230
         H           -0.709184076775    -2.343823442088     1.735490912091     1.007825032230
         H           -2.262602076775    -2.739223442088     1.065445912091     1.007825032230

  Basis Set: AUG-CC-PVTZ
    Blend: AUG-CC-PVTZ
  Basis Set: (AUG-CC-PVTZ AUX)
    Blend: AUG-CC-PVTZ-JKFIT
	 Reference Energy          =    -566.4650801971990859 [Eh]
	 Singles Energy            =      -0.0000000000000000 [Eh]
	 Same-Spin Energy          =      -0.5961764794257096 [Eh]
	 Opposite-Spin Energy      =      -1.7881963022896399 [Eh]
	 Correlation Energy        =      -2.3843727817153493 [Eh]
	 Total Energy              =    -568.8494529789144281 [Eh]

	 ================> DF-SCS-MP2 Energies <==================
	-----------------------------------------------------------
	 SCS Same-Spin Scale       =       0.3333333333333333 [-]
	 SCS Opposite-Spin Scale   =       1.2000000000000000 [-]
	 SCS Same-Spin Energy      =      -0.1987254931419032 [Eh]
	 SCS Opposite-Spin Energy  =      -2.1458355627475676 [Eh]
	 SCS Correlation Energy    =      -2.3445610558894709 [Eh]
	 SCS Total Energy          =    -568.8096412530885573 [Eh]
	-----------------------------------------------------------

  Dipole Moment: [D]
     X:     1.0119      Y:    -4.0926      Z:     1.0128     Total:     4.3358

*** Psi4 exiting successfully. Buy a developer a beer!
