                               Psi4 1.4a3.dev225

  ==> Input File <==

--------------------------------------------------------------------------
#psi4
#
memory 32 gb

molecule  {
0 1
  O       -0.4387840     2.7607480     0.8353900
  O       -2.1331470    -1.1223190    -0.8372800
  N       -1.8213880     1.6463300    -0.5966440
  N       -1.3631050    -2.2953590     0.9499780
  C        0.3530890     0.6863100    -0.0267190
  C        0.1241577    -0.7260162    -0.0593967
  C        1.6757520     1.1521170    -0.0434370
  C        1.2227880    -1.5827320    -0.1454420
  C        2.7536970     0.2775120    -0.1531960
  C        2.5274700    -1.0985820    -0.2079210
  C       -0.6853200     1.7746360     0.1326930
  C       -1.2296110    -1.3487220    -0.0223170
  H        1.8350890     2.2234210     0.0367700
  H        1.0390000    -2.6541090    -0.1799310
  H        3.7675570     0.6687350    -0.1864300
  H        3.3600860    -1.7923230    -0.2949860
  H       -2.0668670     0.7647910    -1.0387640
  H       -2.5394600     2.3415160    -0.4355780
  H       -0.7232160    -2.3232030     1.7312060
  H       -2.2766340    -2.7186030     1.0611610
units angstrom
no_reorient  #important for SAPT in psi4, default
symmetry c1  #important for SAPT in psi4, default
}

set PROPERTIES_ORIGIN ["COM"]
properties('MP2/aug-cc-pvtz', properties = ['dipole'])
--------------------------------------------------------------------------

    Molecular point group: c1
  Charge       = 0
  Multiplicity = 1
  Basis Set: AUG-CC-PVTZ
    Blend: AUG-CC-PVTZ
  Basis Set: (AUG-CC-PVTZ AUX)
    Blend: AUG-CC-PVTZ-JKFIT

    Orbital Energies [Eh]
    ---------------------

    Doubly Occupied:

       1A    -20.547178     2A    -20.515112     3A    -15.608746
       4A    -15.571686     5A    -11.385713     6A    -11.357451
       7A    -11.280595     8A    -11.275177     9A    -11.265223
      10A    -11.262192    11A    -11.259009    12A    -11.255815
      13A     -1.401737    14A     -1.369363    15A     -1.237250
      16A     -1.203268    17A     -1.174280    18A     -1.055399
      19A     -1.047102    20A     -0.910216    21A     -0.869675
      22A     -0.820183    23A     -0.787721    24A     -0.764035
      25A     -0.724234    26A     -0.703320    27A     -0.687267
      28A     -0.657482    29A     -0.649328    30A     -0.631788
      31A     -0.612293    32A     -0.592945    33A     -0.580602
      34A     -0.566483    35A     -0.539516    36A     -0.521289
      37A     -0.516997    38A     -0.456980    39A     -0.440962
      40A     -0.429011    41A     -0.402353    42A     -0.362738
      43A     -0.356040

  @DF-RHF Final Energy:  -566.47098839831665

   => Energetics <=

    Nuclear Repulsion Energy =            669.7041870341855656
    One-Electron Energy =               -2101.0388420700751340
    Two-Electron Energy =                 864.8636666375730329
    Total Energy =                       -566.4709883983166492
  Basis Set: (AUG-CC-PVTZ AUX)
    Blend: AUG-CC-PVTZ-RI
    Molecular point group: c1

    Geometry (in Angstrom), charge = 0, multiplicity = 1:

       Center              X                  Y                   Z               Mass
    ------------   -----------------  -----------------  -----------------  -----------------
         O           -0.424082329172     2.741149379225     0.839610580209    15.994914619570
         O           -2.118445329172    -1.141917620775    -0.833059419791    15.994914619570
         N           -1.806686329172     1.626731379225    -0.592423419791    14.003074004430
         N           -1.348403329172    -2.314957620775     0.954198580209    14.003074004430
         C            0.367790670828     0.666711379225    -0.022498419791    12.000000000000
         C            0.138859370828    -0.745614820775    -0.055176119791    12.000000000000
         C            1.690453670828     1.132518379225    -0.039216419791    12.000000000000
         C            1.237489670828    -1.602330620775    -0.141221419791    12.000000000000
         C            2.768398670828     0.257913379225    -0.148975419791    12.000000000000
         C            2.542171670828    -1.118180620775    -0.203700419791    12.000000000000
         C           -0.670618329172     1.755037379225     0.136913580209    12.000000000000
         C           -1.214909329172    -1.368320620775    -0.018096419791    12.000000000000
         H            1.849790670828     2.203822379225     0.040990580209     1.007825032230
         H            1.053701670828    -2.673707620775    -0.175710419791     1.007825032230
         H            3.782258670828     0.649136379225    -0.182209419791     1.007825032230
         H            3.374787670828    -1.811921620775    -0.290765419791     1.007825032230
         H           -2.052165329172     0.745192379225    -1.034543419791     1.007825032230
         H           -2.524758329172     2.321917379225    -0.431357419791     1.007825032230
         H           -0.708514329172    -2.342801620775     1.735426580209     1.007825032230
         H           -2.261932329172    -2.738201620775     1.065381580209     1.007825032230

  Basis Set: AUG-CC-PVTZ
    Blend: AUG-CC-PVTZ
  Basis Set: (AUG-CC-PVTZ AUX)
    Blend: AUG-CC-PVTZ-JKFIT
	 Reference Energy          =    -566.4709883983166492 [Eh]
	 Singles Energy            =      -0.0000000000000000 [Eh]
	 Same-Spin Energy          =      -0.5969462285384195 [Eh]
	 Opposite-Spin Energy      =      -1.7899287765982994 [Eh]
	 Correlation Energy        =      -2.3868750051367189 [Eh]
	 Total Energy              =    -568.8578634034533934 [Eh]

	 ================> DF-SCS-MP2 Energies <==================
	-----------------------------------------------------------
	 SCS Same-Spin Scale       =       0.3333333333333333 [-]
	 SCS Opposite-Spin Scale   =       1.2000000000000000 [-]
	 SCS Same-Spin Energy      =      -0.1989820761794732 [Eh]
	 SCS Opposite-Spin Energy  =      -2.1479145319179591 [Eh]
	 SCS Correlation Energy    =      -2.3468966080974321 [Eh]
	 SCS Total Energy          =    -568.8178850064140306 [Eh]
	-----------------------------------------------------------

  Dipole Moment: [D]
     X:     0.9466      Y:    -4.0293      Z:     1.0115     Total:     4.2608

*** Psi4 exiting successfully. Buy a developer a beer!
