                               Psi4 1.4a3.dev225

  ==> Input File <==

--------------------------------------------------------------------------
#psi4
#
memory 32 gb

molecule  {
0 1
  O       -0.4387840     2.7607480     0.8353900
  O       -2.1331470    -1.1223190    -0.8372800
  N       -1.8213880     1.6463300    -0.5966440
  N       -1.3631050    -2.2953590     0.9499780
  C        0.3530890     0.6863100    -0.0267190
  C        0.1273570    -0.7062790    -0.0589400
  C        1.6757520     1.1521170    -0.0434370
  C        1.2227880    -1.5827320    -0.1454420
  C        2.7776492     0.2734267    -0.1549055
  C        2.5274700    -1.0985820    -0.2079210
  C       -0.6853200     1.7746360     0.1326930
  C       -1.2296110    -1.3487220    -0.0223170
  H        1.8350890     2.2234210     0.0367700
  H        1.0390000    -2.6541090    -0.1799310
  H        3.7675570     0.6687350    -0.1864300
  H        3.3600860    -1.7923230    -0.2949860
  H       -2.0668670     0.7647910    -1.0387640
  H       -2.5394600     2.3415160    -0.4355780
  H       -0.7232160    -2.3232030     1.7312060
  H       -2.2766340    -2.7186030     1.0611610
units angstrom
no_reorient  #important for SAPT in psi4, default
symmetry c1  #important for SAPT in psi4, default
}

set PROPERTIES_ORIGIN ["COM"]
properties('MP2/aug-cc-pvtz', properties = ['dipole'])
--------------------------------------------------------------------------

    Molecular point group: c1
  Charge       = 0
  Multiplicity = 1
  Basis Set: AUG-CC-PVTZ
    Blend: AUG-CC-PVTZ
  Basis Set: (AUG-CC-PVTZ AUX)
    Blend: AUG-CC-PVTZ-JKFIT

    Orbital Energies [Eh]
    ---------------------

    Doubly Occupied:

       1A    -20.547145     2A    -20.515074     3A    -15.609037
       4A    -15.571740     5A    -11.386347     6A    -11.357468
       7A    -11.280923     8A    -11.272958     9A    -11.265707
      10A    -11.262268    11A    -11.259457    12A    -11.258155
      13A     -1.401539    14A     -1.369363    15A     -1.236906
      16A     -1.203431    17A     -1.173267    18A     -1.055261
      19A     -1.045159    20A     -0.908098    21A     -0.869043
      22A     -0.822396    23A     -0.788067    24A     -0.763671
      25A     -0.724976    26A     -0.702332    27A     -0.687372
      28A     -0.659929    29A     -0.649053    30A     -0.632049
      31A     -0.610274    32A     -0.592767    33A     -0.580716
      34A     -0.567064    35A     -0.540889    36A     -0.522084
      37A     -0.516040    38A     -0.455980    39A     -0.440985
      40A     -0.428928    41A     -0.402376    42A     -0.362397
      43A     -0.355194

  @DF-RHF Final Energy:  -566.47086923504412

   => Energetics <=

    Nuclear Repulsion Energy =            669.3275465641203255
    One-Electron Energy =               -2100.2890540860962574
    Two-Electron Energy =                 864.4906382869316985
    Total Energy =                       -566.4708692350441197
  Basis Set: (AUG-CC-PVTZ AUX)
    Blend: AUG-CC-PVTZ-RI
    Molecular point group: c1

    Geometry (in Angstrom), charge = 0, multiplicity = 1:

       Center              X                  Y                   Z               Mass
    ------------   -----------------  -----------------  -----------------  -----------------
         O           -0.426068314940     2.740004527168     0.839702215772    15.994914619570
         O           -2.120431314940    -1.143062472832    -0.832967784228    15.994914619570
         N           -1.808672314940     1.625586527168    -0.592331784228    14.003074004430
         N           -1.350389314940    -2.316102472832     0.954290215772    14.003074004430
         C            0.365804685060     0.665566527168    -0.022406784228    12.000000000000
         C            0.140072685060    -0.727022472832    -0.054627784228    12.000000000000
         C            1.688467685060     1.131373527168    -0.039124784228    12.000000000000
         C            1.235503685060    -1.603475472832    -0.141129784228    12.000000000000
         C            2.790364885060     0.252683227168    -0.150593284228    12.000000000000
         C            2.540185685060    -1.119325472832    -0.203608784228    12.000000000000
         C           -0.672604314940     1.753892527168     0.137005215772    12.000000000000
         C           -1.216895314940    -1.369465472832    -0.018004784228    12.000000000000
         H            1.847804685060     2.202677527168     0.041082215772     1.007825032230
         H            1.051715685060    -2.674852472832    -0.175618784228     1.007825032230
         H            3.780272685060     0.647991527168    -0.182117784228     1.007825032230
         H            3.372801685060    -1.813066472832    -0.290673784228     1.007825032230
         H           -2.054151314940     0.744047527168    -1.034451784228     1.007825032230
         H           -2.526744314940     2.320772527168    -0.431265784228     1.007825032230
         H           -0.710500314940    -2.343946472832     1.735518215772     1.007825032230
         H           -2.263918314940    -2.739346472832     1.065473215772     1.007825032230

  Basis Set: AUG-CC-PVTZ
    Blend: AUG-CC-PVTZ
  Basis Set: (AUG-CC-PVTZ AUX)
    Blend: AUG-CC-PVTZ-JKFIT
	 Reference Energy          =    -566.4708692350441197 [Eh]
	 Singles Energy            =      -0.0000000000000000 [Eh]
	 Same-Spin Energy          =      -0.5967931703118134 [Eh]
	 Opposite-Spin Energy      =      -1.7898452746677798 [Eh]
	 Correlation Energy        =      -2.3866384449795932 [Eh]
	 Total Energy              =    -568.8575076800236729 [Eh]

	 ================> DF-SCS-MP2 Energies <==================
	-----------------------------------------------------------
	 SCS Same-Spin Scale       =       0.3333333333333333 [-]
	 SCS Opposite-Spin Scale   =       1.2000000000000000 [-]
	 SCS Same-Spin Energy      =      -0.1989310567706045 [Eh]
	 SCS Opposite-Spin Energy  =      -2.1478143296013354 [Eh]
	 SCS Correlation Energy    =      -2.3467453863719401 [Eh]
	 SCS Total Energy          =    -568.8176146214160553 [Eh]
	-----------------------------------------------------------

  Dipole Moment: [D]
     X:     0.9397      Y:    -4.0207      Z:     1.0153     Total:     4.2520

*** Psi4 exiting successfully. Buy a developer a beer!
