                               Psi4 1.4a3.dev225

  ==> Input File <==

--------------------------------------------------------------------------
#psi4
#
memory 32 gb

molecule  {
0 1
  O       -0.4387840     2.7607480     0.8353900
  O       -2.1331470    -1.1223190    -0.8372800
  N       -1.8213880     1.6463300    -0.5966440
  N       -1.3631050    -2.2953590     0.9499780
  C        0.3530890     0.6863100    -0.0267190
  C        0.1273570    -0.7062790    -0.0589400
  C        1.6757520     1.1521170    -0.0434370
  C        1.2227880    -1.5827320    -0.1454420
  C        2.7536970     0.2775120    -0.1531960
  C        2.5274700    -1.0985820    -0.2079210
  C       -0.6853200     1.7746360     0.1326930
  C       -1.2296110    -1.3487220    -0.0223170
  H        1.8350890     2.2234210     0.0367700
  H        1.0390000    -2.6541090    -0.1799310
  H        3.7675570     0.6687350    -0.1864300
  H        3.3600860    -1.7923230    -0.2949860
  H       -2.0668670     0.7647910    -1.0387640
  H       -2.5394600     2.3415160    -0.4355780
  H       -0.7232160    -2.3232030     1.7312060
  H       -2.2946713    -2.7269598     1.0633563
units angstrom
no_reorient  #important for SAPT in psi4, default
symmetry c1  #important for SAPT in psi4, default
}

set PROPERTIES_ORIGIN ["COM"]
properties('MP2/aug-cc-pvtz', properties = ['dipole'])
--------------------------------------------------------------------------

    Molecular point group: c1
  Charge       = 0
  Multiplicity = 1
  Basis Set: AUG-CC-PVTZ
    Blend: AUG-CC-PVTZ
  Basis Set: (AUG-CC-PVTZ AUX)
    Blend: AUG-CC-PVTZ-JKFIT

    Orbital Energies [Eh]
    ---------------------

    Doubly Occupied:

       1A    -20.546842     2A    -20.515262     3A    -15.610631
       4A    -15.571772     5A    -11.386130     6A    -11.357496
       7A    -11.280546     8A    -11.273220     9A    -11.265512
      10A    -11.261998    11A    -11.258387    12A    -11.255595
      13A     -1.401087    14A     -1.369507    15A     -1.234703
      16A     -1.203535    17A     -1.174716    18A     -1.055075
      19A     -1.046559    20A     -0.907528    21A     -0.868881
      22A     -0.821529    23A     -0.787325    24A     -0.762995
      25A     -0.722610    26A     -0.700532    27A     -0.686420
      28A     -0.659227    29A     -0.648864    30A     -0.631471
      31A     -0.610637    32A     -0.592704    33A     -0.580675
      34A     -0.566379    35A     -0.538833    36A     -0.522979
      37A     -0.517215    38A     -0.455670    39A     -0.440576
      40A     -0.428930    41A     -0.402431    42A     -0.362816
      43A     -0.356260

  @DF-RHF Final Energy:  -566.47080142654204

   => Energetics <=

    Nuclear Repulsion Energy =            669.6844830284167074
    One-Electron Energy =               -2101.0264472493204266
    Two-Electron Energy =                 864.8711627943616804
    Total Energy =                       -566.4708014265420388
  Basis Set: (AUG-CC-PVTZ AUX)
    Blend: AUG-CC-PVTZ-RI
    Molecular point group: c1

    Geometry (in Angstrom), charge = 0, multiplicity = 1:

       Center              X                  Y                   Z               Mass
    ------------   -----------------  -----------------  -----------------  -----------------
         O           -0.424205536126     2.739757046004     0.839563689163    15.994914619570
         O           -2.118568536126    -1.143309953996    -0.833106310837    15.994914619570
         N           -1.806809536126     1.625339046004    -0.592470310837    14.003074004430
         N           -1.348526536126    -2.316349953996     0.954151689163    14.003074004430
         C            0.367667463874     0.665319046004    -0.022545310837    12.000000000000
         C            0.141935463874    -0.727269953996    -0.054766310837    12.000000000000
         C            1.690330463874     1.131126046004    -0.039263310837    12.000000000000
         C            1.237366463874    -1.603722953996    -0.141268310837    12.000000000000
         C            2.768275463874     0.256521046004    -0.149022310837    12.000000000000
         C            2.542048463874    -1.119572953996    -0.203747310837    12.000000000000
         C           -0.670741536126     1.753645046004     0.136866689163    12.000000000000
         C           -1.215032536126    -1.369712953996    -0.018143310837    12.000000000000
         H            1.849667463874     2.202430046004     0.040943689163     1.007825032230
         H            1.053578463874    -2.675099953996    -0.175757310837     1.007825032230
         H            3.782135463874     0.647744046004    -0.182256310837     1.007825032230
         H            3.374664463874    -1.813313953996    -0.290812310837     1.007825032230
         H           -2.052288536126     0.743800046004    -1.034590310837     1.007825032230
         H           -2.524881536126     2.320525046004    -0.431404310837     1.007825032230
         H           -0.708637536126    -2.344193953996     1.735379689163     1.007825032230
         H           -2.280092836126    -2.747950753996     1.067529989163     1.007825032230

  Basis Set: AUG-CC-PVTZ
    Blend: AUG-CC-PVTZ
  Basis Set: (AUG-CC-PVTZ AUX)
    Blend: AUG-CC-PVTZ-JKFIT
	 Reference Energy          =    -566.4708014265420388 [Eh]
	 Singles Energy            =      -0.0000000000000000 [Eh]
	 Same-Spin Energy          =      -0.5969517133476191 [Eh]
	 Opposite-Spin Energy      =      -1.7900418080512674 [Eh]
	 Correlation Energy        =      -2.3869935213988867 [Eh]
	 Total Energy              =    -568.8577949479408744 [Eh]

	 ================> DF-SCS-MP2 Energies <==================
	-----------------------------------------------------------
	 SCS Same-Spin Scale       =       0.3333333333333333 [-]
	 SCS Opposite-Spin Scale   =       1.2000000000000000 [-]
	 SCS Same-Spin Energy      =      -0.1989839044492064 [Eh]
	 SCS Opposite-Spin Energy  =      -2.1480501696615208 [Eh]
	 SCS Correlation Energy    =      -2.3470340741107272 [Eh]
	 SCS Total Energy          =    -568.8178355006527909 [Eh]
	-----------------------------------------------------------

  Dipole Moment: [D]
     X:     0.9115      Y:    -4.0422      Z:     1.0181     Total:     4.2670

*** Psi4 exiting successfully. Buy a developer a beer!
