                               Psi4 1.4a3.dev225

  ==> Input File <==

--------------------------------------------------------------------------
#psi4
#
memory 32 gb

molecule  {
0 1
  O       -0.4387840     2.7607480     0.8353900
  O       -2.1331470    -1.1223190    -0.8372800
  N       -1.8213880     1.6463300    -0.5966440
  N       -1.3631050    -2.2953590     0.9499780
  C        0.3530890     0.6863100    -0.0267190
  C        0.1273570    -0.7062790    -0.0589400
  C        1.6757520     1.1521170    -0.0434370
  C        1.2227880    -1.5827320    -0.1454420
  C        2.7536970     0.2775120    -0.1531960
  C        2.5274700    -1.0985820    -0.2079210
  C       -0.6853200     1.7746360     0.1326930
  C       -1.2661128    -1.3395756    -0.0552406
  H        1.8350890     2.2234210     0.0367700
  H        1.0390000    -2.6541090    -0.1799310
  H        3.7675570     0.6687350    -0.1864300
  H        3.3600860    -1.7923230    -0.2949860
  H       -2.0668670     0.7647910    -1.0387640
  H       -2.5394600     2.3415160    -0.4355780
  H       -0.7232160    -2.3232030     1.7312060
  H       -2.2766340    -2.7186030     1.0611610
units angstrom
no_reorient  #important for SAPT in psi4, default
symmetry c1  #important for SAPT in psi4, default
}

set PROPERTIES_ORIGIN ["COM"]
properties('MP2/aug-cc-pvtz', properties = ['dipole'])
--------------------------------------------------------------------------

    Molecular point group: c1
  Charge       = 0
  Multiplicity = 1
  Basis Set: AUG-CC-PVTZ
    Blend: AUG-CC-PVTZ
  Basis Set: (AUG-CC-PVTZ AUX)
    Blend: AUG-CC-PVTZ-JKFIT

    Orbital Energies [Eh]
    ---------------------

    Doubly Occupied:

       1A    -20.557223     2A    -20.515929     3A    -15.601221
       4A    -15.574106     5A    -11.385261     6A    -11.358048
       7A    -11.279342     8A    -11.270938     9A    -11.263438
      10A    -11.260645    11A    -11.256532    12A    -11.254183
      13A     -1.435847    14A     -1.370256    15A     -1.228098
      16A     -1.205390    17A     -1.172375    18A     -1.051680
      19A     -1.044082    20A     -0.902647    21A     -0.867203
      22A     -0.818483    23A     -0.785803    24A     -0.763371
      25A     -0.722449    26A     -0.700186    27A     -0.688080
      28A     -0.663295    29A     -0.651923    30A     -0.635765
      31A     -0.613634    32A     -0.597301    33A     -0.586766
      34A     -0.567718    35A     -0.541315    36A     -0.521612
      37A     -0.516198    38A     -0.457870    39A     -0.442167
      40A     -0.429492    41A     -0.404668    42A     -0.361361
      43A     -0.354869

  @DF-RHF Final Energy:  -566.47170392707483

   => Energetics <=

    Nuclear Repulsion Energy =            669.8586545030123034
    One-Electron Energy =               -2101.3031754772100612
    Two-Electron Energy =                 864.9728170471229305
    Total Energy =                       -566.4717039270748273
  Basis Set: (AUG-CC-PVTZ AUX)
    Blend: AUG-CC-PVTZ-RI
    Molecular point group: c1

    Geometry (in Angstrom), charge = 0, multiplicity = 1:

       Center              X                  Y                   Z               Mass
    ------------   -----------------  -----------------  -----------------  -----------------
         O           -0.421646430934     2.739036699686     0.841985358815    15.994914619570
         O           -2.116009430934    -1.144030300314    -0.830684641185    15.994914619570
         N           -1.804250430934     1.624618699686    -0.590048641185    14.003074004430
         N           -1.345967430934    -2.317070300314     0.956573358815    14.003074004430
         C            0.370226569066     0.664598699686    -0.020123641185    12.000000000000
         C            0.144494569066    -0.727990300314    -0.052344641185    12.000000000000
         C            1.692889569066     1.130405699686    -0.036841641185    12.000000000000
         C            1.239925569066    -1.604443300314    -0.138846641185    12.000000000000
         C            2.770834569066     0.255800699686    -0.146600641185    12.000000000000
         C            2.544607569066    -1.120293300314    -0.201325641185    12.000000000000
         C           -0.668182430934     1.752924699686     0.139288358815    12.000000000000
         C           -1.248975230934    -1.361286900314    -0.048645241185    12.000000000000
         H            1.852226569066     2.201709699686     0.043365358815     1.007825032230
         H            1.056137569066    -2.675820300314    -0.173335641185     1.007825032230
         H            3.784694569066     0.647023699686    -0.179834641185     1.007825032230
         H            3.377223569066    -1.814034300314    -0.288390641185     1.007825032230
         H           -2.049729430934     0.743079699686    -1.032168641185     1.007825032230
         H           -2.522322430934     2.319804699686    -0.428982641185     1.007825032230
         H           -0.706078430934    -2.344914300314     1.737801358815     1.007825032230
         H           -2.259496430934    -2.740314300314     1.067756358815     1.007825032230

  Basis Set: AUG-CC-PVTZ
    Blend: AUG-CC-PVTZ
  Basis Set: (AUG-CC-PVTZ AUX)
    Blend: AUG-CC-PVTZ-JKFIT
	 Reference Energy          =    -566.4717039270748273 [Eh]
	 Singles Energy            =      -0.0000000000000000 [Eh]
	 Same-Spin Energy          =      -0.5956566658013684 [Eh]
	 Opposite-Spin Energy      =      -1.7875859569438075 [Eh]
	 Correlation Energy        =      -2.3832426227451760 [Eh]
	 Total Energy              =    -568.8549465498200561 [Eh]

	 ================> DF-SCS-MP2 Energies <==================
	-----------------------------------------------------------
	 SCS Same-Spin Scale       =       0.3333333333333333 [-]
	 SCS Opposite-Spin Scale   =       1.2000000000000000 [-]
	 SCS Same-Spin Energy      =      -0.1985522219337895 [Eh]
	 SCS Opposite-Spin Energy  =      -2.1451031483325691 [Eh]
	 SCS Correlation Energy    =      -2.3436553702663585 [Eh]
	 SCS Total Energy          =    -568.8153592973411605 [Eh]
	-----------------------------------------------------------

  Dipole Moment: [D]
     X:     0.7010      Y:    -3.8916      Z:     0.7443     Total:     4.0236

*** Psi4 exiting successfully. Buy a developer a beer!
