                               Psi4 1.4a3.dev225

  ==> Input File <==

--------------------------------------------------------------------------
#psi4
#
memory 32 gb

molecule  {
0 1
  O       -0.4387840     2.7607480     0.8353900
  O       -2.1331470    -1.1223190    -0.8372800
  N       -1.8213880     1.6463300    -0.5966440
  N       -1.3631050    -2.2953590     0.9499780
  C        0.3530890     0.6863100    -0.0267190
  C        0.1273570    -0.7062790    -0.0589400
  C        1.6457900     1.1138472    -0.0435063
  C        1.2227880    -1.5827320    -0.1454420
  C        2.7536970     0.2775120    -0.1531960
  C        2.5274700    -1.0985820    -0.2079210
  C       -0.6853200     1.7746360     0.1326930
  C       -1.2296110    -1.3487220    -0.0223170
  H        1.8350890     2.2234210     0.0367700
  H        1.0390000    -2.6541090    -0.1799310
  H        3.7675570     0.6687350    -0.1864300
  H        3.3600860    -1.7923230    -0.2949860
  H       -2.0668670     0.7647910    -1.0387640
  H       -2.5394600     2.3415160    -0.4355780
  H       -0.7232160    -2.3232030     1.7312060
  H       -2.2766340    -2.7186030     1.0611610
units angstrom
no_reorient  #important for SAPT in psi4, default
symmetry c1  #important for SAPT in psi4, default
}

set PROPERTIES_ORIGIN ["COM"]
properties('MP2/aug-cc-pvtz', properties = ['dipole'])
--------------------------------------------------------------------------

    Molecular point group: c1
  Charge       = 0
  Multiplicity = 1
  Basis Set: AUG-CC-PVTZ
    Blend: AUG-CC-PVTZ
  Basis Set: (AUG-CC-PVTZ AUX)
    Blend: AUG-CC-PVTZ-JKFIT

    Orbital Energies [Eh]
    ---------------------

    Doubly Occupied:

       1A    -20.546931     2A    -20.515274     3A    -15.608821
       4A    -15.572053     5A    -11.385942     6A    -11.357768
       7A    -11.280453     8A    -11.268472     9A    -11.265184
      10A    -11.261788    11A    -11.258529    12A    -11.253903
      13A     -1.401348    14A     -1.369531    15A     -1.236771
      16A     -1.204086    17A     -1.178821    18A     -1.056448
      19A     -1.049017    20A     -0.908937    21A     -0.868406
      22A     -0.820882    23A     -0.789519    24A     -0.763531
      25A     -0.725182    26A     -0.701081    27A     -0.688089
      28A     -0.658832    29A     -0.647989    30A     -0.632595
      31A     -0.606151    32A     -0.594315    33A     -0.580979
      34A     -0.567204    35A     -0.544061    36A     -0.519734
      37A     -0.512773    38A     -0.456066    39A     -0.440759
      40A     -0.429286    41A     -0.402386    42A     -0.362495
      43A     -0.359802

  @DF-RHF Final Energy:  -566.46902593312166

   => Energetics <=

    Nuclear Repulsion Energy =            670.7388672812743380
    One-Electron Energy =               -2103.1113956074455018
    Two-Electron Energy =                 865.9035023930493935
    Total Energy =                       -566.4690259331216566
  Basis Set: (AUG-CC-PVTZ AUX)
    Blend: AUG-CC-PVTZ-RI
    Molecular point group: c1

    Geometry (in Angstrom), charge = 0, multiplicity = 1:

       Center              X                  Y                   Z               Mass
    ------------   -----------------  -----------------  -----------------  -----------------
         O           -0.422124782027     2.742504938949     0.839582243989    15.994914619570
         O           -2.116487782027    -1.140562061051    -0.833087756011    15.994914619570
         N           -1.804728782027     1.628086938949    -0.592451756011    14.003074004430
         N           -1.346445782027    -2.313602061051     0.954170243989    14.003074004430
         C            0.369748217973     0.668066938949    -0.022526756011    12.000000000000
         C            0.144016217973    -0.724522061051    -0.054747756011    12.000000000000
         C            1.662449217973     1.095604138949    -0.039314056011    12.000000000000
         C            1.239447217973    -1.600975061051    -0.141249756011    12.000000000000
         C            2.770356217973     0.259268938949    -0.149003756011    12.000000000000
         C            2.544129217973    -1.116825061051    -0.203728756011    12.000000000000
         C           -0.668660782027     1.756392938949     0.136885243989    12.000000000000
         C           -1.212951782027    -1.366965061051    -0.018124756011    12.000000000000
         H            1.851748217973     2.205177938949     0.040962243989     1.007825032230
         H            1.055659217973    -2.672352061051    -0.175738756011     1.007825032230
         H            3.784216217973     0.650491938949    -0.182237756011     1.007825032230
         H            3.376745217973    -1.810566061051    -0.290793756011     1.007825032230
         H           -2.050207782027     0.746547938949    -1.034571756011     1.007825032230
         H           -2.522800782027     2.323272938949    -0.431385756011     1.007825032230
         H           -0.706556782027    -2.341446061051     1.735398243989     1.007825032230
         H           -2.259974782027    -2.736846061051     1.065353243989     1.007825032230

  Basis Set: AUG-CC-PVTZ
    Blend: AUG-CC-PVTZ
  Basis Set: (AUG-CC-PVTZ AUX)
    Blend: AUG-CC-PVTZ-JKFIT
	 Reference Energy          =    -566.4690259331216566 [Eh]
	 Singles Energy            =      -0.0000000000000000 [Eh]
	 Same-Spin Energy          =      -0.5969427220069032 [Eh]
	 Opposite-Spin Energy      =      -1.7898085832642550 [Eh]
	 Correlation Energy        =      -2.3867513052711580 [Eh]
	 Total Energy              =    -568.8557772383927613 [Eh]

	 ================> DF-SCS-MP2 Energies <==================
	-----------------------------------------------------------
	 SCS Same-Spin Scale       =       0.3333333333333333 [-]
	 SCS Opposite-Spin Scale   =       1.2000000000000000 [-]
	 SCS Same-Spin Energy      =      -0.1989809073356344 [Eh]
	 SCS Opposite-Spin Energy  =      -2.1477702999171058 [Eh]
	 SCS Correlation Energy    =      -2.3467512072527401 [Eh]
	 SCS Total Energy          =    -568.8157771403743936 [Eh]
	-----------------------------------------------------------

  Dipole Moment: [D]
     X:     0.9367      Y:    -4.0364      Z:     1.0129     Total:     4.2657

*** Psi4 exiting successfully. Buy a developer a beer!
