                               Psi4 1.4a3.dev225

  ==> Input File <==

--------------------------------------------------------------------------
#psi4
#
memory 32 gb

molecule  {
0 1
  O       -0.4387840     2.7607480     0.8353900
  O       -2.1331470    -1.1223190    -0.8372800
  N       -1.8213880     1.6463300    -0.5966440
  N       -1.3631050    -2.2953590     0.9499780
  C        0.3530890     0.6863100    -0.0267190
  C        0.1273570    -0.7062790    -0.0589400
  C        1.6757520     1.1521170    -0.0434370
  C        1.2227880    -1.5827320    -0.1454420
  C        2.7536970     0.2775120    -0.1531960
  C        2.5274700    -1.0985820    -0.2079210
  C       -0.6853200     1.7746360     0.1326930
  C       -1.2296110    -1.3487220    -0.0223170
  H        1.8350890     2.2234210     0.0367700
  H        1.0390000    -2.6541090    -0.1799310
  H        3.7675570     0.6687350    -0.1864300
  H        3.3600860    -1.7923230    -0.2949860
  H       -2.0668670     0.7647910    -1.0387640
  H       -2.5536462     2.3552501    -0.4323960
  H       -0.7232160    -2.3232030     1.7312060
  H       -2.2766340    -2.7186030     1.0611610
units angstrom
no_reorient  #important for SAPT in psi4, default
symmetry c1  #important for SAPT in psi4, default
}

set PROPERTIES_ORIGIN ["COM"]
properties('MP2/aug-cc-pvtz', properties = ['dipole'])
--------------------------------------------------------------------------

    Molecular point group: c1
  Charge       = 0
  Multiplicity = 1
  Basis Set: AUG-CC-PVTZ
    Blend: AUG-CC-PVTZ
  Basis Set: (AUG-CC-PVTZ AUX)
    Blend: AUG-CC-PVTZ-JKFIT

    Orbital Energies [Eh]
    ---------------------

    Doubly Occupied:

       1A    -20.547040     2A    -20.515069     3A    -15.608937
       4A    -15.573574     5A    -11.386229     6A    -11.357412
       7A    -11.280505     8A    -11.273279     9A    -11.265529
      10A    -11.262012    11A    -11.258393    12A    -11.255598
      13A     -1.401420    14A     -1.369181    15A     -1.236830
      16A     -1.201549    17A     -1.174635    18A     -1.055204
      19A     -1.046564    20A     -0.908041    21A     -0.868442
      22A     -0.822207    23A     -0.786359    24A     -0.763805
      25A     -0.723362    26A     -0.702168    27A     -0.684244
      28A     -0.659470    29A     -0.648326    30A     -0.631538
      31A     -0.610907    32A     -0.592067    33A     -0.580880
      34A     -0.566273    35A     -0.538757    36A     -0.522990
      37A     -0.517177    38A     -0.455738    39A     -0.440896
      40A     -0.428866    41A     -0.402087    42A     -0.362837
      43A     -0.356252

  @DF-RHF Final Energy:  -566.47079592388036

   => Energetics <=

    Nuclear Repulsion Energy =            669.6799949690483800
    One-Electron Energy =               -2101.0162852723092328
    Two-Electron Energy =                 864.8654943793803795
    Total Energy =                       -566.4707959238803596
  Basis Set: (AUG-CC-PVTZ AUX)
    Blend: AUG-CC-PVTZ-RI
    Molecular point group: c1

    Geometry (in Angstrom), charge = 0, multiplicity = 1:

       Center              X                  Y                   Z               Mass
    ------------   -----------------  -----------------  -----------------  -----------------
         O           -0.424229193743     2.739621339829     0.839557627786    15.994914619570
         O           -2.118592193743    -1.143445660171    -0.833112372214    15.994914619570
         N           -1.806833193743     1.625203339829    -0.592476372214    14.003074004430
         N           -1.348550193743    -2.316485660171     0.954145627786    14.003074004430
         C            0.367643806257     0.665183339829    -0.022551372214    12.000000000000
         C            0.141911806257    -0.727405660171    -0.054772372214    12.000000000000
         C            1.690306806257     1.130990339829    -0.039269372214    12.000000000000
         C            1.237342806257    -1.603858660171    -0.141274372214    12.000000000000
         C            2.768251806257     0.256385339829    -0.149028372214    12.000000000000
         C            2.542024806257    -1.119708660171    -0.203753372214    12.000000000000
         C           -0.670765193743     1.753509339829     0.136860627786    12.000000000000
         C           -1.215056193743    -1.369848660171    -0.018149372214    12.000000000000
         H            1.849643806257     2.202294339829     0.040937627786     1.007825032230
         H            1.053554806257    -2.675235660171    -0.175763372214     1.007825032230
         H            3.782111806257     0.647608339829    -0.182262372214     1.007825032230
         H            3.374640806257    -1.813449660171    -0.290818372214     1.007825032230
         H           -2.052312193743     0.743664339829    -1.034596372214     1.007825032230
         H           -2.539091393743     2.334123439829    -0.428228372214     1.007825032230
         H           -0.708661193743    -2.344329660171     1.735373627786     1.007825032230
         H           -2.262079193743    -2.739729660171     1.065328627786     1.007825032230

  Basis Set: AUG-CC-PVTZ
    Blend: AUG-CC-PVTZ
  Basis Set: (AUG-CC-PVTZ AUX)
    Blend: AUG-CC-PVTZ-JKFIT
	 Reference Energy          =    -566.4707959238803596 [Eh]
	 Singles Energy            =      -0.0000000000000000 [Eh]
	 Same-Spin Energy          =      -0.5969528618312924 [Eh]
	 Opposite-Spin Energy      =      -1.7900529964384211 [Eh]
	 Correlation Energy        =      -2.3870058582697133 [Eh]
	 Total Energy              =    -568.8578017821500907 [Eh]

	 ================> DF-SCS-MP2 Energies <==================
	-----------------------------------------------------------
	 SCS Same-Spin Scale       =       0.3333333333333333 [-]
	 SCS Opposite-Spin Scale   =       1.2000000000000000 [-]
	 SCS Same-Spin Energy      =      -0.1989842872770974 [Eh]
	 SCS Opposite-Spin Energy  =      -2.1480635957261054 [Eh]
	 SCS Correlation Energy    =      -2.3470478830032029 [Eh]
	 SCS Total Energy          =    -568.8178438068836158 [Eh]
	-----------------------------------------------------------

  Dipole Moment: [D]
     X:     0.9139      Y:    -4.0183      Z:     1.0149     Total:     4.2440

*** Psi4 exiting successfully. Buy a developer a beer!
