                               Psi4 1.4a3.dev225

  ==> Input File <==

--------------------------------------------------------------------------
#psi4
#
memory 32 gb

molecule  {
0 1
  O       -0.4387840     2.7607480     0.8353900
  O       -2.1331470    -1.1223190    -0.8372800
  N       -1.8213880     1.6463300    -0.5966440
  N       -1.3631050    -2.2953590     0.9499780
  C        0.3530890     0.6863100    -0.0267190
  C        0.1273570    -0.7062790    -0.0589400
  C        1.7229095     1.1687246    -0.0440331
  C        1.2227880    -1.5827320    -0.1454420
  C        2.7536970     0.2775120    -0.1531960
  C        2.5274700    -1.0985820    -0.2079210
  C       -0.6853200     1.7746360     0.1326930
  C       -1.2296110    -1.3487220    -0.0223170
  H        1.8350890     2.2234210     0.0367700
  H        1.0390000    -2.6541090    -0.1799310
  H        3.7675570     0.6687350    -0.1864300
  H        3.3600860    -1.7923230    -0.2949860
  H       -2.0668670     0.7647910    -1.0387640
  H       -2.5394600     2.3415160    -0.4355780
  H       -0.7232160    -2.3232030     1.7312060
  H       -2.2766340    -2.7186030     1.0611610
units angstrom
no_reorient  #important for SAPT in psi4, default
symmetry c1  #important for SAPT in psi4, default
}

set PROPERTIES_ORIGIN ["COM"]
properties('MP2/aug-cc-pvtz', properties = ['dipole'])
--------------------------------------------------------------------------

    Molecular point group: c1
  Charge       = 0
  Multiplicity = 1
  Basis Set: AUG-CC-PVTZ
    Blend: AUG-CC-PVTZ
  Basis Set: (AUG-CC-PVTZ AUX)
    Blend: AUG-CC-PVTZ-JKFIT

    Orbital Energies [Eh]
    ---------------------

    Doubly Occupied:

       1A    -20.547392     2A    -20.515895     3A    -15.609211
       4A    -15.572083     5A    -11.386554     6A    -11.358119
       7A    -11.280897     8A    -11.278473     9A    -11.265410
      10A    -11.262526    11A    -11.256882    12A    -11.254835
      13A     -1.401717    14A     -1.369905    15A     -1.237118
      16A     -1.203654    17A     -1.173015    18A     -1.058039
      19A     -1.042270    20A     -0.909529    21A     -0.869528
      22A     -0.822638    23A     -0.786319    24A     -0.764211
      25A     -0.723409    26A     -0.704198    27A     -0.685844
      28A     -0.660150    29A     -0.652303    30A     -0.629802
      31A     -0.614094    32A     -0.591481    33A     -0.581215
      34A     -0.565892    35A     -0.538782    36A     -0.524069
      37A     -0.516301    38A     -0.455409    39A     -0.441190
      40A     -0.429142    41A     -0.402892    42A     -0.366979
      43A     -0.351313

  @DF-RHF Final Energy:  -566.46875690577042

   => Energetics <=

    Nuclear Repulsion Energy =            669.0025133210098147
    One-Electron Energy =               -2099.6211700155959079
    Two-Electron Energy =                 864.1498997888157874
    Total Energy =                       -566.4687569057704195
  Basis Set: (AUG-CC-PVTZ AUX)
    Blend: AUG-CC-PVTZ-RI
    Molecular point group: c1

    Geometry (in Angstrom), charge = 0, multiplicity = 1:

       Center              X                  Y                   Z               Mass
    ------------   -----------------  -----------------  -----------------  -----------------
         O           -0.427765657464     2.738490953152     0.839620776567    15.994914619570
         O           -2.122128657464    -1.144576046848    -0.833049223433    15.994914619570
         N           -1.810369657464     1.624072953152    -0.592413223433    14.003074004430
         N           -1.352086657464    -2.317616046848     0.954208776567    14.003074004430
         C            0.364107342536     0.664052953152    -0.022488223433    12.000000000000
         C            0.138375342536    -0.728536046848    -0.054709223433    12.000000000000
         C            1.733927842536     1.146467553152    -0.039802323433    12.000000000000
         C            1.233806342536    -1.604989046848    -0.141211223433    12.000000000000
         C            2.764715342536     0.255254953152    -0.148965223433    12.000000000000
         C            2.538488342536    -1.120839046848    -0.203690223433    12.000000000000
         C           -0.674301657464     1.752378953152     0.136923776567    12.000000000000
         C           -1.218592657464    -1.370979046848    -0.018086223433    12.000000000000
         H            1.846107342536     2.201163953152     0.041000776567     1.007825032230
         H            1.050018342536    -2.676366046848    -0.175700223433     1.007825032230
         H            3.778575342536     0.646477953152    -0.182199223433     1.007825032230
         H            3.371104342536    -1.814580046848    -0.290755223433     1.007825032230
         H           -2.055848657464     0.742533953152    -1.034533223433     1.007825032230
         H           -2.528441657464     2.319258953152    -0.431347223433     1.007825032230
         H           -0.712197657464    -2.345460046848     1.735436776567     1.007825032230
         H           -2.265615657464    -2.740860046848     1.065391776567     1.007825032230

  Basis Set: AUG-CC-PVTZ
    Blend: AUG-CC-PVTZ
  Basis Set: (AUG-CC-PVTZ AUX)
    Blend: AUG-CC-PVTZ-JKFIT
	 Reference Energy          =    -566.4687569057704195 [Eh]
	 Singles Energy            =      -0.0000000000000000 [Eh]
	 Same-Spin Energy          =      -0.5967218827118410 [Eh]
	 Opposite-Spin Energy      =      -1.7898545633862766 [Eh]
	 Correlation Energy        =      -2.3865764460981174 [Eh]
	 Total Energy              =    -568.8553333518685804 [Eh]

	 ================> DF-SCS-MP2 Energies <==================
	-----------------------------------------------------------
	 SCS Same-Spin Scale       =       0.3333333333333333 [-]
	 SCS Opposite-Spin Scale   =       1.2000000000000000 [-]
	 SCS Same-Spin Energy      =      -0.1989072942372803 [Eh]
	 SCS Opposite-Spin Energy  =      -2.1478254760635318 [Eh]
	 SCS Correlation Energy    =      -2.3467327703008123 [Eh]
	 SCS Total Energy          =    -568.8154896760712518 [Eh]
	-----------------------------------------------------------

  Dipole Moment: [D]
     X:     0.9089      Y:    -4.0298      Z:     1.0138     Total:     4.2536

*** Psi4 exiting successfully. Buy a developer a beer!
