                               Psi4 1.4a3.dev225

  ==> Input File <==

--------------------------------------------------------------------------
#psi4
#
memory 32 gb

molecule  {
0 1
  O       -0.4387840     2.7607480     0.8353900
  O       -2.1331470    -1.1223190    -0.8372800
  N       -1.8213880     1.6463300    -0.5966440
  N       -1.3631050    -2.2953590     0.9499780
  C        0.3530890     0.6863100    -0.0267190
  C        0.1273570    -0.7062790    -0.0589400
  C        1.4871219     1.0856865    -0.0410528
  C        1.2227880    -1.5827320    -0.1454420
  C        2.7536970     0.2775120    -0.1531960
  C        2.5274700    -1.0985820    -0.2079210
  C       -0.6853200     1.7746360     0.1326930
  C       -1.2296110    -1.3487220    -0.0223170
  H        1.8350890     2.2234210     0.0367700
  H        1.0390000    -2.6541090    -0.1799310
  H        3.7675570     0.6687350    -0.1864300
  H        3.3600860    -1.7923230    -0.2949860
  H       -2.0668670     0.7647910    -1.0387640
  H       -2.5394600     2.3415160    -0.4355780
  H       -0.7232160    -2.3232030     1.7312060
  H       -2.2766340    -2.7186030     1.0611610
units angstrom
no_reorient  #important for SAPT in psi4, default
symmetry c1  #important for SAPT in psi4, default
}

set PROPERTIES_ORIGIN ["COM"]
properties('MP2/aug-cc-pvtz', properties = ['dipole'])
--------------------------------------------------------------------------

    Molecular point group: c1
  Charge       = 0
  Multiplicity = 1
  Basis Set: AUG-CC-PVTZ
    Blend: AUG-CC-PVTZ
  Basis Set: (AUG-CC-PVTZ AUX)
    Blend: AUG-CC-PVTZ-JKFIT

    Orbital Energies [Eh]
    ---------------------

    Doubly Occupied:

       1A    -20.545690     2A    -20.513350     3A    -15.607980
       4A    -15.571232     5A    -11.384933     6A    -11.355665
       7A    -11.279328     8A    -11.270683     9A    -11.267688
      10A    -11.259596    11A    -11.248813    12A    -11.244034
      13A     -1.400393    14A     -1.368732    15A     -1.236073
      16A     -1.205833    17A     -1.188549    18A     -1.076408
      19A     -1.040147    20A     -0.905801    21A     -0.864892
      22A     -0.822309    23A     -0.789662    24A     -0.764015
      25A     -0.726711    26A     -0.698412    27A     -0.687874
      28A     -0.657064    29A     -0.649752    30A     -0.635000
      31A     -0.601963    32A     -0.592618    33A     -0.580646
      34A     -0.570967    35A     -0.552440    36A     -0.524057
      37A     -0.480088    38A     -0.455997    39A     -0.439473
      40A     -0.427640    41A     -0.400943    42A     -0.386134
      43A     -0.347398

  @DF-RHF Final Energy:  -566.41058858878478

   => Energetics <=

    Nuclear Repulsion Energy =            673.4430519361044389
    One-Electron Energy =               -2108.4533190155830198
    Two-Electron Energy =                 868.5996784906938046
    Total Energy =                       -566.4105885887847762
  Basis Set: (AUG-CC-PVTZ AUX)
    Blend: AUG-CC-PVTZ-RI
    Molecular point group: c1

    Geometry (in Angstrom), charge = 0, multiplicity = 1:

       Center              X                  Y                   Z               Mass
    ------------   -----------------  -----------------  -----------------  -----------------
         O           -0.410519066380     2.744564742253     0.839402783698    15.994914619570
         O           -2.104882066380    -1.138502257747    -0.833267216302    15.994914619570
         N           -1.793123066380     1.630146742253    -0.592631216302    14.003074004430
         N           -1.334840066380    -2.311542257747     0.953990783698    14.003074004430
         C            0.381353933620     0.670126742253    -0.022706216302    12.000000000000
         C            0.155621933620    -0.722462257747    -0.054927216302    12.000000000000
         C            1.515386833620     1.069503242253    -0.037040016302    12.000000000000
         C            1.251052933620    -1.598915257747    -0.141429216302    12.000000000000
         C            2.781961933620     0.261328742253    -0.149183216302    12.000000000000
         C            2.555734933620    -1.114765257747    -0.203908216302    12.000000000000
         C           -0.657055066380     1.758452742253     0.136705783698    12.000000000000
         C           -1.201346066380    -1.364905257747    -0.018304216302    12.000000000000
         H            1.863353933620     2.207237742253     0.040782783698     1.007825032230
         H            1.067264933620    -2.670292257747    -0.175918216302     1.007825032230
         H            3.795821933620     0.652551742253    -0.182417216302     1.007825032230
         H            3.388350933620    -1.808506257747    -0.290973216302     1.007825032230
         H           -2.038602066380     0.748607742253    -1.034751216302     1.007825032230
         H           -2.511195066380     2.325332742253    -0.431565216302     1.007825032230
         H           -0.694951066380    -2.339386257747     1.735218783698     1.007825032230
         H           -2.248369066380    -2.734786257747     1.065173783698     1.007825032230

  Basis Set: AUG-CC-PVTZ
    Blend: AUG-CC-PVTZ
  Basis Set: (AUG-CC-PVTZ AUX)
    Blend: AUG-CC-PVTZ-JKFIT
	 Reference Energy          =    -566.4105885887847762 [Eh]
	 Singles Energy            =      -0.0000000000000000 [Eh]
	 Same-Spin Energy          =      -0.5964964158844356 [Eh]
	 Opposite-Spin Energy      =      -1.7916768037115931 [Eh]
	 Correlation Energy        =      -2.3881732195960286 [Eh]
	 Total Energy              =    -568.7987618083808457 [Eh]

	 ================> DF-SCS-MP2 Energies <==================
	-----------------------------------------------------------
	 SCS Same-Spin Scale       =       0.3333333333333333 [-]
	 SCS Opposite-Spin Scale   =       1.2000000000000000 [-]
	 SCS Same-Spin Energy      =      -0.1988321386281452 [Eh]
	 SCS Opposite-Spin Energy  =      -2.1500121644539116 [Eh]
	 SCS Correlation Energy    =      -2.3488443030820569 [Eh]
	 SCS Total Energy          =    -568.7594328918668225 [Eh]
	-----------------------------------------------------------

  Dipole Moment: [D]
     X:     0.9882      Y:    -4.0730      Z:     1.0140     Total:     4.3121

*** Psi4 exiting successfully. Buy a developer a beer!
