                               Psi4 1.4a3.dev225

  ==> Input File <==

--------------------------------------------------------------------------
#psi4
#
memory 32 gb

molecule  {
0 1
  O       -0.4387840     2.7607480     0.8353900
  O       -2.1331470    -1.1223190    -0.8372800
  N       -1.8213880     1.6463300    -0.5966440
  N       -1.3631050    -2.2953590     0.9499780
  C        0.3530890     0.6863100    -0.0267190
  C        0.1113605    -0.8049649    -0.0612233
  C        1.6757520     1.1521170    -0.0434370
  C        1.2227880    -1.5827320    -0.1454420
  C        2.7536970     0.2775120    -0.1531960
  C        2.5274700    -1.0985820    -0.2079210
  C       -0.6853200     1.7746360     0.1326930
  C       -1.2296110    -1.3487220    -0.0223170
  H        1.8350890     2.2234210     0.0367700
  H        1.0390000    -2.6541090    -0.1799310
  H        3.7675570     0.6687350    -0.1864300
  H        3.3600860    -1.7923230    -0.2949860
  H       -2.0668670     0.7647910    -1.0387640
  H       -2.5394600     2.3415160    -0.4355780
  H       -0.7232160    -2.3232030     1.7312060
  H       -2.2766340    -2.7186030     1.0611610
units angstrom
no_reorient  #important for SAPT in psi4, default
symmetry c1  #important for SAPT in psi4, default
}

set PROPERTIES_ORIGIN ["COM"]
properties('MP2/aug-cc-pvtz', properties = ['dipole'])
--------------------------------------------------------------------------

    Molecular point group: c1
  Charge       = 0
  Multiplicity = 1
  Basis Set: AUG-CC-PVTZ
    Blend: AUG-CC-PVTZ
  Basis Set: (AUG-CC-PVTZ AUX)
    Blend: AUG-CC-PVTZ-JKFIT

    Orbital Energies [Eh]
    ---------------------

    Doubly Occupied:

       1A    -20.547576     2A    -20.514341     3A    -15.607861
       4A    -15.571106     5A    -11.383488     6A    -11.357025
       7A    -11.281789     8A    -11.280101     9A    -11.264005
      10A    -11.262672    11A    -11.261236    12A    -11.256446
      13A     -1.402805    14A     -1.368598    15A     -1.239060
      16A     -1.202127    17A     -1.172331    18A     -1.061543
      19A     -1.043501    20A     -0.917555    21A     -0.872718
      22A     -0.812259    23A     -0.788874    24A     -0.764068
      25A     -0.725036    26A     -0.705730    27A     -0.690188
      28A     -0.651169    29A     -0.648387    30A     -0.632002
      31A     -0.617054    32A     -0.593624    33A     -0.578729
      34A     -0.566729    35A     -0.541603    36A     -0.516420
      37A     -0.511797    38A     -0.460874    39A     -0.440999
      40A     -0.428235    41A     -0.401780    42A     -0.368688
      43A     -0.349676

  @DF-RHF Final Energy:  -566.45897197547879

   => Energetics <=

    Nuclear Repulsion Energy =            669.3632806982197962
    One-Electron Energy =               -2100.3208930866699120
    Two-Electron Energy =                 864.4986404129713264
    Total Energy =                       -566.4589719754787893
  Basis Set: (AUG-CC-PVTZ AUX)
    Blend: AUG-CC-PVTZ-RI
    Molecular point group: c1

    Geometry (in Angstrom), charge = 0, multiplicity = 1:

       Center              X                  Y                   Z               Mass
    ------------   -----------------  -----------------  -----------------  -----------------
         O           -0.423146283022     2.746924050775     0.839744186147    15.994914619570
         O           -2.117509283022    -1.136142949225    -0.832925813853    15.994914619570
         N           -1.805750283022     1.632506050775    -0.592289813853    14.003074004430
         N           -1.347467283022    -2.309182949225     0.954332186147    14.003074004430
         C            0.368726716978     0.672486050775    -0.022364813853    12.000000000000
         C            0.126998216978    -0.818788849225    -0.056869113853    12.000000000000
         C            1.691389716978     1.138293050775    -0.039082813853    12.000000000000
         C            1.238425716978    -1.596555949225    -0.141087813853    12.000000000000
         C            2.769334716978     0.263688050775    -0.148841813853    12.000000000000
         C            2.543107716978    -1.112405949225    -0.203566813853    12.000000000000
         C           -0.669682283022     1.760812050775     0.137047186147    12.000000000000
         C           -1.213973283022    -1.362545949225    -0.017962813853    12.000000000000
         H            1.850726716978     2.209597050775     0.041124186147     1.007825032230
         H            1.054637716978    -2.667932949225    -0.175576813853     1.007825032230
         H            3.783194716978     0.654911050775    -0.182075813853     1.007825032230
         H            3.375723716978    -1.806146949225    -0.290631813853     1.007825032230
         H           -2.051229283022     0.750967050775    -1.034409813853     1.007825032230
         H           -2.523822283022     2.327692050775    -0.431223813853     1.007825032230
         H           -0.707578283022    -2.337026949225     1.735560186147     1.007825032230
         H           -2.260996283022    -2.732426949225     1.065515186147     1.007825032230

  Basis Set: AUG-CC-PVTZ
    Blend: AUG-CC-PVTZ
  Basis Set: (AUG-CC-PVTZ AUX)
    Blend: AUG-CC-PVTZ-JKFIT
	 Reference Energy          =    -566.4589719754787893 [Eh]
	 Singles Energy            =      -0.0000000000000000 [Eh]
	 Same-Spin Energy          =      -0.5974340024965932 [Eh]
	 Opposite-Spin Energy      =      -1.7912872267609425 [Eh]
	 Correlation Energy        =      -2.3887212292575359 [Eh]
	 Total Energy              =    -568.8476932047362880 [Eh]

	 ================> DF-SCS-MP2 Energies <==================
	-----------------------------------------------------------
	 SCS Same-Spin Scale       =       0.3333333333333333 [-]
	 SCS Opposite-Spin Scale   =       1.2000000000000000 [-]
	 SCS Same-Spin Energy      =      -0.1991446674988644 [Eh]
	 SCS Opposite-Spin Energy  =      -2.1495446721131310 [Eh]
	 SCS Correlation Energy    =      -2.3486893396119952 [Eh]
	 SCS Total Energy          =    -568.8076613150907406 [Eh]
	-----------------------------------------------------------

  Dipole Moment: [D]
     X:     1.0096      Y:    -4.0239      Z:     1.0017     Total:     4.2679

*** Psi4 exiting successfully. Buy a developer a beer!
