                               Psi4 1.4a3.dev225

  ==> Input File <==

--------------------------------------------------------------------------
#psi4
#
memory 32 gb

molecule  {
0 1
  O       -0.4387840     2.7607480     0.8353900
  O       -2.1331470    -1.1223190    -0.8372800
  N       -1.8213880     1.6463300    -0.5966440
  N       -1.3631050    -2.2953590     0.9499780
  C        0.3530890     0.6863100    -0.0267190
  C        0.1273570    -0.7062790    -0.0589400
  C        1.6757520     1.1521170    -0.0434370
  C        1.2227880    -1.5827320    -0.1454420
  C        2.7536970     0.2775120    -0.1531960
  C        2.5274700    -1.0985820    -0.2079210
  C       -0.6853200     1.7746360     0.1326930
  C       -1.2296110    -1.3487220    -0.0223170
  H        1.8350890     2.2234210     0.0367700
  H        1.0390000    -2.6541090    -0.1799310
  H        3.7675570     0.6687350    -0.1864300
  H        3.3600860    -1.7923230    -0.2949860
  H       -2.0668670     0.7647910    -1.0387640
  H       -2.5039944     2.3071808    -0.4435331
  H       -0.7232160    -2.3232030     1.7312060
  H       -2.2766340    -2.7186030     1.0611610
units angstrom
no_reorient  #important for SAPT in psi4, default
symmetry c1  #important for SAPT in psi4, default
}

set PROPERTIES_ORIGIN ["COM"]
properties('MP2/aug-cc-pvtz', properties = ['dipole'])
--------------------------------------------------------------------------

    Molecular point group: c1
  Charge       = 0
  Multiplicity = 1
  Basis Set: AUG-CC-PVTZ
    Blend: AUG-CC-PVTZ
  Basis Set: (AUG-CC-PVTZ AUX)
    Blend: AUG-CC-PVTZ-JKFIT

    Orbital Energies [Eh]
    ---------------------

    Doubly Occupied:

       1A    -20.547226     2A    -20.515957     3A    -15.609117
       4A    -15.567217     5A    -11.386433     6A    -11.357920
       7A    -11.280696     8A    -11.273268     9A    -11.265707
      10A    -11.262187    11A    -11.258561    12A    -11.255775
      13A     -1.401650    14A     -1.370600    15A     -1.237047
      16A     -1.209533    17A     -1.175718    18A     -1.055785
      19A     -1.047058    20A     -0.909312    21A     -0.870957
      22A     -0.822934    23A     -0.790644    24A     -0.764231
      25A     -0.726453    26A     -0.704575    27A     -0.691411
      28A     -0.659718    29A     -0.650756    30A     -0.632304
      31A     -0.611124    32A     -0.594493    33A     -0.581309
      34A     -0.566946    35A     -0.539324    36A     -0.523302
      37A     -0.517625    38A     -0.456157    39A     -0.441158
      40A     -0.429421    41A     -0.403589    42A     -0.363034
      43A     -0.356499

  @DF-RHF Final Energy:  -566.47133525134859

   => Energetics <=

    Nuclear Repulsion Energy =            670.1198808857585618
    One-Electron Energy =               -2101.8129608909111994
    Two-Electron Energy =                 865.2217447538041597
    Total Energy =                       -566.4713352513485916
  Basis Set: (AUG-CC-PVTZ AUX)
    Blend: AUG-CC-PVTZ-RI
    Molecular point group: c1

    Geometry (in Angstrom), charge = 0, multiplicity = 1:

       Center              X                  Y                   Z               Mass
    ------------   -----------------  -----------------  -----------------  -----------------
         O           -0.424534208742     2.739916633404     0.839626043887    15.994914619570
         O           -2.118897208742    -1.143150366596    -0.833043956113    15.994914619570
         N           -1.807138208742     1.625498633404    -0.592407956113    14.003074004430
         N           -1.348855208742    -2.316190366596     0.954214043887    14.003074004430
         C            0.367338791258     0.665478633404    -0.022482956113    12.000000000000
         C            0.141606791258    -0.727110366596    -0.054703956113    12.000000000000
         C            1.690001791258     1.131285633404    -0.039200956113    12.000000000000
         C            1.237037791258    -1.603563366596    -0.141205956113    12.000000000000
         C            2.767946791258     0.256680633404    -0.148959956113    12.000000000000
         C            2.541719791258    -1.119413366596    -0.203684956113    12.000000000000
         C           -0.671070208742     1.753804633404     0.136929043887    12.000000000000
         C           -1.215361208742    -1.369553366596    -0.018080956113    12.000000000000
         H            1.849338791258     2.202589633404     0.041006043887     1.007825032230
         H            1.053249791258    -2.674940366596    -0.175694956113     1.007825032230
         H            3.781806791258     0.647903633404    -0.182193956113     1.007825032230
         H            3.374335791258    -1.813154366596    -0.290749956113     1.007825032230
         H           -2.052617208742     0.743959633404    -1.034527956113     1.007825032230
         H           -2.489744608742     2.286349433404    -0.439297056113     1.007825032230
         H           -0.708966208742    -2.344034366596     1.735442043887     1.007825032230
         H           -2.262384208742    -2.739434366596     1.065397043887     1.007825032230

  Basis Set: AUG-CC-PVTZ
    Blend: AUG-CC-PVTZ
  Basis Set: (AUG-CC-PVTZ AUX)
    Blend: AUG-CC-PVTZ-JKFIT
	 Reference Energy          =    -566.4713352513485916 [Eh]
	 Singles Energy            =      -0.0000000000000000 [Eh]
	 Same-Spin Energy          =      -0.5964829814043024 [Eh]
	 Opposite-Spin Energy      =      -1.7889016232935464 [Eh]
	 Correlation Energy        =      -2.3853846046978489 [Eh]
	 Total Energy              =    -568.8567198560464249 [Eh]

	 ================> DF-SCS-MP2 Energies <==================
	-----------------------------------------------------------
	 SCS Same-Spin Scale       =       0.3333333333333333 [-]
	 SCS Opposite-Spin Scale   =       1.2000000000000000 [-]
	 SCS Same-Spin Energy      =      -0.1988276604681008 [Eh]
	 SCS Opposite-Spin Energy  =      -2.1466819479522554 [Eh]
	 SCS Correlation Energy    =      -2.3455096084203562 [Eh]
	 SCS Total Energy          =    -568.8168448597689348 [Eh]
	-----------------------------------------------------------

  Dipole Moment: [D]
     X:     0.9704      Y:    -4.0616      Z:     1.0130     Total:     4.2970

*** Psi4 exiting successfully. Buy a developer a beer!
