                               Psi4 1.4a3.dev225

  ==> Input File <==

--------------------------------------------------------------------------
#psi4
#
memory 32 gb

molecule  {
0 1
  O       -0.4387840     2.7607480     0.8353900
  O       -2.1331470    -1.1223190    -0.8372800
  N       -1.8213880     1.6463300    -0.5966440
  N       -1.3631050    -2.2953590     0.9499780
  C        0.3530890     0.6863100    -0.0267190
  C        0.1273570    -0.7062790    -0.0589400
  C        1.5899502     1.0342986    -0.0440455
  C        1.2227880    -1.5827320    -0.1454420
  C        2.7536970     0.2775120    -0.1531960
  C        2.5274700    -1.0985820    -0.2079210
  C       -0.6853200     1.7746360     0.1326930
  C       -1.2296110    -1.3487220    -0.0223170
  H        1.8350890     2.2234210     0.0367700
  H        1.0390000    -2.6541090    -0.1799310
  H        3.7675570     0.6687350    -0.1864300
  H        3.3600860    -1.7923230    -0.2949860
  H       -2.0668670     0.7647910    -1.0387640
  H       -2.5394600     2.3415160    -0.4355780
  H       -0.7232160    -2.3232030     1.7312060
  H       -2.2766340    -2.7186030     1.0611610
units angstrom
no_reorient  #important for SAPT in psi4, default
symmetry c1  #important for SAPT in psi4, default
}

set PROPERTIES_ORIGIN ["COM"]
properties('MP2/aug-cc-pvtz', properties = ['dipole'])
--------------------------------------------------------------------------

    Molecular point group: c1
  Charge       = 0
  Multiplicity = 1
  Basis Set: AUG-CC-PVTZ
    Blend: AUG-CC-PVTZ
  Basis Set: (AUG-CC-PVTZ AUX)
    Blend: AUG-CC-PVTZ-JKFIT

    Orbital Energies [Eh]
    ---------------------

    Doubly Occupied:

       1A    -20.546754     2A    -20.515405     3A    -15.608614
       4A    -15.572713     5A    -11.385348     6A    -11.358474
       7A    -11.280633     8A    -11.264650     9A    -11.261655
      10A    -11.259687    11A    -11.258961    12A    -11.250815
      13A     -1.401215    14A     -1.369567    15A     -1.236762
      16A     -1.205952    17A     -1.187687    18A     -1.063744
      19A     -1.049770    20A     -0.910611    21A     -0.868324
      22A     -0.818220    23A     -0.793617    24A     -0.763315
      25A     -0.727323    26A     -0.699871    27A     -0.690988
      28A     -0.657239    29A     -0.651046    30A     -0.632678
      31A     -0.597707    32A     -0.596895    33A     -0.580982
      34A     -0.569302    35A     -0.552321    36A     -0.525237
      37A     -0.486240    38A     -0.456049    39A     -0.440085
      40A     -0.429839    41A     -0.402177    42A     -0.370865
      43A     -0.358820

  @DF-RHF Final Energy:  -566.44456584547527

   => Energetics <=

    Nuclear Repulsion Energy =            672.6530027551285684
    One-Electron Energy =               -2106.8788290964275802
    Two-Electron Energy =                 867.7812604958238580
    Total Energy =                       -566.4445658454752675
  Basis Set: (AUG-CC-PVTZ AUX)
    Blend: AUG-CC-PVTZ-RI
    Molecular point group: c1

    Geometry (in Angstrom), charge = 0, multiplicity = 1:

       Center              X                  Y                   Z               Mass
    ------------   -----------------  -----------------  -----------------  -----------------
         O           -0.418040401862     2.748323489948     0.839621683561    15.994914619570
         O           -2.112403401862    -1.134743510052    -0.833048316439    15.994914619570
         N           -1.800644401862     1.633905489948    -0.592412316439    14.003074004430
         N           -1.342361401862    -2.307783510052     0.954209683561    14.003074004430
         C            0.373832598138     0.673885489948    -0.022487316439    12.000000000000
         C            0.148100598138    -0.718703510052    -0.054708316439    12.000000000000
         C            1.610693798138     1.021874089948    -0.039813816439    12.000000000000
         C            1.243531598138    -1.595156510052    -0.141210316439    12.000000000000
         C            2.774440598138     0.265087489948    -0.148964316439    12.000000000000
         C            2.548213598138    -1.111006510052    -0.203689316439    12.000000000000
         C           -0.664576401862     1.762211489948     0.136924683561    12.000000000000
         C           -1.208867401862    -1.361146510052    -0.018085316439    12.000000000000
         H            1.855832598138     2.210996489948     0.041001683561     1.007825032230
         H            1.059743598138    -2.666533510052    -0.175699316439     1.007825032230
         H            3.788300598138     0.656310489948    -0.182198316439     1.007825032230
         H            3.380829598138    -1.804747510052    -0.290754316439     1.007825032230
         H           -2.046123401862     0.752366489948    -1.034532316439     1.007825032230
         H           -2.518716401862     2.329091489948    -0.431346316439     1.007825032230
         H           -0.702472401862    -2.335627510052     1.735437683561     1.007825032230
         H           -2.255890401862    -2.731027510052     1.065392683561     1.007825032230

  Basis Set: AUG-CC-PVTZ
    Blend: AUG-CC-PVTZ
  Basis Set: (AUG-CC-PVTZ AUX)
    Blend: AUG-CC-PVTZ-JKFIT
	 Reference Energy          =    -566.4445658454752675 [Eh]
	 Singles Energy            =      -0.0000000000000000 [Eh]
	 Same-Spin Energy          =      -0.5974696958332917 [Eh]
	 Opposite-Spin Energy      =      -1.7910098001273909 [Eh]
	 Correlation Energy        =      -2.3884794959606825 [Eh]
	 Total Energy              =    -568.8330453414359908 [Eh]

	 ================> DF-SCS-MP2 Energies <==================
	-----------------------------------------------------------
	 SCS Same-Spin Scale       =       0.3333333333333333 [-]
	 SCS Opposite-Spin Scale   =       1.2000000000000000 [-]
	 SCS Same-Spin Energy      =      -0.1991565652777639 [Eh]
	 SCS Opposite-Spin Energy  =      -2.1492117601528689 [Eh]
	 SCS Correlation Energy    =      -2.3483683254306329 [Eh]
	 SCS Total Energy          =    -568.7929341709059372 [Eh]
	-----------------------------------------------------------

  Dipole Moment: [D]
     X:     0.9384      Y:    -4.0765      Z:     1.0094     Total:     4.3032

*** Psi4 exiting successfully. Buy a developer a beer!
