                               Psi4 1.4a3.dev225

  ==> Input File <==

--------------------------------------------------------------------------
#psi4
#
memory 32 gb

molecule  {
0 1
  O       -0.4387840     2.7607480     0.8353900
  O       -2.1331470    -1.1223190    -0.8372800
  N       -1.8213880     1.6463300    -0.5966440
  N       -1.3631050    -2.2953590     0.9499780
  C        0.3530890     0.6863100    -0.0267190
  C        0.1273570    -0.7062790    -0.0589400
  C        1.6757520     1.1521170    -0.0434370
  C        1.2227880    -1.5827320    -0.1454420
  C        2.7536970     0.2775120    -0.1531960
  C        2.5274700    -1.0985820    -0.2079210
  C       -0.6853200     1.7746360     0.1326930
  C       -1.2296110    -1.3487220    -0.0223170
  H        1.8350890     2.2234210     0.0367700
  H        1.0390000    -2.6541090    -0.1799310
  H        3.7675570     0.6687350    -0.1864300
  H        3.3600860    -1.7923230    -0.2949860
  H       -2.0668670     0.7647910    -1.0387640
  H       -2.6103912     2.4101865    -0.4196679
  H       -0.7232160    -2.3232030     1.7312060
  H       -2.2766340    -2.7186030     1.0611610
units angstrom
no_reorient  #important for SAPT in psi4, default
symmetry c1  #important for SAPT in psi4, default
}

set PROPERTIES_ORIGIN ["COM"]
properties('MP2/aug-cc-pvtz', properties = ['dipole'])
--------------------------------------------------------------------------

    Molecular point group: c1
  Charge       = 0
  Multiplicity = 1
  Basis Set: AUG-CC-PVTZ
    Blend: AUG-CC-PVTZ
  Basis Set: (AUG-CC-PVTZ AUX)
    Blend: AUG-CC-PVTZ-JKFIT

    Orbital Energies [Eh]
    ---------------------

    Doubly Occupied:

       1A    -20.546846     2A    -20.514106     3A    -15.608744
       4A    -15.579859     5A    -11.386012     6A    -11.356886
       7A    -11.280320     8A    -11.273349     9A    -11.265350
      10A    -11.261840    11A    -11.258228    12A    -11.255430
      13A     -1.401178    14A     -1.367777    15A     -1.236613
      16A     -1.194939    17A     -1.173097    18A     -1.054663
      19A     -1.046057    20A     -0.906995    21A     -0.866269
      22A     -0.821590    23A     -0.782620    24A     -0.763370
      25A     -0.721202    26A     -0.700735    27A     -0.675283
      28A     -0.659209    29A     -0.644264    30A     -0.630154
      31A     -0.610683    32A     -0.588493    33A     -0.580179
      34A     -0.565561    35A     -0.538060    36A     -0.522630
      37A     -0.516617    38A     -0.455224    39A     -0.440611
      40A     -0.428240    41A     -0.400512    42A     -0.362635
      43A     -0.355997

  @DF-RHF Final Energy:  -566.46135281914519

   => Energetics <=

    Nuclear Repulsion Energy =            669.2226442422174841
    One-Electron Energy =               -2100.1711418970944578
    Two-Electron Energy =                 864.4871448357317831
    Total Energy =                       -566.4613528191451906
  Basis Set: (AUG-CC-PVTZ AUX)
    Blend: AUG-CC-PVTZ-RI
    Molecular point group: c1

    Geometry (in Angstrom), charge = 0, multiplicity = 1:

       Center              X                  Y                   Z               Mass
    ------------   -----------------  -----------------  -----------------  -----------------
         O           -0.423880604646     2.739283861107     0.839479438044    15.994914619570
         O           -2.118243604646    -1.143783138893    -0.833190561956    15.994914619570
         N           -1.806484604646     1.624865861107    -0.592554561956    14.003074004430
         N           -1.348201604646    -2.316823138893     0.954067438044    14.003074004430
         C            0.367992395354     0.664845861107    -0.022629561956    12.000000000000
         C            0.142260395354    -0.727743138893    -0.054850561956    12.000000000000
         C            1.690655395354     1.130652861107    -0.039347561956    12.000000000000
         C            1.237691395354    -1.604196138893    -0.141352561956    12.000000000000
         C            2.768600395354     0.256047861107    -0.149106561956    12.000000000000
         C            2.542373395354    -1.120046138893    -0.203831561956    12.000000000000
         C           -0.670416604646     1.753171861107     0.136782438044    12.000000000000
         C           -1.214707604646    -1.370186138893    -0.018227561956    12.000000000000
         H            1.849992395354     2.201956861107     0.040859438044     1.007825032230
         H            1.053903395354    -2.675573138893    -0.175841561956     1.007825032230
         H            3.782460395354     0.647270861107    -0.182340561956     1.007825032230
         H            3.374989395354    -1.813787138893    -0.290896561956     1.007825032230
         H           -2.051963604646     0.743326861107    -1.034674561956     1.007825032230
         H           -2.595487804646     2.388722361107    -0.415578461956     1.007825032230
         H           -0.708312604646    -2.344667138893     1.735295438044     1.007825032230
         H           -2.261730604646    -2.740067138893     1.065250438044     1.007825032230

  Basis Set: AUG-CC-PVTZ
    Blend: AUG-CC-PVTZ
  Basis Set: (AUG-CC-PVTZ AUX)
    Blend: AUG-CC-PVTZ-JKFIT
	 Reference Energy          =    -566.4613528191451906 [Eh]
	 Singles Energy            =      -0.0000000000000000 [Eh]
	 Same-Spin Energy          =      -0.5975243434350728 [Eh]
	 Opposite-Spin Energy      =      -1.7915681752159727 [Eh]
	 Correlation Energy        =      -2.3890925186510454 [Eh]
	 Total Energy              =    -568.8504453377962591 [Eh]

	 ================> DF-SCS-MP2 Energies <==================
	-----------------------------------------------------------
	 SCS Same-Spin Scale       =       0.3333333333333333 [-]
	 SCS Opposite-Spin Scale   =       1.2000000000000000 [-]
	 SCS Same-Spin Energy      =      -0.1991747811450242 [Eh]
	 SCS Opposite-Spin Energy  =      -2.1498818102591670 [Eh]
	 SCS Correlation Energy    =      -2.3490565914041914 [Eh]
	 SCS Total Energy          =    -568.8104094105493687 [Eh]
	-----------------------------------------------------------

  Dipole Moment: [D]
     X:     0.8522      Y:    -3.9698      Z:     1.0191     Total:     4.1862

*** Psi4 exiting successfully. Buy a developer a beer!
