                               Psi4 1.4a3.dev225

  ==> Input File <==

--------------------------------------------------------------------------
#psi4
#
memory 32 gb

molecule  {
0 1
  O       -0.4387840     2.7607480     0.8353900
  O       -2.1331470    -1.1223190    -0.8372800
  N       -1.8213880     1.6463300    -0.5966440
  N       -1.3631050    -2.2953590     0.9499780
  C        0.3530890     0.6863100    -0.0267190
  C        0.1273570    -0.7062790    -0.0589400
  C        1.6757520     1.1521170    -0.0434370
  C        1.2227880    -1.5827320    -0.1454420
  C        2.7536970     0.2775120    -0.1531960
  C        2.5274700    -1.0985820    -0.2079210
  C       -0.6853200     1.7746360     0.1326930
  C       -1.2296110    -1.3487220    -0.0223170
  H        1.8350890     2.2234210     0.0367700
  H        1.0390000    -2.6541090    -0.1799310
  H        3.7675570     0.6687350    -0.1864300
  H        3.3600860    -1.7923230    -0.2949860
  H       -2.0910215     0.6780499    -1.0822674
  H       -2.5394600     2.3415160    -0.4355780
  H       -0.7232160    -2.3232030     1.7312060
  H       -2.2766340    -2.7186030     1.0611610
units angstrom
no_reorient  #important for SAPT in psi4, default
symmetry c1  #important for SAPT in psi4, default
}

set PROPERTIES_ORIGIN ["COM"]
properties('MP2/aug-cc-pvtz', properties = ['dipole'])
--------------------------------------------------------------------------

    Molecular point group: c1
  Charge       = 0
  Multiplicity = 1
  Basis Set: AUG-CC-PVTZ
    Blend: AUG-CC-PVTZ
  Basis Set: (AUG-CC-PVTZ AUX)
    Blend: AUG-CC-PVTZ-JKFIT

    Orbital Energies [Eh]
    ---------------------

    Doubly Occupied:

       1A    -20.551020     2A    -20.512536     3A    -15.611280
       4A    -15.574020     5A    -11.389398     6A    -11.354820
       7A    -11.280740     8A    -11.272883     9A    -11.265955
      10A    -11.261910    11A    -11.258437    12A    -11.255121
      13A     -1.405659    14A     -1.366518    15A     -1.239345
      16A     -1.191568    17A     -1.172986    18A     -1.055310
      19A     -1.046319    20A     -0.908415    21A     -0.867976
      22A     -0.822611    23A     -0.784804    24A     -0.760595
      25A     -0.714425    26A     -0.699510    27A     -0.682136
      28A     -0.658699    29A     -0.649534    30A     -0.631985
      31A     -0.611871    32A     -0.590321    33A     -0.577757
      34A     -0.564695    35A     -0.538762    36A     -0.522329
      37A     -0.516746    38A     -0.457403    39A     -0.443681
      40A     -0.426244    41A     -0.397467    42A     -0.363096
      43A     -0.355899

  @DF-RHF Final Energy:  -566.46155938817458

   => Energetics <=

    Nuclear Repulsion Energy =            669.4789092082062325
    One-Electron Energy =               -2100.6553596981302690
    Two-Electron Energy =                 864.7148911017494584
    Total Energy =                       -566.4615593881745781
  Basis Set: (AUG-CC-PVTZ AUX)
    Blend: AUG-CC-PVTZ-RI
    Molecular point group: c1

    Geometry (in Angstrom), charge = 0, multiplicity = 1:

       Center              X                  Y                   Z               Mass
    ------------   -----------------  -----------------  -----------------  -----------------
         O           -0.424167957675     2.740238567061     0.839844419952    15.994914619570
         O           -2.118530957675    -1.142828432939    -0.832825580048    15.994914619570
         N           -1.806771957675     1.625820567061    -0.592189580048    14.003074004430
         N           -1.348488957675    -2.315868432939     0.954432419952    14.003074004430
         C            0.367705042325     0.665800567061    -0.022264580048    12.000000000000
         C            0.141973042325    -0.726788432939    -0.054485580048    12.000000000000
         C            1.690368042325     1.131607567061    -0.038982580048    12.000000000000
         C            1.237404042325    -1.603241432939    -0.140987580048    12.000000000000
         C            2.768313042325     0.257002567061    -0.148741580048    12.000000000000
         C            2.542086042325    -1.119091432939    -0.203466580048    12.000000000000
         C           -0.670703957675     1.754126567061     0.137147419952    12.000000000000
         C           -1.214994957675    -1.369231432939    -0.017862580048    12.000000000000
         H            1.849705042325     2.202911567061     0.041224419952     1.007825032230
         H            1.053616042325    -2.674618432939    -0.175476580048     1.007825032230
         H            3.782173042325     0.648225567061    -0.181975580048     1.007825032230
         H            3.374702042325    -1.812832432939    -0.290531580048     1.007825032230
         H           -2.076405457675     0.657540467061    -1.077812980048     1.007825032230
         H           -2.524843957675     2.321006567061    -0.431123580048     1.007825032230
         H           -0.708599957675    -2.343712432939     1.735660419952     1.007825032230
         H           -2.262017957675    -2.739112432939     1.065615419952     1.007825032230

  Basis Set: AUG-CC-PVTZ
    Blend: AUG-CC-PVTZ
  Basis Set: (AUG-CC-PVTZ AUX)
    Blend: AUG-CC-PVTZ-JKFIT
	 Reference Energy          =    -566.4615593881745781 [Eh]
	 Singles Energy            =      -0.0000000000000000 [Eh]
	 Same-Spin Energy          =      -0.5979615395555706 [Eh]
	 Opposite-Spin Energy      =      -1.7916017286489727 [Eh]
	 Correlation Energy        =      -2.3895632682045433 [Eh]
	 Total Energy              =    -568.8511226563791752 [Eh]

	 ================> DF-SCS-MP2 Energies <==================
	-----------------------------------------------------------
	 SCS Same-Spin Scale       =       0.3333333333333333 [-]
	 SCS Opposite-Spin Scale   =       1.2000000000000000 [-]
	 SCS Same-Spin Energy      =      -0.1993205131851902 [Eh]
	 SCS Opposite-Spin Energy  =      -2.1499220743787673 [Eh]
	 SCS Correlation Energy    =      -2.3492425875639573 [Eh]
	 SCS Total Energy          =    -568.8108019757385136 [Eh]
	-----------------------------------------------------------

  Dipole Moment: [D]
     X:     0.8934      Y:    -4.2903      Z:     0.9783     Total:     4.4902

*** Psi4 exiting successfully. Buy a developer a beer!
