                               Psi4 1.4a3.dev225

  ==> Input File <==

--------------------------------------------------------------------------
#psi4
#
memory 32 gb

molecule  {
0 1
  O       -0.4387840     2.7607480     0.8353900
  O       -2.1331470    -1.1223190    -0.8372800
  N       -1.8213880     1.6463300    -0.5966440
  N       -1.3631050    -2.2953590     0.9499780
  C        0.3700374     0.6405989    -0.0311188
  C        0.1273570    -0.7062790    -0.0589400
  C        1.6757520     1.1521170    -0.0434370
  C        1.2227880    -1.5827320    -0.1454420
  C        2.7536970     0.2775120    -0.1531960
  C        2.5274700    -1.0985820    -0.2079210
  C       -0.6853200     1.7746360     0.1326930
  C       -1.2296110    -1.3487220    -0.0223170
  H        1.8350890     2.2234210     0.0367700
  H        1.0390000    -2.6541090    -0.1799310
  H        3.7675570     0.6687350    -0.1864300
  H        3.3600860    -1.7923230    -0.2949860
  H       -2.0668670     0.7647910    -1.0387640
  H       -2.5394600     2.3415160    -0.4355780
  H       -0.7232160    -2.3232030     1.7312060
  H       -2.2766340    -2.7186030     1.0611610
units angstrom
no_reorient  #important for SAPT in psi4, default
symmetry c1  #important for SAPT in psi4, default
}

set PROPERTIES_ORIGIN ["COM"]
properties('MP2/aug-cc-pvtz', properties = ['dipole'])
--------------------------------------------------------------------------

    Molecular point group: c1
  Charge       = 0
  Multiplicity = 1
  Basis Set: AUG-CC-PVTZ
    Blend: AUG-CC-PVTZ
  Basis Set: (AUG-CC-PVTZ AUX)
    Blend: AUG-CC-PVTZ-JKFIT

    Orbital Energies [Eh]
    ---------------------

    Doubly Occupied:

       1A    -20.547597     2A    -20.516467     3A    -15.609463
       4A    -15.571940     5A    -11.387059     6A    -11.359853
       7A    -11.275453     8A    -11.271446     9A    -11.264711
      10A    -11.260608    11A    -11.257559    12A    -11.254572
      13A     -1.401990    14A     -1.368724    15A     -1.237506
      16A     -1.203371    17A     -1.178560    18A     -1.058325
      19A     -1.043856    20A     -0.904418    21A     -0.866534
      22A     -0.826766    23A     -0.786476    24A     -0.764746
      25A     -0.723091    26A     -0.702826    27A     -0.684344
      28A     -0.662738    29A     -0.647097    30A     -0.631892
      31A     -0.611496    32A     -0.590789    33A     -0.582648
      34A     -0.565236    35A     -0.537108    36A     -0.525420
      37A     -0.519589    38A     -0.456206    39A     -0.441330
      40A     -0.425674    41A     -0.402771    42A     -0.366850
      43A     -0.354940

  @DF-RHF Final Energy:  -566.46992984499559

   => Energetics <=

    Nuclear Repulsion Energy =            670.0335162794623329
    One-Electron Energy =               -2101.7068122187779409
    Two-Electron Energy =                 865.2033660943201312
    Total Energy =                       -566.4699298449955904
  Basis Set: (AUG-CC-PVTZ AUX)
    Blend: AUG-CC-PVTZ-RI
    Molecular point group: c1

    Geometry (in Angstrom), charge = 0, multiplicity = 1:

       Center              X                  Y                   Z               Mass
    ------------   -----------------  -----------------  -----------------  -----------------
         O           -0.425556024749     2.743049229905     0.839898996705    15.994914619570
         O           -2.119919024749    -1.140017770095    -0.832771003295    15.994914619570
         N           -1.808160024749     1.628631229905    -0.592135003295    14.003074004430
         N           -1.349877024749    -2.313057770095     0.954486996705    14.003074004430
         C            0.383265375251     0.622900129905    -0.026609803295    12.000000000000
         C            0.140584975251    -0.723977770095    -0.054431003295    12.000000000000
         C            1.688979975251     1.134418229905    -0.038928003295    12.000000000000
         C            1.236015975251    -1.600430770095    -0.140933003295    12.000000000000
         C            2.766924975251     0.259813229905    -0.148687003295    12.000000000000
         C            2.540697975251    -1.116280770095    -0.203412003295    12.000000000000
         C           -0.672092024749     1.756937229905     0.137201996705    12.000000000000
         C           -1.216383024749    -1.366420770095    -0.017808003295    12.000000000000
         H            1.848316975251     2.205722229905     0.041278996705     1.007825032230
         H            1.052227975251    -2.671807770095    -0.175422003295     1.007825032230
         H            3.780784975251     0.651036229905    -0.181921003295     1.007825032230
         H            3.373313975251    -1.810021770095    -0.290477003295     1.007825032230
         H           -2.053639024749     0.747092229905    -1.034255003295     1.007825032230
         H           -2.526232024749     2.323817229905    -0.431069003295     1.007825032230
         H           -0.709988024749    -2.340901770095     1.735714996705     1.007825032230
         H           -2.263406024749    -2.736301770095     1.065669996705     1.007825032230

  Basis Set: AUG-CC-PVTZ
    Blend: AUG-CC-PVTZ
  Basis Set: (AUG-CC-PVTZ AUX)
    Blend: AUG-CC-PVTZ-JKFIT
	 Reference Energy          =    -566.4699298449955904 [Eh]
	 Singles Energy            =      -0.0000000000000000 [Eh]
	 Same-Spin Energy          =      -0.5965662316904561 [Eh]
	 Opposite-Spin Energy      =      -1.7893311712314928 [Eh]
	 Correlation Energy        =      -2.3858974029219491 [Eh]
	 Total Energy              =    -568.8558272479175457 [Eh]

	 ================> DF-SCS-MP2 Energies <==================
	-----------------------------------------------------------
	 SCS Same-Spin Scale       =       0.3333333333333333 [-]
	 SCS Opposite-Spin Scale   =       1.2000000000000000 [-]
	 SCS Same-Spin Energy      =      -0.1988554105634854 [Eh]
	 SCS Opposite-Spin Energy  =      -2.1471974054777911 [Eh]
	 SCS Correlation Energy    =      -2.3460528160412766 [Eh]
	 SCS Total Energy          =    -568.8159826610368555 [Eh]
	-----------------------------------------------------------

  Dipole Moment: [D]
     X:     0.8773      Y:    -3.9975      Z:     1.0270     Total:     4.2195

*** Psi4 exiting successfully. Buy a developer a beer!
