                               Psi4 1.4a3.dev225

  ==> Input File <==

--------------------------------------------------------------------------
#psi4
#
memory 32 gb

molecule  {
0 1
  O       -0.4387840     2.7607480     0.8353900
  O       -2.1331470    -1.1223190    -0.8372800
  N       -1.8213880     1.6463300    -0.5966440
  N       -1.3631050    -2.2953590     0.9499780
  C        0.3530890     0.6863100    -0.0267190
  C        0.1433535    -0.6075931    -0.0566567
  C        1.6757520     1.1521170    -0.0434370
  C        1.2227880    -1.5827320    -0.1454420
  C        2.7536970     0.2775120    -0.1531960
  C        2.5274700    -1.0985820    -0.2079210
  C       -0.6853200     1.7746360     0.1326930
  C       -1.2296110    -1.3487220    -0.0223170
  H        1.8350890     2.2234210     0.0367700
  H        1.0390000    -2.6541090    -0.1799310
  H        3.7675570     0.6687350    -0.1864300
  H        3.3600860    -1.7923230    -0.2949860
  H       -2.0668670     0.7647910    -1.0387640
  H       -2.5394600     2.3415160    -0.4355780
  H       -0.7232160    -2.3232030     1.7312060
  H       -2.2766340    -2.7186030     1.0611610
units angstrom
no_reorient  #important for SAPT in psi4, default
symmetry c1  #important for SAPT in psi4, default
}

set PROPERTIES_ORIGIN ["COM"]
properties('MP2/aug-cc-pvtz', properties = ['dipole'])
--------------------------------------------------------------------------

    Molecular point group: c1
  Charge       = 0
  Multiplicity = 1
  Basis Set: AUG-CC-PVTZ
    Blend: AUG-CC-PVTZ
  Basis Set: (AUG-CC-PVTZ AUX)
    Blend: AUG-CC-PVTZ-JKFIT

    Orbital Energies [Eh]
    ---------------------

    Doubly Occupied:

       1A    -20.546713     2A    -20.516448     3A    -15.610208
       4A    -15.572658     5A    -11.389012     6A    -11.358086
       7A    -11.279168     8A    -11.267339     9A    -11.261968
      10A    -11.261342    11A    -11.255904    12A    -11.254625
      13A     -1.400246    14A     -1.370666    15A     -1.235485
      16A     -1.205844    17A     -1.179970    18A     -1.063502
      19A     -1.037589    20A     -0.898850    21A     -0.867472
      22A     -0.833689    23A     -0.786490    24A     -0.763012
      25A     -0.723832    26A     -0.699780    27A     -0.682794
      28A     -0.669350    29A     -0.647514    30A     -0.631954
      31A     -0.604444    32A     -0.592241    33A     -0.582657
      34A     -0.566769    35A     -0.536090    36A     -0.529203
      37A     -0.519250    38A     -0.449934    39A     -0.441093
      40A     -0.427243    41A     -0.403316    42A     -0.374094
      43A     -0.349470

  @DF-RHF Final Energy:  -566.46060047925505

   => Energetics <=

    Nuclear Repulsion Energy =            670.3829018878855095
    One-Electron Energy =               -2102.3923803291017975
    Two-Electron Energy =                 865.5488779619612387
    Total Energy =                       -566.4606004792550493
  Basis Set: (AUG-CC-PVTZ AUX)
    Blend: AUG-CC-PVTZ-RI
    Molecular point group: c1

    Geometry (in Angstrom), charge = 0, multiplicity = 1:

       Center              X                  Y                   Z               Mass
    ------------   -----------------  -----------------  -----------------  -----------------
         O           -0.425486398399     2.732487368244     0.839410163989    15.994914619570
         O           -2.119849398399    -1.150579631756    -0.833259836011    15.994914619570
         N           -1.808090398399     1.618069368244    -0.592623836011    14.003074004430
         N           -1.349807398399    -2.323619631756     0.953998163989    14.003074004430
         C            0.366386601601     0.658049368244    -0.022698836011    12.000000000000
         C            0.156651101601    -0.635853731756    -0.052636536011    12.000000000000
         C            1.689049601601     1.123856368244    -0.039416836011    12.000000000000
         C            1.236085601601    -1.610992631756    -0.141421836011    12.000000000000
         C            2.766994601601     0.249251368244    -0.149175836011    12.000000000000
         C            2.540767601601    -1.126842631756    -0.203900836011    12.000000000000
         C           -0.672022398399     1.746375368244     0.136713163989    12.000000000000
         C           -1.216313398399    -1.376982631756    -0.018296836011    12.000000000000
         H            1.848386601601     2.195160368244     0.040790163989     1.007825032230
         H            1.052297601601    -2.682369631756    -0.175910836011     1.007825032230
         H            3.780854601601     0.640474368244    -0.182409836011     1.007825032230
         H            3.373383601601    -1.820583631756    -0.290965836011     1.007825032230
         H           -2.053569398399     0.736530368244    -1.034743836011     1.007825032230
         H           -2.526162398399     2.313255368244    -0.431557836011     1.007825032230
         H           -0.709918398399    -2.351463631756     1.735226163989     1.007825032230
         H           -2.263336398399    -2.746863631756     1.065181163989     1.007825032230

  Basis Set: AUG-CC-PVTZ
    Blend: AUG-CC-PVTZ
  Basis Set: (AUG-CC-PVTZ AUX)
    Blend: AUG-CC-PVTZ-JKFIT
	 Reference Energy          =    -566.4606004792550493 [Eh]
	 Singles Energy            =      -0.0000000000000000 [Eh]
	 Same-Spin Energy          =      -0.5960460548604984 [Eh]
	 Opposite-Spin Energy      =      -1.7892950772682181 [Eh]
	 Correlation Energy        =      -2.3853411321287163 [Eh]
	 Total Energy              =    -568.8459416113837506 [Eh]

	 ================> DF-SCS-MP2 Energies <==================
	-----------------------------------------------------------
	 SCS Same-Spin Scale       =       0.3333333333333333 [-]
	 SCS Opposite-Spin Scale   =       1.2000000000000000 [-]
	 SCS Same-Spin Energy      =      -0.1986820182868328 [Eh]
	 SCS Opposite-Spin Energy  =      -2.1471540927218618 [Eh]
	 SCS Correlation Energy    =      -2.3458361110086945 [Eh]
	 SCS Total Energy          =    -568.8064365902637292 [Eh]
	-----------------------------------------------------------

  Dipole Moment: [D]
     X:     0.8377      Y:    -4.0336      Z:     1.0278     Total:     4.2460

*** Psi4 exiting successfully. Buy a developer a beer!
