                               Psi4 1.4a3.dev225

  ==> Input File <==

--------------------------------------------------------------------------
#psi4
#
memory 32 gb

molecule  {
0 1
  O       -0.4576059     2.7694462     0.8294561
  O       -2.1331470    -1.1223190    -0.8372800
  N       -1.8213880     1.6463300    -0.5966440
  N       -1.3631050    -2.2953590     0.9499780
  C        0.3530890     0.6863100    -0.0267190
  C        0.1273570    -0.7062790    -0.0589400
  C        1.6757520     1.1521170    -0.0434370
  C        1.2227880    -1.5827320    -0.1454420
  C        2.7536970     0.2775120    -0.1531960
  C        2.5274700    -1.0985820    -0.2079210
  C       -0.6853200     1.7746360     0.1326930
  C       -1.2296110    -1.3487220    -0.0223170
  H        1.8350890     2.2234210     0.0367700
  H        1.0390000    -2.6541090    -0.1799310
  H        3.7675570     0.6687350    -0.1864300
  H        3.3600860    -1.7923230    -0.2949860
  H       -2.0668670     0.7647910    -1.0387640
  H       -2.5394600     2.3415160    -0.4355780
  H       -0.7232160    -2.3232030     1.7312060
  H       -2.2766340    -2.7186030     1.0611610
units angstrom
no_reorient  #important for SAPT in psi4, default
symmetry c1  #important for SAPT in psi4, default
}

set PROPERTIES_ORIGIN ["COM"]
properties('MP2/aug-cc-pvtz', properties = ['dipole'])
--------------------------------------------------------------------------

    Molecular point group: c1
  Charge       = 0
  Multiplicity = 1
  Basis Set: AUG-CC-PVTZ
    Blend: AUG-CC-PVTZ
  Basis Set: (AUG-CC-PVTZ AUX)
    Blend: AUG-CC-PVTZ-JKFIT

    Orbital Energies [Eh]
    ---------------------

    Doubly Occupied:

       1A    -20.547161     2A    -20.514802     3A    -15.609122
       4A    -15.570559     5A    -11.386442     6A    -11.357220
       7A    -11.281206     8A    -11.274074     9A    -11.266072
      10A    -11.262620    11A    -11.258958    12A    -11.256330
      13A     -1.401550    14A     -1.369379    15A     -1.237031
      16A     -1.202258    17A     -1.175363    18A     -1.055862
      19A     -1.047361    20A     -0.908820    21A     -0.869423
      22A     -0.822746    23A     -0.787401    24A     -0.763838
      25A     -0.723887    26A     -0.702840    27A     -0.686308
      28A     -0.659844    29A     -0.649094    30A     -0.631790
      31A     -0.611270    32A     -0.592871    33A     -0.581077
      34A     -0.566314    35A     -0.539268    36A     -0.523641
      37A     -0.517720    38A     -0.455940    39A     -0.441005
      40A     -0.428782    41A     -0.401384    42A     -0.363386
      43A     -0.357098

  @DF-RHF Final Energy:  -566.47179633860776

   => Energetics <=

    Nuclear Repulsion Energy =            669.6634319002198481
    One-Electron Energy =               -2100.9522183338799550
    Two-Electron Energy =                 864.8169900950523470
    Total Energy =                       -566.4717963386077599
  Basis Set: (AUG-CC-PVTZ AUX)
    Blend: AUG-CC-PVTZ-RI
    Molecular point group: c1

    Geometry (in Angstrom), charge = 0, multiplicity = 1:

       Center              X                  Y                   Z               Mass
    ------------   -----------------  -----------------  -----------------  -----------------
         O           -0.441303196861     2.747555877249     0.834221801502    15.994914619570
         O           -2.116844296861    -1.144209322751    -0.832514298498    15.994914619570
         N           -1.805085296861     1.624439677249    -0.591878298498    14.003074004430
         N           -1.346802296861    -2.317249322751     0.954743701502    14.003074004430
         C            0.369391703139     0.664419677249    -0.021953298498    12.000000000000
         C            0.143659703139    -0.728169322751    -0.054174298498    12.000000000000
         C            1.692054703139     1.130226677249    -0.038671298498    12.000000000000
         C            1.239090703139    -1.604622322751    -0.140676298498    12.000000000000
         C            2.769999703139     0.255621677249    -0.148430298498    12.000000000000
         C            2.543772703139    -1.120472322751    -0.203155298498    12.000000000000
         C           -0.669017296861     1.752745677249     0.137458701502    12.000000000000
         C           -1.213308296861    -1.370612322751    -0.017551298498    12.000000000000
         H            1.851391703139     2.201530677249     0.041535701502     1.007825032230
         H            1.055302703139    -2.675999322751    -0.175165298498     1.007825032230
         H            3.783859703139     0.646844677249    -0.181664298498     1.007825032230
         H            3.376388703139    -1.814213322751    -0.290220298498     1.007825032230
         H           -2.050564296861     0.742900677249    -1.033998298498     1.007825032230
         H           -2.523157296861     2.319625677249    -0.430812298498     1.007825032230
         H           -0.706913296861    -2.345093322751     1.735971701502     1.007825032230
         H           -2.260331296861    -2.740493322751     1.065926701502     1.007825032230

  Basis Set: AUG-CC-PVTZ
    Blend: AUG-CC-PVTZ
  Basis Set: (AUG-CC-PVTZ AUX)
    Blend: AUG-CC-PVTZ-JKFIT
	 Reference Energy          =    -566.4717963386077599 [Eh]
	 Singles Energy            =      -0.0000000000000000 [Eh]
	 Same-Spin Energy          =      -0.5967906522721595 [Eh]
	 Opposite-Spin Energy      =      -1.7896964297050726 [Eh]
	 Correlation Energy        =      -2.3864870819772319 [Eh]
	 Total Energy              =    -568.8582834205849394 [Eh]

	 ================> DF-SCS-MP2 Energies <==================
	-----------------------------------------------------------
	 SCS Same-Spin Scale       =       0.3333333333333333 [-]
	 SCS Opposite-Spin Scale   =       1.2000000000000000 [-]
	 SCS Same-Spin Energy      =      -0.1989302174240532 [Eh]
	 SCS Opposite-Spin Energy  =      -2.1476357156460870 [Eh]
	 SCS Correlation Energy    =      -2.3465659330701403 [Eh]
	 SCS Total Energy          =    -568.8183622716778700 [Eh]
	-----------------------------------------------------------

  Dipole Moment: [D]
     X:     0.9899      Y:    -4.0749      Z:     1.0222     Total:     4.3162

*** Psi4 exiting successfully. Buy a developer a beer!
