                               Psi4 1.4a3.dev225

  ==> Input File <==

--------------------------------------------------------------------------
#psi4
#
memory 32 gb

molecule  {
0 1
  O       -0.4387840     2.7607480     0.8353900
  O       -2.1331470    -1.1223190    -0.8372800
  N       -1.8213880     1.6463300    -0.5966440
  N       -1.3631050    -2.2953590     0.9499780
  C        0.3530890     0.6863100    -0.0267190
  C        0.1273570    -0.7062790    -0.0589400
  C        1.7733640     1.2603531    -0.0440311
  C        1.2227880    -1.5827320    -0.1454420
  C        2.7536970     0.2775120    -0.1531960
  C        2.5274700    -1.0985820    -0.2079210
  C       -0.6853200     1.7746360     0.1326930
  C       -1.2296110    -1.3487220    -0.0223170
  H        1.8350890     2.2234210     0.0367700
  H        1.0390000    -2.6541090    -0.1799310
  H        3.7675570     0.6687350    -0.1864300
  H        3.3600860    -1.7923230    -0.2949860
  H       -2.0668670     0.7647910    -1.0387640
  H       -2.5394600     2.3415160    -0.4355780
  H       -0.7232160    -2.3232030     1.7312060
  H       -2.2766340    -2.7186030     1.0611610
units angstrom
no_reorient  #important for SAPT in psi4, default
symmetry c1  #important for SAPT in psi4, default
}

set PROPERTIES_ORIGIN ["COM"]
properties('MP2/aug-cc-pvtz', properties = ['dipole'])
--------------------------------------------------------------------------

    Molecular point group: c1
  Charge       = 0
  Multiplicity = 1
  Basis Set: AUG-CC-PVTZ
    Blend: AUG-CC-PVTZ
  Basis Set: (AUG-CC-PVTZ AUX)
    Blend: AUG-CC-PVTZ-JKFIT

    Orbital Energies [Eh]
    ---------------------

    Doubly Occupied:

       1A    -20.547671     2A    -20.515596     3A    -15.609575
       4A    -15.571500     5A    -11.387278     6A    -11.357268
       7A    -11.286360     8A    -11.280944     9A    -11.267277
      10A    -11.263406    11A    -11.262063    12A    -11.259701
      13A     -1.401982    14A     -1.369660    15A     -1.237428
      16A     -1.202863    17A     -1.166176    18A     -1.056893
      19A     -1.037977    20A     -0.907924    21A     -0.874198
      22A     -0.827280    23A     -0.782640    24A     -0.766403
      25A     -0.721520    26A     -0.710490    27A     -0.682449
      28A     -0.664480    29A     -0.660973    30A     -0.626707
      31A     -0.619939    32A     -0.589548    33A     -0.580707
      34A     -0.565183    35A     -0.545345    36A     -0.516335
      37A     -0.510295    38A     -0.454030    39A     -0.441485
      40A     -0.427968    41A     -0.402844    42A     -0.367854
      43A     -0.344836

  @DF-RHF Final Energy:  -566.44352512951116

   => Energetics <=

    Nuclear Repulsion Energy =            667.0946558633544328
    One-Electron Energy =               -2095.7302586171076655
    Two-Electron Energy =                 862.1920776242419606
    Total Energy =                       -566.4435251295111584
  Basis Set: (AUG-CC-PVTZ AUX)
    Blend: AUG-CC-PVTZ-RI
    Molecular point group: c1

    Geometry (in Angstrom), charge = 0, multiplicity = 1:

       Center              X                  Y                   Z               Mass
    ------------   -----------------  -----------------  -----------------  -----------------
         O           -0.431456131984     2.731788822628     0.839620630278    15.994914619570
         O           -2.125819131984    -1.151278177372    -0.833049369722    15.994914619570
         N           -1.814060131984     1.617370822628    -0.592413369722    14.003074004430
         N           -1.355777131984    -2.324318177372     0.954208630278    14.003074004430
         C            0.360416868016     0.657350822628    -0.022488369722    12.000000000000
         C            0.134684868016    -0.735238177372    -0.054709369722    12.000000000000
         C            1.780691868016     1.231393922628    -0.039800469722    12.000000000000
         C            1.230115868016    -1.611691177372    -0.141211369722    12.000000000000
         C            2.761024868016     0.248552822628    -0.148965369722    12.000000000000
         C            2.534797868016    -1.127541177372    -0.203690369722    12.000000000000
         C           -0.677992131984     1.745676822628     0.136923630278    12.000000000000
         C           -1.222283131984    -1.377681177372    -0.018086369722    12.000000000000
         H            1.842416868016     2.194461822628     0.041000630278     1.007825032230
         H            1.046327868016    -2.683068177372    -0.175700369722     1.007825032230
         H            3.774884868016     0.639775822628    -0.182199369722     1.007825032230
         H            3.367413868016    -1.821282177372    -0.290755369722     1.007825032230
         H           -2.059539131984     0.735831822628    -1.034533369722     1.007825032230
         H           -2.532132131984     2.312556822628    -0.431347369722     1.007825032230
         H           -0.715888131984    -2.352162177372     1.735436630278     1.007825032230
         H           -2.269306131984    -2.747562177372     1.065391630278     1.007825032230

  Basis Set: AUG-CC-PVTZ
    Blend: AUG-CC-PVTZ
  Basis Set: (AUG-CC-PVTZ AUX)
    Blend: AUG-CC-PVTZ-JKFIT
	 Reference Energy          =    -566.4435251295111584 [Eh]
	 Singles Energy            =      -0.0000000000000000 [Eh]
	 Same-Spin Energy          =      -0.5968985725943662 [Eh]
	 Opposite-Spin Energy      =      -1.7915574018396387 [Eh]
	 Correlation Energy        =      -2.3884559744340050 [Eh]
	 Total Energy              =    -568.8319811039451679 [Eh]

	 ================> DF-SCS-MP2 Energies <==================
	-----------------------------------------------------------
	 SCS Same-Spin Scale       =       0.3333333333333333 [-]
	 SCS Opposite-Spin Scale   =       1.2000000000000000 [-]
	 SCS Same-Spin Energy      =      -0.1989661908647887 [Eh]
	 SCS Opposite-Spin Energy  =      -2.1498688822075662 [Eh]
	 SCS Correlation Energy    =      -2.3488350730723551 [Eh]
	 SCS Total Energy          =    -568.7923602025834953 [Eh]
	-----------------------------------------------------------

  Dipole Moment: [D]
     X:     0.9030      Y:    -4.0560      Z:     1.0152     Total:     4.2775

*** Psi4 exiting successfully. Buy a developer a beer!
