                               Psi4 1.4a3.dev225

  ==> Input File <==

--------------------------------------------------------------------------
#psi4
#
memory 32 gb

molecule  {
0 1
  O       -0.4387840     2.7607480     0.8353900
  O       -2.1331470    -1.1223190    -0.8372800
  N       -1.8213880     1.6463300    -0.5966440
  N       -1.3631050    -2.2953590     0.9499780
  C        0.3530890     0.6863100    -0.0267190
  C        0.1273570    -0.7062790    -0.0589400
  C        1.6757520     1.1521170    -0.0434370
  C        1.2227880    -1.5827320    -0.1454420
  C        2.7536970     0.2775120    -0.1531960
  C        2.5274700    -1.0985820    -0.2079210
  C       -0.6853200     1.7746360     0.1326930
  C       -1.2296110    -1.3487220    -0.0223170
  H        1.8350890     2.2234210     0.0367700
  H        1.0390000    -2.6541090    -0.1799310
  H        3.7675570     0.6687350    -0.1864300
  H        3.3600860    -1.7923230    -0.2949860
  H       -2.0716979     0.7474428    -1.0474647
  H       -2.5394600     2.3415160    -0.4355780
  H       -0.7232160    -2.3232030     1.7312060
  H       -2.2766340    -2.7186030     1.0611610
units angstrom
no_reorient  #important for SAPT in psi4, default
symmetry c1  #important for SAPT in psi4, default
}

set PROPERTIES_ORIGIN ["COM"]
properties('MP2/aug-cc-pvtz', properties = ['dipole'])
--------------------------------------------------------------------------

    Molecular point group: c1
  Charge       = 0
  Multiplicity = 1
  Basis Set: AUG-CC-PVTZ
    Blend: AUG-CC-PVTZ
  Basis Set: (AUG-CC-PVTZ AUX)
    Blend: AUG-CC-PVTZ-JKFIT

    Orbital Energies [Eh]
    ---------------------

    Doubly Occupied:

       1A    -20.547773     2A    -20.514808     3A    -15.609396
       4A    -15.572535     5A    -11.386842     6A    -11.357056
       7A    -11.280586     8A    -11.273196     9A    -11.265643
      10A    -11.262029    11A    -11.258435    12A    -11.255547
      13A     -1.402228    14A     -1.368987    15A     -1.237325
      16A     -1.200873    17A     -1.174688    18A     -1.055336
      19A     -1.046627    20A     -0.908345    21A     -0.868846
      22A     -0.822368    23A     -0.786741    24A     -0.763014
      25A     -0.721639    26A     -0.702303    27A     -0.685897
      28A     -0.659432    29A     -0.649161    30A     -0.631857
      31A     -0.611135    32A     -0.592028    33A     -0.580772
      34A     -0.566126    35A     -0.538893    36A     -0.522946
      37A     -0.517210    38A     -0.456167    39A     -0.441433
      40A     -0.428544    41A     -0.401561    42A     -0.362924
      43A     -0.356243

  @DF-RHF Final Energy:  -566.47075770598030

   => Energetics <=

    Nuclear Repulsion Energy =            669.7312907782628599
    One-Electron Energy =               -2101.1131055574005586
    Two-Electron Energy =                 864.9110570731572807
    Total Energy =                       -566.4707577059803043
  Basis Set: (AUG-CC-PVTZ AUX)
    Blend: AUG-CC-PVTZ-RI
    Molecular point group: c1

    Geometry (in Angstrom), charge = 0, multiplicity = 1:

       Center              X                  Y                   Z               Mass
    ------------   -----------------  -----------------  -----------------  -----------------
         O           -0.424286664103     2.739812280897     0.839630624168    15.994914619570
         O           -2.118649664103    -1.143254719103    -0.833039375832    15.994914619570
         N           -1.806890664103     1.625394280897    -0.592403375832    14.003074004430
         N           -1.348607664103    -2.316294719103     0.954218624168    14.003074004430
         C            0.367586335897     0.665374280897    -0.022478375832    12.000000000000
         C            0.141854335897    -0.727214719103    -0.054699375832    12.000000000000
         C            1.690249335897     1.131181280897    -0.039196375832    12.000000000000
         C            1.237285335897    -1.603667719103    -0.141201375832    12.000000000000
         C            2.768194335897     0.256576280897    -0.148955375832    12.000000000000
         C            2.541967335897    -1.119517719103    -0.203680375832    12.000000000000
         C           -0.670822664103     1.753700280897     0.136933624168    12.000000000000
         C           -1.215113664103    -1.369657719103    -0.018076375832    12.000000000000
         H            1.849586335897     2.202485280897     0.041010624168     1.007825032230
         H            1.053497335897    -2.675044719103    -0.175690375832     1.007825032230
         H            3.782054335897     0.647799280897    -0.182189375832     1.007825032230
         H            3.374583335897    -1.813258719103    -0.290745375832     1.007825032230
         H           -2.057200564103     0.726507080897    -1.043224075832     1.007825032230
         H           -2.524962664103     2.320580280897    -0.431337375832     1.007825032230
         H           -0.708718664103    -2.344138719103     1.735446624168     1.007825032230
         H           -2.262136664103    -2.739538719103     1.065401624168     1.007825032230

  Basis Set: AUG-CC-PVTZ
    Blend: AUG-CC-PVTZ
  Basis Set: (AUG-CC-PVTZ AUX)
    Blend: AUG-CC-PVTZ-JKFIT
	 Reference Energy          =    -566.4707577059803043 [Eh]
	 Singles Energy            =      -0.0000000000000000 [Eh]
	 Same-Spin Energy          =      -0.5970330681128669 [Eh]
	 Opposite-Spin Energy      =      -1.7900612968044509 [Eh]
	 Correlation Energy        =      -2.3870943649173180 [Eh]
	 Total Energy              =    -568.8578520708975930 [Eh]

	 ================> DF-SCS-MP2 Energies <==================
	-----------------------------------------------------------
	 SCS Same-Spin Scale       =       0.3333333333333333 [-]
	 SCS Opposite-Spin Scale   =       1.2000000000000000 [-]
	 SCS Same-Spin Energy      =      -0.1990110227042890 [Eh]
	 SCS Opposite-Spin Energy  =      -2.1480735561653410 [Eh]
	 SCS Correlation Energy    =      -2.3470845788696302 [Eh]
	 SCS Total Energy          =    -568.8178422848499167 [Eh]
	-----------------------------------------------------------

  Dipole Moment: [D]
     X:     0.9225      Y:    -4.0778      Z:     1.0067     Total:     4.3004

*** Psi4 exiting successfully. Buy a developer a beer!
