                               Psi4 1.4a3.dev225

  ==> Input File <==

--------------------------------------------------------------------------
#psi4
#
memory 32 gb

molecule  {
0 1
  O       -0.4387840     2.7607480     0.8353900
  O       -2.1331470    -1.1223190    -0.8372800
  N       -1.8213880     1.6463300    -0.5966440
  N       -1.3631050    -2.2953590     0.9499780
  C        0.3530890     0.6863100    -0.0267190
  C        0.1273570    -0.7062790    -0.0589400
  C        1.6605904     1.1331255    -0.0436978
  C        1.2227880    -1.5827320    -0.1454420
  C        2.7536970     0.2775120    -0.1531960
  C        2.5274700    -1.0985820    -0.2079210
  C       -0.6853200     1.7746360     0.1326930
  C       -1.2296110    -1.3487220    -0.0223170
  H        1.8350890     2.2234210     0.0367700
  H        1.0390000    -2.6541090    -0.1799310
  H        3.7675570     0.6687350    -0.1864300
  H        3.3600860    -1.7923230    -0.2949860
  H       -2.0668670     0.7647910    -1.0387640
  H       -2.5394600     2.3415160    -0.4355780
  H       -0.7232160    -2.3232030     1.7312060
  H       -2.2766340    -2.7186030     1.0611610
units angstrom
no_reorient  #important for SAPT in psi4, default
symmetry c1  #important for SAPT in psi4, default
}

set PROPERTIES_ORIGIN ["COM"]
properties('MP2/aug-cc-pvtz', properties = ['dipole'])
--------------------------------------------------------------------------

    Molecular point group: c1
  Charge       = 0
  Multiplicity = 1
  Basis Set: AUG-CC-PVTZ
    Blend: AUG-CC-PVTZ
  Basis Set: (AUG-CC-PVTZ AUX)
    Blend: AUG-CC-PVTZ-JKFIT

    Orbital Energies [Eh]
    ---------------------

    Doubly Occupied:

       1A    -20.547008     2A    -20.515291     3A    -15.608900
       4A    -15.571938     5A    -11.386112     6A    -11.357651
       7A    -11.280491     8A    -11.270886     9A    -11.265371
      10A    -11.261909    11A    -11.258438    12A    -11.254765
      13A     -1.401412    14A     -1.369547    15A     -1.236823
      16A     -1.203821    17A     -1.176837    18A     -1.055681
      19A     -1.048024    20A     -0.908626    21A     -0.868693
      22A     -0.821626    23A     -0.788490    24A     -0.763701
      25A     -0.724641    26A     -0.701825    27A     -0.687289
      28A     -0.659194    29A     -0.648262    30A     -0.632281
      31A     -0.608603    32A     -0.593550    33A     -0.580996
      34A     -0.566809    35A     -0.541536    36A     -0.518750
      37A     -0.517999    38A     -0.455979    39A     -0.440868
      40A     -0.429154    41A     -0.402445    42A     -0.362385
      43A     -0.358317

  @DF-RHF Final Energy:  -566.47121790869517

   => Energetics <=

    Nuclear Repulsion Energy =            670.2682244996152576
    One-Electron Energy =               -2102.1730312162335395
    Two-Electron Energy =                 865.4335888079230017
    Total Energy =                       -566.4712179086951664
  Basis Set: (AUG-CC-PVTZ AUX)
    Blend: AUG-CC-PVTZ-RI
    Molecular point group: c1

    Geometry (in Angstrom), charge = 0, multiplicity = 1:

       Center              X                  Y                   Z               Mass
    ------------   -----------------  -----------------  -----------------  -----------------
         O           -0.423207351453     2.741094835293     0.839596251181    15.994914619570
         O           -2.117570351453    -1.141972164707    -0.833073748819    15.994914619570
         N           -1.805811351453     1.626676835293    -0.592437748819    14.003074004430
         N           -1.347528351453    -2.315012164707     0.954184251181    14.003074004430
         C            0.368665648547     0.666656835293    -0.022512748819    12.000000000000
         C            0.142933648547    -0.725932164707    -0.054733748819    12.000000000000
         C            1.676167048547     1.113472335293    -0.039491548819    12.000000000000
         C            1.238364648547    -1.602385164707    -0.141235748819    12.000000000000
         C            2.769273648547     0.257858835293    -0.148989748819    12.000000000000
         C            2.543046648547    -1.118235164707    -0.203714748819    12.000000000000
         C           -0.669743351453     1.754982835293     0.136899251181    12.000000000000
         C           -1.214034351453    -1.368375164707    -0.018110748819    12.000000000000
         H            1.850665648547     2.203767835293     0.040976251181     1.007825032230
         H            1.054576648547    -2.673762164707    -0.175724748819     1.007825032230
         H            3.783133648547     0.649081835293    -0.182223748819     1.007825032230
         H            3.375662648547    -1.811976164707    -0.290779748819     1.007825032230
         H           -2.051290351453     0.745137835293    -1.034557748819     1.007825032230
         H           -2.523883351453     2.321862835293    -0.431371748819     1.007825032230
         H           -0.707639351453    -2.342856164707     1.735412251181     1.007825032230
         H           -2.261057351453    -2.738256164707     1.065367251181     1.007825032230

  Basis Set: AUG-CC-PVTZ
    Blend: AUG-CC-PVTZ
  Basis Set: (AUG-CC-PVTZ AUX)
    Blend: AUG-CC-PVTZ-JKFIT
	 Reference Energy          =    -566.4712179086951664 [Eh]
	 Singles Energy            =      -0.0000000000000000 [Eh]
	 Same-Spin Energy          =      -0.5968684614152358 [Eh]
	 Opposite-Spin Energy      =      -1.7897143162506901 [Eh]
	 Correlation Energy        =      -2.3865827776659261 [Eh]
	 Total Energy              =    -568.8578006863610881 [Eh]

	 ================> DF-SCS-MP2 Energies <==================
	-----------------------------------------------------------
	 SCS Same-Spin Scale       =       0.3333333333333333 [-]
	 SCS Opposite-Spin Scale   =       1.2000000000000000 [-]
	 SCS Same-Spin Energy      =      -0.1989561538050786 [Eh]
	 SCS Opposite-Spin Energy  =      -2.1476571795008281 [Eh]
	 SCS Correlation Energy    =      -2.3466133333059065 [Eh]
	 SCS Total Energy          =    -568.8178312420010343 [Eh]
	-----------------------------------------------------------

  Dipole Moment: [D]
     X:     0.9336      Y:    -4.0325      Z:     1.0137     Total:     4.2614

*** Psi4 exiting successfully. Buy a developer a beer!
