                               Psi4 1.4a3.dev225

  ==> Input File <==

--------------------------------------------------------------------------
#psi4
#
memory 32 gb

molecule  {
0 1
  O       -0.4387840     2.7607480     0.8353900
  O       -2.1331470    -1.1223190    -0.8372800
  N       -1.8213880     1.6463300    -0.5966440
  N       -1.3631050    -2.2953590     0.9499780
  C        0.3530890     0.6863100    -0.0267190
  C        0.1273570    -0.7062790    -0.0589400
  C        1.6757520     1.1521170    -0.0434370
  C        1.2227880    -1.5827320    -0.1454420
  C        2.7536970     0.2775120    -0.1531960
  C        2.5274700    -1.0985820    -0.2079210
  C       -0.6853200     1.7746360     0.1326930
  C       -1.1566074    -1.3670148     0.0435301
  H        1.8350890     2.2234210     0.0367700
  H        1.0390000    -2.6541090    -0.1799310
  H        3.7675570     0.6687350    -0.1864300
  H        3.3600860    -1.7923230    -0.2949860
  H       -2.0668670     0.7647910    -1.0387640
  H       -2.5394600     2.3415160    -0.4355780
  H       -0.7232160    -2.3232030     1.7312060
  H       -2.2766340    -2.7186030     1.0611610
units angstrom
no_reorient  #important for SAPT in psi4, default
symmetry c1  #important for SAPT in psi4, default
}

set PROPERTIES_ORIGIN ["COM"]
properties('MP2/aug-cc-pvtz', properties = ['dipole'])
--------------------------------------------------------------------------

    Molecular point group: c1
  Charge       = 0
  Multiplicity = 1
  Basis Set: AUG-CC-PVTZ
    Blend: AUG-CC-PVTZ
  Basis Set: (AUG-CC-PVTZ AUX)
    Blend: AUG-CC-PVTZ-JKFIT

    Orbital Energies [Eh]
    ---------------------

    Doubly Occupied:

       1A    -20.526919     2A    -20.514078     3A    -15.624211
       4A    -15.567562     5A    -11.386761     6A    -11.356503
       7A    -11.282156     8A    -11.277650     9A    -11.269595
      10A    -11.264666    11A    -11.262017    12A    -11.258358
      13A     -1.369095    14A     -1.355479    15A     -1.240811
      16A     -1.200120    17A     -1.179703    18A     -1.064172
      19A     -1.050629    20A     -0.919741    21A     -0.872109
      22A     -0.831360    23A     -0.791566    24A     -0.767867
      25A     -0.730161    26A     -0.711257    27A     -0.684996
      28A     -0.663837    29A     -0.644224    30A     -0.624574
      31A     -0.601884    32A     -0.581924    33A     -0.576086
      34A     -0.561289    35A     -0.534355    36A     -0.527155
      37A     -0.519026    38A     -0.443887    39A     -0.432761
      40A     -0.425578    41A     -0.397566    42A     -0.364432
      43A     -0.358967

  @DF-RHF Final Energy:  -566.44991717639789

   => Energetics <=

    Nuclear Repulsion Energy =            669.8549923612754355
    One-Electron Energy =               -2101.3756440823499361
    Two-Electron Energy =                 865.0707345446766112
    Total Energy =                       -566.4499171763978893
  Basis Set: (AUG-CC-PVTZ AUX)
    Blend: AUG-CC-PVTZ-RI
    Molecular point group: c1

    Geometry (in Angstrom), charge = 0, multiplicity = 1:

       Center              X                  Y                   Z               Mass
    ------------   -----------------  -----------------  -----------------  -----------------
         O           -0.429656160263     2.741043729157     0.834760814887    15.994914619570
         O           -2.124019160263    -1.142023270843    -0.837909185113    15.994914619570
         N           -1.812260160263     1.626625729157    -0.597273185113    14.003074004430
         N           -1.353977160263    -2.315063270843     0.949348814887    14.003074004430
         C            0.362216839737     0.666605729157    -0.027348185113    12.000000000000
         C            0.136484839737    -0.725983270843    -0.059569185113    12.000000000000
         C            1.684879839737     1.132412729157    -0.044066185113    12.000000000000
         C            1.231915839737    -1.602436270843    -0.146071185113    12.000000000000
         C            2.762824839737     0.257807729157    -0.153825185113    12.000000000000
         C            2.536597839737    -1.118286270843    -0.208550185113    12.000000000000
         C           -0.676192160263     1.754931729157     0.132063814887    12.000000000000
         C           -1.147479560263    -1.386719070843     0.042900914887    12.000000000000
         H            1.844216839737     2.203716729157     0.036140814887     1.007825032230
         H            1.048127839737    -2.673813270843    -0.180560185113     1.007825032230
         H            3.776684839737     0.649030729157    -0.187059185113     1.007825032230
         H            3.369213839737    -1.812027270843    -0.295615185113     1.007825032230
         H           -2.057739160263     0.745086729157    -1.039393185113     1.007825032230
         H           -2.530332160263     2.321811729157    -0.436207185113     1.007825032230
         H           -0.714088160263    -2.342907270843     1.730576814887     1.007825032230
         H           -2.267506160263    -2.738307270843     1.060531814887     1.007825032230

  Basis Set: AUG-CC-PVTZ
    Blend: AUG-CC-PVTZ
  Basis Set: (AUG-CC-PVTZ AUX)
    Blend: AUG-CC-PVTZ-JKFIT
	 Reference Energy          =    -566.4499171763978893 [Eh]
	 Singles Energy            =      -0.0000000000000000 [Eh]
	 Same-Spin Energy          =      -0.5992728352326735 [Eh]
	 Opposite-Spin Energy      =      -1.7941779275536853 [Eh]
	 Correlation Energy        =      -2.3934507627863590 [Eh]
	 Total Energy              =    -568.8433679391843043 [Eh]

	 ================> DF-SCS-MP2 Energies <==================
	-----------------------------------------------------------
	 SCS Same-Spin Scale       =       0.3333333333333333 [-]
	 SCS Opposite-Spin Scale   =       1.2000000000000000 [-]
	 SCS Same-Spin Energy      =      -0.1997576117442245 [Eh]
	 SCS Opposite-Spin Energy  =      -2.1530135130644221 [Eh]
	 SCS Correlation Energy    =      -2.3527711248086467 [Eh]
	 SCS Total Energy          =    -568.8026883012065582 [Eh]
	-----------------------------------------------------------

  Dipole Moment: [D]
     X:     1.3421      Y:    -4.2844      Z:     1.5026     Total:     4.7344

*** Psi4 exiting successfully. Buy a developer a beer!
