                               Psi4 1.4a3.dev225

  ==> Input File <==

--------------------------------------------------------------------------
#psi4
#
memory 32 gb

molecule  {
0 1
  O       -0.4387840     2.7607480     0.8353900
  O       -2.1331470    -1.1223190    -0.8372800
  N       -1.8213880     1.6463300    -0.5966440
  N       -1.3631050    -2.2953590     0.9499780
  C        0.3530890     0.6863100    -0.0267190
  C        0.1273570    -0.7062790    -0.0589400
  C        1.6757520     1.1521170    -0.0434370
  C        1.2227880    -1.5827320    -0.1454420
  C        2.7536970     0.2775120    -0.1531960
  C        2.5274700    -1.0985820    -0.2079210
  C       -0.6853200     1.7746360     0.1326930
  C       -1.2296110    -1.3487220    -0.0223170
  H        1.8277534     2.1741001     0.0330774
  H        1.0390000    -2.6541090    -0.1799310
  H        3.7675570     0.6687350    -0.1864300
  H        3.3600860    -1.7923230    -0.2949860
  H       -2.0668670     0.7647910    -1.0387640
  H       -2.5394600     2.3415160    -0.4355780
  H       -0.7232160    -2.3232030     1.7312060
  H       -2.2766340    -2.7186030     1.0611610
units angstrom
no_reorient  #important for SAPT in psi4, default
symmetry c1  #important for SAPT in psi4, default
}

set PROPERTIES_ORIGIN ["COM"]
properties('MP2/aug-cc-pvtz', properties = ['dipole'])
--------------------------------------------------------------------------

    Molecular point group: c1
  Charge       = 0
  Multiplicity = 1
  Basis Set: AUG-CC-PVTZ
    Blend: AUG-CC-PVTZ
  Basis Set: (AUG-CC-PVTZ AUX)
    Blend: AUG-CC-PVTZ-JKFIT

    Orbital Energies [Eh]
    ---------------------

    Doubly Occupied:

       1A    -20.547040     2A    -20.515451     3A    -15.608941
       4A    -15.571848     5A    -11.386201     6A    -11.357587
       7A    -11.280381     8A    -11.273042     9A    -11.265589
      10A    -11.261928    11A    -11.258209    12A    -11.250440
      13A     -1.401433    14A     -1.369659    15A     -1.236843
      16A     -1.203631    17A     -1.175193    18A     -1.055407
      19A     -1.048305    20A     -0.908445    21A     -0.870848
      22A     -0.824463    23A     -0.787457    24A     -0.764824
      25A     -0.724080    26A     -0.704504    27A     -0.686548
      28A     -0.659735    29A     -0.651044    30A     -0.632997
      31A     -0.614084    32A     -0.592828    33A     -0.580993
      34A     -0.566755    35A     -0.538825    36A     -0.526718
      37A     -0.517226    38A     -0.455818    39A     -0.440955
      40A     -0.429100    41A     -0.402598    42A     -0.362808
      43A     -0.356321

  @DF-RHF Final Energy:  -566.47114689199839

   => Energetics <=

    Nuclear Repulsion Energy =            670.0680195043117919
    One-Electron Energy =               -2101.7441312220776126
    Two-Electron Energy =                 865.2049648257673198
    Total Energy =                       -566.4711468919983872
  Basis Set: (AUG-CC-PVTZ AUX)
    Blend: AUG-CC-PVTZ-RI
    Molecular point group: c1

    Geometry (in Angstrom), charge = 0, multiplicity = 1:

       Center              X                  Y                   Z               Mass
    ------------   -----------------  -----------------  -----------------  -----------------
         O           -0.424271277530     2.740008691764     0.839599859007    15.994914619570
         O           -2.118634277530    -1.143058308236    -0.833070140993    15.994914619570
         N           -1.806875277530     1.625590691764    -0.592434140993    14.003074004430
         N           -1.348592277530    -2.316098308236     0.954187859007    14.003074004430
         C            0.367601722470     0.665570691764    -0.022509140993    12.000000000000
         C            0.141869722470    -0.727018308236    -0.054730140993    12.000000000000
         C            1.690264722470     1.131377691764    -0.039227140993    12.000000000000
         C            1.237300722470    -1.603471308236    -0.141232140993    12.000000000000
         C            2.768209722470     0.256772691764    -0.148986140993    12.000000000000
         C            2.541982722470    -1.119321308236    -0.203711140993    12.000000000000
         C           -0.670807277530     1.753896691764     0.136902859007    12.000000000000
         C           -1.215098277530    -1.369461308236    -0.018107140993    12.000000000000
         H            1.842266122470     2.153360791764     0.037287259007     1.007825032230
         H            1.053512722470    -2.674848308236    -0.175721140993     1.007825032230
         H            3.782069722470     0.647995691764    -0.182220140993     1.007825032230
         H            3.374598722470    -1.813062308236    -0.290776140993     1.007825032230
         H           -2.052354277530     0.744051691764    -1.034554140993     1.007825032230
         H           -2.524947277530     2.320776691764    -0.431368140993     1.007825032230
         H           -0.708703277530    -2.343942308236     1.735415859007     1.007825032230
         H           -2.262121277530    -2.739342308236     1.065370859007     1.007825032230

  Basis Set: AUG-CC-PVTZ
    Blend: AUG-CC-PVTZ
  Basis Set: (AUG-CC-PVTZ AUX)
    Blend: AUG-CC-PVTZ-JKFIT
	 Reference Energy          =    -566.4711468919983872 [Eh]
	 Singles Energy            =      -0.0000000000000000 [Eh]
	 Same-Spin Energy          =      -0.5966535939207069 [Eh]
	 Opposite-Spin Energy      =      -1.7893392622988404 [Eh]
	 Correlation Energy        =      -2.3859928562195476 [Eh]
	 Total Energy              =    -568.8571397482179464 [Eh]

	 ================> DF-SCS-MP2 Energies <==================
	-----------------------------------------------------------
	 SCS Same-Spin Scale       =       0.3333333333333333 [-]
	 SCS Opposite-Spin Scale   =       1.2000000000000000 [-]
	 SCS Same-Spin Energy      =      -0.1988845313069023 [Eh]
	 SCS Opposite-Spin Energy  =      -2.1472071147586083 [Eh]
	 SCS Correlation Energy    =      -2.3460916460655103 [Eh]
	 SCS Total Energy          =    -568.8172385380638616 [Eh]
	-----------------------------------------------------------

  Dipole Moment: [D]
     X:     0.9341      Y:    -4.0367      Z:     1.0104     Total:     4.2647

*** Psi4 exiting successfully. Buy a developer a beer!
