                               Psi4 1.4a3.dev225

  ==> Input File <==

--------------------------------------------------------------------------
#psi4
#
memory 32 gb

molecule  {
0 1
  O       -0.4387840     2.7607480     0.8353900
  O       -2.1331470    -1.1223190    -0.8372800
  N       -1.8213880     1.6463300    -0.5966440
  N       -1.3631050    -2.2953590     0.9499780
  C        0.3530890     0.6863100    -0.0267190
  C        0.1273570    -0.7062790    -0.0589400
  C        1.6757520     1.1521170    -0.0434370
  C        1.2227880    -1.5827320    -0.1454420
  C        2.7536970     0.2775120    -0.1531960
  C        2.5274700    -1.0985820    -0.2079210
  C       -0.6853200     1.7746360     0.1326930
  C       -1.2296110    -1.3487220    -0.0223170
  H        1.8350890     2.2234210     0.0367700
  H        1.0390000    -2.6541090    -0.1799310
  H        3.7675570     0.6687350    -0.1864300
  H        3.2835058    -1.7285159    -0.2869782
  H       -2.0668670     0.7647910    -1.0387640
  H       -2.5394600     2.3415160    -0.4355780
  H       -0.7232160    -2.3232030     1.7312060
  H       -2.2766340    -2.7186030     1.0611610
units angstrom
no_reorient  #important for SAPT in psi4, default
symmetry c1  #important for SAPT in psi4, default
}

set PROPERTIES_ORIGIN ["COM"]
properties('MP2/aug-cc-pvtz', properties = ['dipole'])
--------------------------------------------------------------------------

    Molecular point group: c1
  Charge       = 0
  Multiplicity = 1
  Basis Set: AUG-CC-PVTZ
    Blend: AUG-CC-PVTZ
  Basis Set: (AUG-CC-PVTZ AUX)
    Blend: AUG-CC-PVTZ-JKFIT

    Orbital Energies [Eh]
    ---------------------

    Doubly Occupied:

       1A    -20.546849     2A    -20.515157     3A    -15.608801
       4A    -15.571690     5A    -11.385988     6A    -11.357381
       7A    -11.280041     8A    -11.273070     9A    -11.264850
      10A    -11.257903    11A    -11.255095    12A    -11.250213
      13A     -1.401253    14A     -1.369401    15A     -1.236690
      16A     -1.203452    17A     -1.175246    18A     -1.057634
      19A     -1.047525    20A     -0.909924    21A     -0.872826
      22A     -0.822376    23A     -0.790099    24A     -0.766534
      25A     -0.724376    26A     -0.707506    27A     -0.686509
      28A     -0.662908    29A     -0.652510    30A     -0.631504
      31A     -0.610700    32A     -0.595602    33A     -0.581605
      34A     -0.567053    35A     -0.541581    36A     -0.524413
      37A     -0.516948    38A     -0.455808    39A     -0.440778
      40A     -0.428879    41A     -0.402351    42A     -0.362513
      43A     -0.356000

  @DF-RHF Final Energy:  -566.46602296137166

   => Energetics <=

    Nuclear Repulsion Energy =            670.3705835293593509
    One-Electron Energy =               -2102.3341271804906683
    Two-Electron Energy =                 865.4975206897595399
    Total Energy =                       -566.4660229613716638
  Basis Set: (AUG-CC-PVTZ AUX)
    Blend: AUG-CC-PVTZ-RI
    Molecular point group: c1

    Geometry (in Angstrom), charge = 0, multiplicity = 1:

       Center              X                  Y                   Z               Mass
    ------------   -----------------  -----------------  -----------------  -----------------
         O           -0.423845902384     2.739313737364     0.839527982509    15.994914619570
         O           -2.118208902384    -1.143753262636    -0.833142017491    15.994914619570
         N           -1.806449902384     1.624895737364    -0.592506017491    14.003074004430
         N           -1.348166902384    -2.316793262636     0.954115982509    14.003074004430
         C            0.368027097616     0.664875737364    -0.022581017491    12.000000000000
         C            0.142295097616    -0.727713262636    -0.054802017491    12.000000000000
         C            1.690690097616     1.130682737364    -0.039299017491    12.000000000000
         C            1.237726097616    -1.604166262636    -0.141304017491    12.000000000000
         C            2.768635097616     0.256077737364    -0.149058017491    12.000000000000
         C            2.542408097616    -1.120016262636    -0.203783017491    12.000000000000
         C           -0.670381902384     1.753201737364     0.136830982509    12.000000000000
         C           -1.214672902384    -1.370156262636    -0.018179017491    12.000000000000
         H            1.850027097616     2.201986737364     0.040907982509     1.007825032230
         H            1.053938097616    -2.675543262636    -0.175793017491     1.007825032230
         H            3.782495097616     0.647300737364    -0.182292017491     1.007825032230
         H            3.298443897616    -1.749950162636    -0.282840217491     1.007825032230
         H           -2.051928902384     0.743356737364    -1.034626017491     1.007825032230
         H           -2.524521902384     2.320081737364    -0.431440017491     1.007825032230
         H           -0.708277902384    -2.344637262636     1.735343982509     1.007825032230
         H           -2.261695902384    -2.740037262636     1.065298982509     1.007825032230

  Basis Set: AUG-CC-PVTZ
    Blend: AUG-CC-PVTZ
  Basis Set: (AUG-CC-PVTZ AUX)
    Blend: AUG-CC-PVTZ-JKFIT
	 Reference Energy          =    -566.4660229613716638 [Eh]
	 Singles Energy            =      -0.0000000000000000 [Eh]
	 Same-Spin Energy          =      -0.5966695718082521 [Eh]
	 Opposite-Spin Energy      =      -1.7892094290139851 [Eh]
	 Correlation Energy        =      -2.3858790008222370 [Eh]
	 Total Energy              =    -568.8519019621938924 [Eh]

	 ================> DF-SCS-MP2 Energies <==================
	-----------------------------------------------------------
	 SCS Same-Spin Scale       =       0.3333333333333333 [-]
	 SCS Opposite-Spin Scale   =       1.2000000000000000 [-]
	 SCS Same-Spin Energy      =      -0.1988898572694174 [Eh]
	 SCS Opposite-Spin Energy  =      -2.1470513148167818 [Eh]
	 SCS Correlation Energy    =      -2.3459411720861993 [Eh]
	 SCS Total Energy          =    -568.8119641334578773 [Eh]
	-----------------------------------------------------------

  Dipole Moment: [D]
     X:     0.9505      Y:    -4.0429      Z:     1.0124     Total:     4.2748

*** Psi4 exiting successfully. Buy a developer a beer!
