                               Psi4 1.4a3.dev225

  ==> Input File <==

--------------------------------------------------------------------------
#psi4
#
memory 32 gb

molecule  {
0 1
  O       -0.4387840     2.7607480     0.8353900
  O       -2.1331470    -1.1223190    -0.8372800
  N       -1.8213880     1.6463300    -0.5966440
  N       -1.3631050    -2.2953590     0.9499780
  C        0.3530890     0.6863100    -0.0267190
  C        0.1273570    -0.7062790    -0.0589400
  C        1.6757520     1.1521170    -0.0434370
  C        1.2227880    -1.5827320    -0.1454420
  C        2.7536970     0.2775120    -0.1531960
  C        2.5274700    -1.0985820    -0.2079210
  C       -0.6853200     1.7746360     0.1326930
  C       -1.2296110    -1.3487220    -0.0223170
  H        1.8350890     2.2234210     0.0367700
  H        1.0390000    -2.6541090    -0.1799310
  H        3.7675570     0.6687350    -0.1864300
  H        3.3600860    -1.7923230    -0.2949860
  H       -2.0668670     0.7647910    -1.0387640
  H       -2.5394600     2.3415160    -0.4355780
  H       -0.7232160    -2.3232030     1.7312060
  H       -2.4570071    -2.8021711     1.0831137
units angstrom
no_reorient  #important for SAPT in psi4, default
symmetry c1  #important for SAPT in psi4, default
}

set PROPERTIES_ORIGIN ["COM"]
properties('MP2/aug-cc-pvtz', properties = ['dipole'])
--------------------------------------------------------------------------

    Molecular point group: c1
  Charge       = 0
  Multiplicity = 1
  Basis Set: AUG-CC-PVTZ
    Blend: AUG-CC-PVTZ
  Basis Set: (AUG-CC-PVTZ AUX)
    Blend: AUG-CC-PVTZ-JKFIT

    Orbital Energies [Eh]
    ---------------------

    Doubly Occupied:

       1A    -20.544718     2A    -20.514796     3A    -15.622426
       4A    -15.571205     5A    -11.384843     6A    -11.357027
       7A    -11.280584     8A    -11.272849     9A    -11.265005
      10A    -11.261503    11A    -11.257996    12A    -11.255208
      13A     -1.398044    14A     -1.369019    15A     -1.220575
      16A     -1.202952    17A     -1.172586    18A     -1.053184
      19A     -1.045394    20A     -0.902325    21A     -0.867389
      22A     -0.816017    23A     -0.786050    24A     -0.757839
      25A     -0.716164    26A     -0.685881    27A     -0.677455
      28A     -0.654998    29A     -0.645217    30A     -0.627255
      31A     -0.605866    32A     -0.591466    33A     -0.576778
      34A     -0.565630    35A     -0.538065    36A     -0.522021
      37A     -0.516349    38A     -0.453943    39A     -0.437446
      40A     -0.428062    41A     -0.401808    42A     -0.362196
      43A     -0.355774

  @DF-RHF Final Energy:  -566.44193645743530

   => Energetics <=

    Nuclear Repulsion Energy =            668.7493806623359660
    One-Electron Energy =               -2099.2988202639398878
    Two-Electron Energy =                 864.1075031441685042
    Total Energy =                       -566.4419364574353040
  Basis Set: (AUG-CC-PVTZ AUX)
    Blend: AUG-CC-PVTZ-RI
    Molecular point group: c1

    Geometry (in Angstrom), charge = 0, multiplicity = 1:

       Center              X                  Y                   Z               Mass
    ------------   -----------------  -----------------  -----------------  -----------------
         O           -0.423208294255     2.740219075067     0.839442317867    15.994914619570
         O           -2.117571294255    -1.142847924933    -0.833227682133    15.994914619570
         N           -1.805812294255     1.625801075067    -0.592591682133    14.003074004430
         N           -1.347529294255    -2.315887924933     0.954030317867    14.003074004430
         C            0.368664705745     0.665781075067    -0.022666682133    12.000000000000
         C            0.142932705745    -0.726807924933    -0.054887682133    12.000000000000
         C            1.691327705745     1.131588075067    -0.039384682133    12.000000000000
         C            1.238363705745    -1.603260924933    -0.141389682133    12.000000000000
         C            2.769272705745     0.256983075067    -0.149143682133    12.000000000000
         C            2.543045705745    -1.119110924933    -0.203868682133    12.000000000000
         C           -0.669744294255     1.754107075067     0.136745317867    12.000000000000
         C           -1.214035294255    -1.369250924933    -0.018264682133    12.000000000000
         H            1.850664705745     2.202892075067     0.040822317867     1.007825032230
         H            1.054575705745    -2.674637924933    -0.175878682133     1.007825032230
         H            3.783132705745     0.648206075067    -0.182377682133     1.007825032230
         H            3.375661705745    -1.812851924933    -0.290933682133     1.007825032230
         H           -2.051291294255     0.744262075067    -1.034711682133     1.007825032230
         H           -2.523884294255     2.320987075067    -0.431525682133     1.007825032230
         H           -0.707640294255    -2.343731924933     1.735258317867     1.007825032230
         H           -2.441431394255    -2.822700024933     1.087166017867     1.007825032230

  Basis Set: AUG-CC-PVTZ
    Blend: AUG-CC-PVTZ
  Basis Set: (AUG-CC-PVTZ AUX)
    Blend: AUG-CC-PVTZ-JKFIT
	 Reference Energy          =    -566.4419364574353040 [Eh]
	 Singles Energy            =      -0.0000000000000000 [Eh]
	 Same-Spin Energy          =      -0.5982581339147393 [Eh]
	 Opposite-Spin Energy      =      -1.7936227822949182 [Eh]
	 Correlation Energy        =      -2.3918809162096575 [Eh]
	 Total Energy              =    -568.8338173736449335 [Eh]

	 ================> DF-SCS-MP2 Energies <==================
	-----------------------------------------------------------
	 SCS Same-Spin Scale       =       0.3333333333333333 [-]
	 SCS Opposite-Spin Scale   =       1.2000000000000000 [-]
	 SCS Same-Spin Energy      =      -0.1994193779715797 [Eh]
	 SCS Opposite-Spin Energy  =      -2.1523473387539016 [Eh]
	 SCS Correlation Energy    =      -2.3517667167254812 [Eh]
	 SCS Total Energy          =    -568.7937031741607825 [Eh]
	-----------------------------------------------------------

  Dipole Moment: [D]
     X:     0.7495      Y:    -4.1376      Z:     1.0473     Total:     4.3334

*** Psi4 exiting successfully. Buy a developer a beer!
