                               Psi4 1.4a3.dev225

  ==> Input File <==

--------------------------------------------------------------------------
#psi4
#
memory 32 gb

molecule  {
0 1
  O       -0.4387840     2.7607480     0.8353900
  O       -2.1331470    -1.1223190    -0.8372800
  N       -1.8213880     1.6463300    -0.5966440
  N       -1.3631050    -2.2953590     0.9499780
  C        0.3530890     0.6863100    -0.0267190
  C        0.1273570    -0.7062790    -0.0589400
  C        1.6606045     1.1331124    -0.0434549
  C        1.2227880    -1.5827320    -0.1454420
  C        2.7536970     0.2775120    -0.1531960
  C        2.5274700    -1.0985820    -0.2079210
  C       -0.6853200     1.7746360     0.1326930
  C       -1.2296110    -1.3487220    -0.0223170
  H        1.8350890     2.2234210     0.0367700
  H        1.0390000    -2.6541090    -0.1799310
  H        3.7675570     0.6687350    -0.1864300
  H        3.3600860    -1.7923230    -0.2949860
  H       -2.0668670     0.7647910    -1.0387640
  H       -2.5394600     2.3415160    -0.4355780
  H       -0.7232160    -2.3232030     1.7312060
  H       -2.2766340    -2.7186030     1.0611610
units angstrom
no_reorient  #important for SAPT in psi4, default
symmetry c1  #important for SAPT in psi4, default
}

set PROPERTIES_ORIGIN ["COM"]
properties('MP2/aug-cc-pvtz', properties = ['dipole'])
--------------------------------------------------------------------------

    Molecular point group: c1
  Charge       = 0
  Multiplicity = 1
  Basis Set: AUG-CC-PVTZ
    Blend: AUG-CC-PVTZ
  Basis Set: (AUG-CC-PVTZ AUX)
    Blend: AUG-CC-PVTZ-JKFIT

    Orbital Energies [Eh]
    ---------------------

    Doubly Occupied:

       1A    -20.547007     2A    -20.515290     3A    -15.608901
       4A    -15.571937     5A    -11.386112     6A    -11.357650
       7A    -11.280492     8A    -11.270886     9A    -11.265371
      10A    -11.261910    11A    -11.258438    12A    -11.254766
      13A     -1.401412    14A     -1.369546    15A     -1.236823
      16A     -1.203821    17A     -1.176837    18A     -1.055681
      19A     -1.048023    20A     -0.908626    21A     -0.868693
      22A     -0.821626    23A     -0.788490    24A     -0.763702
      25A     -0.724641    26A     -0.701826    27A     -0.687288
      28A     -0.659194    29A     -0.648260    30A     -0.632279
      31A     -0.608603    32A     -0.593550    33A     -0.580996
      34A     -0.566808    35A     -0.541536    36A     -0.518757
      37A     -0.517993    38A     -0.455979    39A     -0.440868
      40A     -0.429154    41A     -0.402444    42A     -0.362385
      43A     -0.358315

  @DF-RHF Final Energy:  -566.47121787061496

   => Energetics <=

    Nuclear Repulsion Energy =            670.2682716523972886
    One-Electron Energy =               -2102.1731406308140322
    Two-Electron Energy =                 865.4336511078017793
    Total Energy =                       -566.4712178706149643
  Basis Set: (AUG-CC-PVTZ AUX)
    Blend: AUG-CC-PVTZ-RI
    Molecular point group: c1

    Geometry (in Angstrom), charge = 0, multiplicity = 1:

       Center              X                  Y                   Z               Mass
    ------------   -----------------  -----------------  -----------------  -----------------
         O           -0.423208382792     2.741095793487     0.839578484356    15.994914619570
         O           -2.117571382792    -1.141971206513    -0.833091515644    15.994914619570
         N           -1.805812382792     1.626677793487    -0.592455515644    14.003074004430
         N           -1.347529382792    -2.315011206513     0.954166484356    14.003074004430
         C            0.368664617208     0.666657793487    -0.022530515644    12.000000000000
         C            0.142932617208    -0.725931206513    -0.054751515644    12.000000000000
         C            1.676180117208     1.113460193487    -0.039266415644    12.000000000000
         C            1.238363617208    -1.602384206513    -0.141253515644    12.000000000000
         C            2.769272617208     0.257859793487    -0.149007515644    12.000000000000
         C            2.543045617208    -1.118234206513    -0.203732515644    12.000000000000
         C           -0.669744382792     1.754983793487     0.136881484356    12.000000000000
         C           -1.214035382792    -1.368374206513    -0.018128515644    12.000000000000
         H            1.850664617208     2.203768793487     0.040958484356     1.007825032230
         H            1.054575617208    -2.673761206513    -0.175742515644     1.007825032230
         H            3.783132617208     0.649082793487    -0.182241515644     1.007825032230
         H            3.375661617208    -1.811975206513    -0.290797515644     1.007825032230
         H           -2.051291382792     0.745138793487    -1.034575515644     1.007825032230
         H           -2.523884382792     2.321863793487    -0.431389515644     1.007825032230
         H           -0.707640382792    -2.342855206513     1.735394484356     1.007825032230
         H           -2.261058382792    -2.738255206513     1.065349484356     1.007825032230

  Basis Set: AUG-CC-PVTZ
    Blend: AUG-CC-PVTZ
  Basis Set: (AUG-CC-PVTZ AUX)
    Blend: AUG-CC-PVTZ-JKFIT
	 Reference Energy          =    -566.4712178706149643 [Eh]
	 Singles Energy            =      -0.0000000000000000 [Eh]
	 Same-Spin Energy          =      -0.5968684595491016 [Eh]
	 Opposite-Spin Energy      =      -1.7897140396003559 [Eh]
	 Correlation Energy        =      -2.3865824991494575 [Eh]
	 Total Energy              =    -568.8578003697643908 [Eh]

	 ================> DF-SCS-MP2 Energies <==================
	-----------------------------------------------------------
	 SCS Same-Spin Scale       =       0.3333333333333333 [-]
	 SCS Opposite-Spin Scale   =       1.2000000000000000 [-]
	 SCS Same-Spin Energy      =      -0.1989561531830339 [Eh]
	 SCS Opposite-Spin Energy  =      -2.1476568475204272 [Eh]
	 SCS Correlation Energy    =      -2.3466130007034609 [Eh]
	 SCS Total Energy          =    -568.8178308713183924 [Eh]
	-----------------------------------------------------------

  Dipole Moment: [D]
     X:     0.9336      Y:    -4.0324      Z:     1.0136     Total:     4.2614

*** Psi4 exiting successfully. Buy a developer a beer!
