                               Psi4 1.4a3.dev225

  ==> Input File <==

--------------------------------------------------------------------------
#psi4
#
memory 32 gb

molecule  {
0 1
  O       -0.4387840     2.7607480     0.8353900
  O       -2.1331470    -1.1223190    -0.8372800
  N       -1.8213880     1.6463300    -0.5966440
  N       -1.3631050    -2.2953590     0.9499780
  C        0.3530890     0.6863100    -0.0267190
  C        0.1273570    -0.7062790    -0.0589400
  C        1.6757520     1.1521170    -0.0434370
  C        1.2227880    -1.5827320    -0.1454420
  C        2.7536970     0.2775120    -0.1531960
  C        2.5274700    -1.0985820    -0.2079210
  C       -0.6853200     1.7746360     0.1326930
  C       -1.2296110    -1.3487220    -0.0223170
  H        1.8497602     2.3220629     0.0441552
  H        1.0390000    -2.6541090    -0.1799310
  H        3.7675570     0.6687350    -0.1864300
  H        3.3600860    -1.7923230    -0.2949860
  H       -2.0668670     0.7647910    -1.0387640
  H       -2.5394600     2.3415160    -0.4355780
  H       -0.7232160    -2.3232030     1.7312060
  H       -2.2766340    -2.7186030     1.0611610
units angstrom
no_reorient  #important for SAPT in psi4, default
symmetry c1  #important for SAPT in psi4, default
}

set PROPERTIES_ORIGIN ["COM"]
properties('MP2/aug-cc-pvtz', properties = ['dipole'])
--------------------------------------------------------------------------

    Molecular point group: c1
  Charge       = 0
  Multiplicity = 1
  Basis Set: AUG-CC-PVTZ
    Blend: AUG-CC-PVTZ
  Basis Set: (AUG-CC-PVTZ AUX)
    Blend: AUG-CC-PVTZ-JKFIT

    Orbital Energies [Eh]
    ---------------------

    Doubly Occupied:

       1A    -20.547233     2A    -20.515041     3A    -15.609116
       4A    -15.571830     5A    -11.386502     6A    -11.357502
       7A    -11.280981     8A    -11.273899     9A    -11.265741
      10A    -11.265648    11A    -11.262390    12A    -11.258669
      13A     -1.401623    14A     -1.369363    15A     -1.237021
      16A     -1.203566    17A     -1.174774    18A     -1.055515
      19A     -1.044258    20A     -0.908349    21A     -0.866769
      22A     -0.819064    23A     -0.787578    24A     -0.762465
      25A     -0.724174    26A     -0.700108    27A     -0.686491
      28A     -0.659399    29A     -0.646721    30A     -0.629953
      31A     -0.603501    32A     -0.592680    33A     -0.581090
      34A     -0.565838    35A     -0.539224    36A     -0.517559
      37A     -0.513761    38A     -0.455965    39A     -0.441021
      40A     -0.428828    41A     -0.402267    42A     -0.363132
      43A     -0.356440

  @DF-RHF Final Energy:  -566.46414865838165

   => Energetics <=

    Nuclear Repulsion Energy =            669.3092794418669200
    One-Electron Energy =               -2100.2807530700715688
    Two-Electron Energy =                 864.5073249698230029
    Total Energy =                       -566.4641486583816459
  Basis Set: (AUG-CC-PVTZ AUX)
    Blend: AUG-CC-PVTZ-RI
    Molecular point group: c1

    Geometry (in Angstrom), charge = 0, multiplicity = 1:

       Center              X                  Y                   Z               Mass
    ------------   -----------------  -----------------  -----------------  -----------------
         O           -0.424406467071     2.739099744387     0.839531807190    15.994914619570
         O           -2.118769467071    -1.143967255613    -0.833138192810    15.994914619570
         N           -1.807010467071     1.624681744387    -0.592502192810    14.003074004430
         N           -1.348727467071    -2.317007255613     0.954119807190    14.003074004430
         C            0.367466532929     0.664661744387    -0.022577192810    12.000000000000
         C            0.141734532929    -0.727927255613    -0.054798192810    12.000000000000
         C            1.690129532929     1.130468744387    -0.039295192810    12.000000000000
         C            1.237165532929    -1.604380255613    -0.141300192810    12.000000000000
         C            2.768074532929     0.255863744387    -0.149054192810    12.000000000000
         C            2.541847532929    -1.120230255613    -0.203779192810    12.000000000000
         C           -0.670942467071     1.752987744387     0.136834807190    12.000000000000
         C           -1.215233467071    -1.370370255613    -0.018175192810    12.000000000000
         H            1.864137732929     2.300414644387     0.048297007190     1.007825032230
         H            1.053377532929    -2.675757255613    -0.175789192810     1.007825032230
         H            3.781934532929     0.647086744387    -0.182288192810     1.007825032230
         H            3.374463532929    -1.813971255613    -0.290844192810     1.007825032230
         H           -2.052489467071     0.743142744387    -1.034622192810     1.007825032230
         H           -2.525082467071     2.319867744387    -0.431436192810     1.007825032230
         H           -0.708838467071    -2.344851255613     1.735347807190     1.007825032230
         H           -2.262256467071    -2.740251255613     1.065302807190     1.007825032230

  Basis Set: AUG-CC-PVTZ
    Blend: AUG-CC-PVTZ
  Basis Set: (AUG-CC-PVTZ AUX)
    Blend: AUG-CC-PVTZ-JKFIT
	 Reference Energy          =    -566.4641486583816459 [Eh]
	 Singles Energy            =      -0.0000000000000000 [Eh]
	 Same-Spin Energy          =      -0.5972062468077850 [Eh]
	 Opposite-Spin Energy      =      -1.7907721647923533 [Eh]
	 Correlation Energy        =      -2.3879784116001384 [Eh]
	 Total Energy              =    -568.8521270699817478 [Eh]

	 ================> DF-SCS-MP2 Energies <==================
	-----------------------------------------------------------
	 SCS Same-Spin Scale       =       0.3333333333333333 [-]
	 SCS Opposite-Spin Scale   =       1.2000000000000000 [-]
	 SCS Same-Spin Energy      =      -0.1990687489359283 [Eh]
	 SCS Opposite-Spin Energy  =      -2.1489265977508238 [Eh]
	 SCS Correlation Energy    =      -2.3479953466867522 [Eh]
	 SCS Total Energy          =    -568.8121440050683759 [Eh]
	-----------------------------------------------------------

  Dipole Moment: [D]
     X:     0.9182      Y:    -4.0256      Z:     1.0222     Total:     4.2536

*** Psi4 exiting successfully. Buy a developer a beer!
