                               Psi4 1.4a3.dev225

  ==> Input File <==

--------------------------------------------------------------------------
#psi4
#
memory 32 gb

molecule  {
0 1
  O       -0.4387840     2.7607480     0.8353900
  O       -2.1331470    -1.1223190    -0.8372800
  N       -1.8213880     1.6463300    -0.5966440
  N       -1.3631050    -2.2953590     0.9499780
  C        0.3530890     0.6863100    -0.0267190
  C        0.1273570    -0.7062790    -0.0589400
  C        1.6757520     1.1521170    -0.0434370
  C        1.2227880    -1.5827320    -0.1454420
  C        2.7536970     0.2775120    -0.1531960
  C        2.5274700    -1.0985820    -0.2079210
  C       -0.6853200     1.7746360     0.1326930
  C       -1.2296110    -1.3487220    -0.0223170
  H        1.8350890     2.2234210     0.0367700
  H        1.0390000    -2.6541090    -0.1799310
  H        3.7675570     0.6687350    -0.1864300
  H        3.3600860    -1.7923230    -0.2949860
  H       -2.0668670     0.7647910    -1.0387640
  H       -2.5252738     2.3277819    -0.4387600
  H       -0.7232160    -2.3232030     1.7312060
  H       -2.2766340    -2.7186030     1.0611610
units angstrom
no_reorient  #important for SAPT in psi4, default
symmetry c1  #important for SAPT in psi4, default
}

set PROPERTIES_ORIGIN ["COM"]
properties('MP2/aug-cc-pvtz', properties = ['dipole'])
--------------------------------------------------------------------------

    Molecular point group: c1
  Charge       = 0
  Multiplicity = 1
  Basis Set: AUG-CC-PVTZ
    Blend: AUG-CC-PVTZ
  Basis Set: (AUG-CC-PVTZ AUX)
    Blend: AUG-CC-PVTZ-JKFIT

    Orbital Energies [Eh]
    ---------------------

    Doubly Occupied:

       1A    -20.547145     2A    -20.515572     3A    -15.609038
       4A    -15.570038     5A    -11.386344     6A    -11.357697
       7A    -11.280611     8A    -11.273267     9A    -11.265628
      10A    -11.262109    11A    -11.258487    12A    -11.255696
      13A     -1.401549    14A     -1.369966    15A     -1.236950
      16A     -1.205835    17A     -1.175282    18A     -1.055523
      19A     -1.046841    20A     -0.908717    21A     -0.869799
      22A     -0.822596    23A     -0.788683    24A     -0.764043
      25A     -0.724950    26A     -0.703363    27A     -0.688626
      28A     -0.659609    29A     -0.649829    30A     -0.632006
      31A     -0.611029    32A     -0.593524    33A     -0.581135
      34A     -0.566652    35A     -0.539084    36A     -0.523168
      37A     -0.517437    38A     -0.455980    39A     -0.441044
      40A     -0.429182    41A     -0.402931    42A     -0.362947
      43A     -0.356391

  @DF-RHF Final Energy:  -566.47222300887654

   => Energetics <=

    Nuclear Repulsion Energy =            669.9263309039755541
    One-Electron Energy =               -2101.4644987632650555
    Two-Electron Energy =                 865.0659448504128477
    Total Energy =                       -566.4722230088765400
  Basis Set: (AUG-CC-PVTZ AUX)
    Blend: AUG-CC-PVTZ-RI
    Molecular point group: c1

    Geometry (in Angstrom), charge = 0, multiplicity = 1:

       Center              X                  Y                   Z               Mass
    ------------   -----------------  -----------------  -----------------  -----------------
         O           -0.424403487677     2.739790079190     0.839596722350    15.994914619570
         O           -2.118766487677    -1.143276920810    -0.833073277650    15.994914619570
         N           -1.807007487677     1.625372079190    -0.592437277650    14.003074004430
         N           -1.348724487677    -2.316316920810     0.954184722350    14.003074004430
         C            0.367469512323     0.665352079190    -0.022512277650    12.000000000000
         C            0.141737512323    -0.727236920810    -0.054733277650    12.000000000000
         C            1.690132512323     1.131159079190    -0.039230277650    12.000000000000
         C            1.237168512323    -1.603689920810    -0.141235277650    12.000000000000
         C            2.768077512323     0.256554079190    -0.148989277650    12.000000000000
         C            2.541850512323    -1.119539920810    -0.203714277650    12.000000000000
         C           -0.670939487677     1.753678079190     0.136899722350    12.000000000000
         C           -1.215230487677    -1.369679920810    -0.018110277650    12.000000000000
         H            1.849469512323     2.202463079190     0.040976722350     1.007825032230
         H            1.053380512323    -2.675066920810    -0.175724277650     1.007825032230
         H            3.781937512323     0.647777079190    -0.182223277650     1.007825032230
         H            3.374466512323    -1.813280920810    -0.290779277650     1.007825032230
         H           -2.052486487677     0.743833079190    -1.034557277650     1.007825032230
         H           -2.510893287677     2.306823979190    -0.434553277650     1.007825032230
         H           -0.708835487677    -2.344160920810     1.735412722350     1.007825032230
         H           -2.262253487677    -2.739560920810     1.065367722350     1.007825032230

  Basis Set: AUG-CC-PVTZ
    Blend: AUG-CC-PVTZ
  Basis Set: (AUG-CC-PVTZ AUX)
    Blend: AUG-CC-PVTZ-JKFIT
	 Reference Energy          =    -566.4722230088765400 [Eh]
	 Singles Energy            =      -0.0000000000000000 [Eh]
	 Same-Spin Energy          =      -0.5966796055620569 [Eh]
	 Opposite-Spin Energy      =      -1.7893732881162374 [Eh]
	 Correlation Energy        =      -2.3860528936782943 [Eh]
	 Total Energy              =    -568.8582759025548512 [Eh]

	 ================> DF-SCS-MP2 Energies <==================
	-----------------------------------------------------------
	 SCS Same-Spin Scale       =       0.3333333333333333 [-]
	 SCS Opposite-Spin Scale   =       1.2000000000000000 [-]
	 SCS Same-Spin Energy      =      -0.1988932018540190 [Eh]
	 SCS Opposite-Spin Energy  =      -2.1472479457394846 [Eh]
	 SCS Correlation Energy    =      -2.3461411475935035 [Eh]
	 SCS Total Energy          =    -568.8183641564700110 [Eh]
	-----------------------------------------------------------

  Dipole Moment: [D]
     X:     0.9460      Y:    -4.0430      Z:     1.0136     Total:     4.2741

*** Psi4 exiting successfully. Buy a developer a beer!
