                               Psi4 1.4a3.dev225

  ==> Input File <==

--------------------------------------------------------------------------
#psi4
#
memory 32 gb

molecule  {
0 1
  O       -0.4387840     2.7607480     0.8353900
  O       -2.1331470    -1.1223190    -0.8372800
  N       -1.8213880     1.6463300    -0.5966440
  N       -1.3631050    -2.2953590     0.9499780
  C        0.3530890     0.6863100    -0.0267190
  C        0.1273570    -0.7062790    -0.0589400
  C        1.5898655     1.0343768    -0.0455003
  C        1.2227880    -1.5827320    -0.1454420
  C        2.7536970     0.2775120    -0.1531960
  C        2.5274700    -1.0985820    -0.2079210
  C       -0.6853200     1.7746360     0.1326930
  C       -1.2296110    -1.3487220    -0.0223170
  H        1.8350890     2.2234210     0.0367700
  H        1.0390000    -2.6541090    -0.1799310
  H        3.7675570     0.6687350    -0.1864300
  H        3.3600860    -1.7923230    -0.2949860
  H       -2.0668670     0.7647910    -1.0387640
  H       -2.5394600     2.3415160    -0.4355780
  H       -0.7232160    -2.3232030     1.7312060
  H       -2.2766340    -2.7186030     1.0611610
units angstrom
no_reorient  #important for SAPT in psi4, default
symmetry c1  #important for SAPT in psi4, default
}

set PROPERTIES_ORIGIN ["COM"]
properties('MP2/aug-cc-pvtz', properties = ['dipole'])
--------------------------------------------------------------------------

    Molecular point group: c1
  Charge       = 0
  Multiplicity = 1
  Basis Set: AUG-CC-PVTZ
    Blend: AUG-CC-PVTZ
  Basis Set: (AUG-CC-PVTZ AUX)
    Blend: AUG-CC-PVTZ-JKFIT

    Orbital Energies [Eh]
    ---------------------

    Doubly Occupied:

       1A    -20.546756     2A    -20.515414     3A    -15.608613
       4A    -15.572715     5A    -11.385348     6A    -11.358478
       7A    -11.280628     8A    -11.264654     9A    -11.261653
      10A    -11.259689    11A    -11.258958    12A    -11.250808
      13A     -1.401216    14A     -1.369571    15A     -1.236762
      16A     -1.205957    17A     -1.187688    18A     -1.063747
      19A     -1.049770    20A     -0.910613    21A     -0.868324
      22A     -0.818221    23A     -0.793617    24A     -0.763314
      25A     -0.727325    26A     -0.699870    27A     -0.690987
      28A     -0.657243    29A     -0.651070    30A     -0.632682
      31A     -0.597699    32A     -0.596896    33A     -0.580982
      34A     -0.569306    35A     -0.552314    36A     -0.525241
      37A     -0.486231    38A     -0.456049    39A     -0.440084
      40A     -0.429837    41A     -0.402179    42A     -0.370876
      43A     -0.358820

  @DF-RHF Final Energy:  -566.44455844631000

   => Energetics <=

    Nuclear Repulsion Energy =            672.6528781457280957
    One-Electron Energy =               -2106.8784598074971655
    Two-Electron Energy =                 867.7810232154589585
    Total Energy =                       -566.4445584463099976
  Basis Set: (AUG-CC-PVTZ AUX)
    Blend: AUG-CC-PVTZ-RI
    Molecular point group: c1

    Geometry (in Angstrom), charge = 0, multiplicity = 1:

       Center              X                  Y                   Z               Mass
    ------------   -----------------  -----------------  -----------------  -----------------
         O           -0.418034206514     2.748317770040     0.839728094333    15.994914619570
         O           -2.112397206514    -1.134749229960    -0.832941905667    15.994914619570
         N           -1.800638206514     1.633899770040    -0.592305905667    14.003074004430
         N           -1.342355206514    -2.307789229960     0.954316094333    14.003074004430
         C            0.373838793486     0.673879770040    -0.022380905667    12.000000000000
         C            0.148106793486    -0.718709229960    -0.054601905667    12.000000000000
         C            1.610615293486     1.021946570040    -0.041162205667    12.000000000000
         C            1.243537793486    -1.595162229960    -0.141103905667    12.000000000000
         C            2.774446793486     0.265081770040    -0.148857905667    12.000000000000
         C            2.548219793486    -1.111012229960    -0.203582905667    12.000000000000
         C           -0.664570206514     1.762205770040     0.137031094333    12.000000000000
         C           -1.208861206514    -1.361152229960    -0.017978905667    12.000000000000
         H            1.855838793486     2.210990770040     0.041108094333     1.007825032230
         H            1.059749793486    -2.666539229960    -0.175592905667     1.007825032230
         H            3.788306793486     0.656304770040    -0.182091905667     1.007825032230
         H            3.380835793486    -1.804753229960    -0.290647905667     1.007825032230
         H           -2.046117206514     0.752360770040    -1.034425905667     1.007825032230
         H           -2.518710206514     2.329085770040    -0.431239905667     1.007825032230
         H           -0.702466206514    -2.335633229960     1.735544094333     1.007825032230
         H           -2.255884206514    -2.731033229960     1.065499094333     1.007825032230

  Basis Set: AUG-CC-PVTZ
    Blend: AUG-CC-PVTZ
  Basis Set: (AUG-CC-PVTZ AUX)
    Blend: AUG-CC-PVTZ-JKFIT
	 Reference Energy          =    -566.4445584463099976 [Eh]
	 Singles Energy            =      -0.0000000000000000 [Eh]
	 Same-Spin Energy          =      -0.5974695413886209 [Eh]
	 Opposite-Spin Energy      =      -1.7910104732169287 [Eh]
	 Correlation Energy        =      -2.3884800146055496 [Eh]
	 Total Energy              =    -568.8330384609155317 [Eh]

	 ================> DF-SCS-MP2 Energies <==================
	-----------------------------------------------------------
	 SCS Same-Spin Scale       =       0.3333333333333333 [-]
	 SCS Opposite-Spin Scale   =       1.2000000000000000 [-]
	 SCS Same-Spin Energy      =      -0.1991565137962069 [Eh]
	 SCS Opposite-Spin Energy  =      -2.1492125678603142 [Eh]
	 SCS Correlation Energy    =      -2.3483690816565210 [Eh]
	 SCS Total Energy          =    -568.7929275279665262 [Eh]
	-----------------------------------------------------------

  Dipole Moment: [D]
     X:     0.9382      Y:    -4.0766      Z:     1.0100     Total:     4.3033

*** Psi4 exiting successfully. Buy a developer a beer!
