                               Psi4 1.4a3.dev225

  ==> Input File <==

--------------------------------------------------------------------------
#psi4
#
memory 32 gb

molecule  {
0 1
  O       -0.4387840     2.7607480     0.8353900
  O       -2.1331470    -1.1223190    -0.8372800
  N       -1.8213880     1.6463300    -0.5966440
  N       -1.3631050    -2.2953590     0.9499780
  C        0.3530890     0.6863100    -0.0267190
  C        0.1273570    -0.7062790    -0.0589400
  C        1.6912279     1.1708552    -0.0434525
  C        1.2227880    -1.5827320    -0.1454420
  C        2.7536970     0.2775120    -0.1531960
  C        2.5274700    -1.0985820    -0.2079210
  C       -0.6853200     1.7746360     0.1326930
  C       -1.2296110    -1.3487220    -0.0223170
  H        1.8350890     2.2234210     0.0367700
  H        1.0390000    -2.6541090    -0.1799310
  H        3.7675570     0.6687350    -0.1864300
  H        3.3600860    -1.7923230    -0.2949860
  H       -2.0668670     0.7647910    -1.0387640
  H       -2.5394600     2.3415160    -0.4355780
  H       -0.7232160    -2.3232030     1.7312060
  H       -2.2766340    -2.7186030     1.0611610
units angstrom
no_reorient  #important for SAPT in psi4, default
symmetry c1  #important for SAPT in psi4, default
}

set PROPERTIES_ORIGIN ["COM"]
properties('MP2/aug-cc-pvtz', properties = ['dipole'])
--------------------------------------------------------------------------

    Molecular point group: c1
  Charge       = 0
  Multiplicity = 1
  Basis Set: AUG-CC-PVTZ
    Blend: AUG-CC-PVTZ
  Basis Set: (AUG-CC-PVTZ AUX)
    Blend: AUG-CC-PVTZ-JKFIT

    Orbital Energies [Eh]
    ---------------------

    Doubly Occupied:

       1A    -20.547183     2A    -20.515357     3A    -15.609080
       4A    -15.571755     5A    -11.386461     6A    -11.357473
       7A    -11.280647     8A    -11.275606     9A    -11.265805
      10A    -11.262234    11A    -11.258550    12A    -11.256523
      13A     -1.401562    14A     -1.369588    15A     -1.236966
      16A     -1.203423    17A     -1.173218    18A     -1.055334
      19A     -1.045201    20A     -0.908153    21A     -0.869617
      22A     -0.823181    23A     -0.786504    24A     -0.764196
      25A     -0.723571    26A     -0.703730    27A     -0.685741
      28A     -0.659866    29A     -0.650586    30A     -0.631123
      31A     -0.613154    32A     -0.592132    33A     -0.581021
      34A     -0.566158    35A     -0.536567    36A     -0.526853
      37A     -0.516210    38A     -0.455704    39A     -0.441066
      40A     -0.428889    41A     -0.402565    42A     -0.363571
      43A     -0.354265

  @DF-RHF Final Energy:  -566.47091590354557

   => Energetics <=

    Nuclear Repulsion Energy =            669.3390070347378469
    One-Electron Energy =               -2100.3070657543644302
    Two-Electron Energy =                 864.4971428160811229
    Total Energy =                       -566.4709159035455741
  Basis Set: (AUG-CC-PVTZ AUX)
    Blend: AUG-CC-PVTZ-RI
    Molecular point group: c1

    Geometry (in Angstrom), charge = 0, multiplicity = 1:

       Center              X                  Y                   Z               Mass
    ------------   -----------------  -----------------  -----------------  -----------------
         O           -0.425448319317     2.738335111255     0.839578308809    15.994914619570
         O           -2.119811319317    -1.144731888745    -0.833091691191    15.994914619570
         N           -1.808052319317     1.623917111255    -0.592455691191    14.003074004430
         N           -1.349769319317    -2.317771888745     0.954166308809    14.003074004430
         C            0.366424680683     0.663897111255    -0.022530691191    12.000000000000
         C            0.140692680683    -0.728691888745    -0.054751691191    12.000000000000
         C            1.704563580683     1.148442311255    -0.039264191191    12.000000000000
         C            1.236123680683    -1.605144888745    -0.141253691191    12.000000000000
         C            2.767032680683     0.255099111255    -0.149007691191    12.000000000000
         C            2.540805680683    -1.120994888745    -0.203732691191    12.000000000000
         C           -0.671984319317     1.752223111255     0.136881308809    12.000000000000
         C           -1.216275319317    -1.371134888745    -0.018128691191    12.000000000000
         H            1.848424680683     2.201008111255     0.040958308809     1.007825032230
         H            1.052335680683    -2.676521888745    -0.175742691191     1.007825032230
         H            3.780892680683     0.646322111255    -0.182241691191     1.007825032230
         H            3.373421680683    -1.814735888745    -0.290797691191     1.007825032230
         H           -2.053531319317     0.742378111255    -1.034575691191     1.007825032230
         H           -2.526124319317     2.319103111255    -0.431389691191     1.007825032230
         H           -0.709880319317    -2.345615888745     1.735394308809     1.007825032230
         H           -2.263298319317    -2.741015888745     1.065349308809     1.007825032230

  Basis Set: AUG-CC-PVTZ
    Blend: AUG-CC-PVTZ
  Basis Set: (AUG-CC-PVTZ AUX)
    Blend: AUG-CC-PVTZ-JKFIT
	 Reference Energy          =    -566.4709159035455741 [Eh]
	 Singles Energy            =      -0.0000000000000000 [Eh]
	 Same-Spin Energy          =      -0.5967811412075830 [Eh]
	 Opposite-Spin Energy      =      -1.7897873235072872 [Eh]
	 Correlation Energy        =      -2.3865684647148702 [Eh]
	 Total Energy              =    -568.8574843682604296 [Eh]

	 ================> DF-SCS-MP2 Energies <==================
	-----------------------------------------------------------
	 SCS Same-Spin Scale       =       0.3333333333333333 [-]
	 SCS Opposite-Spin Scale   =       1.2000000000000000 [-]
	 SCS Same-Spin Energy      =      -0.1989270470691943 [Eh]
	 SCS Opposite-Spin Energy  =      -2.1477447882087444 [Eh]
	 SCS Correlation Energy    =      -2.3466718352779385 [Eh]
	 SCS Total Energy          =    -568.8175877388234767 [Eh]
	-----------------------------------------------------------

  Dipole Moment: [D]
     X:     0.9255      Y:    -4.0308      Z:     1.0146     Total:     4.2583

*** Psi4 exiting successfully. Buy a developer a beer!
