                               Psi4 1.4a3.dev225

  ==> Input File <==

--------------------------------------------------------------------------
#psi4
#
memory 32 gb

molecule  {
0 1
  O       -0.4387840     2.7607480     0.8353900
  O       -2.1331470    -1.1223190    -0.8372800
  N       -1.8213880     1.6463300    -0.5966440
  N       -1.3631050    -2.2953590     0.9499780
  C        0.3530890     0.6863100    -0.0267190
  C        0.1273570    -0.7062790    -0.0589400
  C        1.6757520     1.1521170    -0.0434370
  C        1.2227880    -1.5827320    -0.1454420
  C        2.7536970     0.2775120    -0.1531960
  C        2.5274700    -1.0985820    -0.2079210
  C       -0.6853200     1.7746360     0.1326930
  C       -1.2296110    -1.3487220    -0.0223170
  H        1.8350890     2.2234210     0.0367700
  H        1.0390000    -2.6541090    -0.1799310
  H        3.7675570     0.6687350    -0.1864300
  H        3.3600860    -1.7923230    -0.2949860
  H       -2.1151759     0.5913089    -1.1257708
  H       -2.5394600     2.3415160    -0.4355780
  H       -0.7232160    -2.3232030     1.7312060
  H       -2.2766340    -2.7186030     1.0611610
units angstrom
no_reorient  #important for SAPT in psi4, default
symmetry c1  #important for SAPT in psi4, default
}

set PROPERTIES_ORIGIN ["COM"]
properties('MP2/aug-cc-pvtz', properties = ['dipole'])
--------------------------------------------------------------------------

    Molecular point group: c1
  Charge       = 0
  Multiplicity = 1
  Basis Set: AUG-CC-PVTZ
    Blend: AUG-CC-PVTZ
  Basis Set: (AUG-CC-PVTZ AUX)
    Blend: AUG-CC-PVTZ-JKFIT

    Orbital Energies [Eh]
    ---------------------

    Doubly Occupied:

       1A    -20.556492     2A    -20.509057     3A    -15.614296
       4A    -15.572767     5A    -11.393455     6A    -11.351337
       7A    -11.281039     8A    -11.272457     9A    -11.266479
      10A    -11.261764    11A    -11.258486    12A    -11.254508
      13A     -1.411132    14A     -1.362927    15A     -1.242573
      16A     -1.184069    17A     -1.168321    18A     -1.055431
      19A     -1.045887    20A     -0.908828    21A     -0.867049
      22A     -0.823572    23A     -0.783691    24A     -0.759289
      25A     -0.712261    26A     -0.695885    27A     -0.675173
      28A     -0.656349    29A     -0.650611    30A     -0.631352
      31A     -0.612905    32A     -0.591592    33A     -0.569582
      34A     -0.562696    35A     -0.538503    36A     -0.521325
      37A     -0.515899    38A     -0.458749    39A     -0.447444
      40A     -0.422396    41A     -0.391454    42A     -0.363416
      43A     -0.355369

  @DF-RHF Final Energy:  -566.44335380978566

   => Energetics <=

    Nuclear Repulsion Energy =            669.2184896914656065
    One-Electron Energy =               -2100.1679567625246818
    Two-Electron Energy =                 864.5061132612735264
    Total Energy =                       -566.4433538097856626
  Basis Set: (AUG-CC-PVTZ AUX)
    Blend: AUG-CC-PVTZ-RI
    Molecular point group: c1

    Geometry (in Angstrom), charge = 0, multiplicity = 1:

       Center              X                  Y                   Z               Mass
    ------------   -----------------  -----------------  -----------------  -----------------
         O           -0.424019575253     2.740771423998     0.840111664836    15.994914619570
         O           -2.118382575253    -1.142295576002    -0.832558335164    15.994914619570
         N           -1.806623575253     1.626353423998    -0.591922335164    14.003074004430
         N           -1.348340575253    -2.315335576002     0.954699664836    14.003074004430
         C            0.367853424747     0.666333423998    -0.021997335164    12.000000000000
         C            0.142121424747    -0.726255576002    -0.054218335164    12.000000000000
         C            1.690516424747     1.132140423998    -0.038715335164    12.000000000000
         C            1.237552424747    -1.602708576002    -0.140720335164    12.000000000000
         C            2.768461424747     0.257535423998    -0.148474335164    12.000000000000
         C            2.542234424747    -1.118558576002    -0.203199335164    12.000000000000
         C           -0.670555575253     1.754659423998     0.137414664836    12.000000000000
         C           -1.214846575253    -1.368698576002    -0.017595335164    12.000000000000
         H            1.849853424747     2.203444423998     0.041491664836     1.007825032230
         H            1.053764424747    -2.674085576002    -0.175209335164     1.007825032230
         H            3.782321424747     0.648758423998    -0.181708335164     1.007825032230
         H            3.374850424747    -1.812299576002    -0.290264335164     1.007825032230
         H           -2.100411475253     0.571332323998    -1.121049135164     1.007825032230
         H           -2.524695575253     2.321539423998    -0.430856335164     1.007825032230
         H           -0.708451575253    -2.343179576002     1.735927664836     1.007825032230
         H           -2.261869575253    -2.738579576002     1.065882664836     1.007825032230

  Basis Set: AUG-CC-PVTZ
    Blend: AUG-CC-PVTZ
  Basis Set: (AUG-CC-PVTZ AUX)
    Blend: AUG-CC-PVTZ-JKFIT
	 Reference Energy          =    -566.4433538097856626 [Eh]
	 Singles Energy            =      -0.0000000000000000 [Eh]
	 Same-Spin Energy          =      -0.5992228341831493 [Eh]
	 Opposite-Spin Energy      =      -1.7937344985014099 [Eh]
	 Correlation Energy        =      -2.3929573326845590 [Eh]
	 Total Energy              =    -568.8363111424702083 [Eh]

	 ================> DF-SCS-MP2 Energies <==================
	-----------------------------------------------------------
	 SCS Same-Spin Scale       =       0.3333333333333333 [-]
	 SCS Opposite-Spin Scale   =       1.2000000000000000 [-]
	 SCS Same-Spin Energy      =      -0.1997409447277164 [Eh]
	 SCS Opposite-Spin Energy  =      -2.1524813982016919 [Eh]
	 SCS Correlation Energy    =      -2.3522223429294082 [Eh]
	 SCS Total Energy          =    -568.7955761527150571 [Eh]
	-----------------------------------------------------------

  Dipole Moment: [D]
     X:     0.8570      Y:    -4.6159      Z:     0.9456     Total:     4.7891

*** Psi4 exiting successfully. Buy a developer a beer!
