                               Psi4 1.4a3.dev225

  ==> Input File <==

--------------------------------------------------------------------------
#psi4
#
memory 32 gb

molecule  {
0 1
  O       -0.4387840     2.7607480     0.8353900
  O       -2.1331470    -1.1223190    -0.8372800
  N       -1.8213880     1.6463300    -0.5966440
  N       -1.3631050    -2.2953590     0.9499780
  C        0.3530890     0.6863100    -0.0267190
  C        0.1273570    -0.7062790    -0.0589400
  C        1.7700670     1.1853323    -0.0446291
  C        1.2227880    -1.5827320    -0.1454420
  C        2.7536970     0.2775120    -0.1531960
  C        2.5274700    -1.0985820    -0.2079210
  C       -0.6853200     1.7746360     0.1326930
  C       -1.2296110    -1.3487220    -0.0223170
  H        1.8350890     2.2234210     0.0367700
  H        1.0390000    -2.6541090    -0.1799310
  H        3.7675570     0.6687350    -0.1864300
  H        3.3600860    -1.7923230    -0.2949860
  H       -2.0668670     0.7647910    -1.0387640
  H       -2.5394600     2.3415160    -0.4355780
  H       -0.7232160    -2.3232030     1.7312060
  H       -2.2766340    -2.7186030     1.0611610
units angstrom
no_reorient  #important for SAPT in psi4, default
symmetry c1  #important for SAPT in psi4, default
}

set PROPERTIES_ORIGIN ["COM"]
properties('MP2/aug-cc-pvtz', properties = ['dipole'])
--------------------------------------------------------------------------

    Molecular point group: c1
  Charge       = 0
  Multiplicity = 1
  Basis Set: AUG-CC-PVTZ
    Blend: AUG-CC-PVTZ
  Basis Set: (AUG-CC-PVTZ AUX)
    Blend: AUG-CC-PVTZ-JKFIT

    Orbital Energies [Eh]
    ---------------------

    Doubly Occupied:

       1A    -20.547631     2A    -20.516429     3A    -15.609392
       4A    -15.572301     5A    -11.386751     6A    -11.358625
       7A    -11.283191     8A    -11.280763     9A    -11.265416
      10A    -11.262972    11A    -11.257332    12A    -11.251943
      13A     -1.401895    14A     -1.370216    15A     -1.237310
      16A     -1.203729    17A     -1.171506    18A     -1.061362
      19A     -1.038048    20A     -0.910806    21A     -0.869752
      22A     -0.822898    23A     -0.785230    24A     -0.764590
      25A     -0.722775    26A     -0.705773    27A     -0.685236
      28A     -0.660733    29A     -0.656628    30A     -0.628195
      31A     -0.616396    32A     -0.590137    33A     -0.581336
      34A     -0.565476    35A     -0.542837    36A     -0.518842
      37A     -0.514638    38A     -0.454583    39A     -0.441354
      40A     -0.429085    41A     -0.403237    42A     -0.371610
      43A     -0.346754

  @DF-RHF Final Energy:  -566.46044746598022

   => Energetics <=

    Nuclear Repulsion Energy =            668.2354450350629804
    One-Electron Energy =               -2098.0603576905541559
    Two-Electron Energy =                 863.3644651895108382
    Total Energy =                       -566.4604474659802236
  Basis Set: (AUG-CC-PVTZ AUX)
    Blend: AUG-CC-PVTZ-RI
    Molecular point group: c1

    Geometry (in Angstrom), charge = 0, multiplicity = 1:

       Center              X                  Y                   Z               Mass
    ------------   -----------------  -----------------  -----------------  -----------------
         O           -0.431214974218     2.737276189480     0.839664370753    15.994914619570
         O           -2.125577974218    -1.145790810520    -0.833005629247    15.994914619570
         N           -1.813818974218     1.622858189480    -0.592369629247    14.003074004430
         N           -1.355535974218    -2.318830810520     0.954252370753    14.003074004430
         C            0.360658025782     0.662838189480    -0.022444629247    12.000000000000
         C            0.134926025782    -0.729750810520    -0.054665629247    12.000000000000
         C            1.777636025782     1.161860489480    -0.040354729247    12.000000000000
         C            1.230357025782    -1.606203810520    -0.141167629247    12.000000000000
         C            2.761266025782     0.254040189480    -0.148921629247    12.000000000000
         C            2.535039025782    -1.122053810520    -0.203646629247    12.000000000000
         C           -0.677750974218     1.751164189480     0.136967370753    12.000000000000
         C           -1.222041974218    -1.372193810520    -0.018042629247    12.000000000000
         H            1.842658025782     2.199949189480     0.041044370753     1.007825032230
         H            1.046569025782    -2.677580810520    -0.175656629247     1.007825032230
         H            3.775126025782     0.645263189480    -0.182155629247     1.007825032230
         H            3.367655025782    -1.815794810520    -0.290711629247     1.007825032230
         H           -2.059297974218     0.741319189480    -1.034489629247     1.007825032230
         H           -2.531890974218     2.318044189480    -0.431303629247     1.007825032230
         H           -0.715646974218    -2.346674810520     1.735480370753     1.007825032230
         H           -2.269064974218    -2.742074810520     1.065435370753     1.007825032230

  Basis Set: AUG-CC-PVTZ
    Blend: AUG-CC-PVTZ
  Basis Set: (AUG-CC-PVTZ AUX)
    Blend: AUG-CC-PVTZ-JKFIT
	 Reference Energy          =    -566.4604474659802236 [Eh]
	 Singles Energy            =      -0.0000000000000000 [Eh]
	 Same-Spin Energy          =      -0.5965725703660332 [Eh]
	 Opposite-Spin Energy      =      -1.7902669166037519 [Eh]
	 Correlation Energy        =      -2.3868394869697851 [Eh]
	 Total Energy              =    -568.8472869529499576 [Eh]

	 ================> DF-SCS-MP2 Energies <==================
	-----------------------------------------------------------
	 SCS Same-Spin Scale       =       0.3333333333333333 [-]
	 SCS Opposite-Spin Scale   =       1.2000000000000000 [-]
	 SCS Same-Spin Energy      =      -0.1988575234553444 [Eh]
	 SCS Opposite-Spin Energy  =      -2.1483202999245021 [Eh]
	 SCS Correlation Energy    =      -2.3471778233798464 [Eh]
	 SCS Total Energy          =    -568.8076252893600895 [Eh]
	-----------------------------------------------------------

  Dipole Moment: [D]
     X:     0.8892      Y:    -4.0314      Z:     1.0132     Total:     4.2509

*** Psi4 exiting successfully. Buy a developer a beer!
