                               Psi4 1.4a3.dev225

  ==> Input File <==

--------------------------------------------------------------------------
#psi4
#
memory 32 gb

molecule  {
0 1
  O       -0.4387840     2.7607480     0.8353900
  O       -2.1331470    -1.1223190    -0.8372800
  N       -1.8213880     1.6463300    -0.5966440
  N       -1.3631050    -2.2953590     0.9499780
  C        0.3530890     0.6863100    -0.0267190
  C        0.1273570    -0.7062790    -0.0589400
  C        1.6757520     1.1521170    -0.0434370
  C        1.2227880    -1.5827320    -0.1454420
  C        2.7536970     0.2775120    -0.1531960
  C        2.5274700    -1.0985820    -0.2079210
  C       -0.7052710     1.6948348     0.0758272
  C       -1.2296110    -1.3487220    -0.0223170
  H        1.8350890     2.2234210     0.0367700
  H        1.0390000    -2.6541090    -0.1799310
  H        3.7675570     0.6687350    -0.1864300
  H        3.3600860    -1.7923230    -0.2949860
  H       -2.0668670     0.7647910    -1.0387640
  H       -2.5394600     2.3415160    -0.4355780
  H       -0.7232160    -2.3232030     1.7312060
  H       -2.2766340    -2.7186030     1.0611610
units angstrom
no_reorient  #important for SAPT in psi4, default
symmetry c1  #important for SAPT in psi4, default
}

set PROPERTIES_ORIGIN ["COM"]
properties('MP2/aug-cc-pvtz', properties = ['dipole'])
--------------------------------------------------------------------------

    Molecular point group: c1
  Charge       = 0
  Multiplicity = 1
  Basis Set: AUG-CC-PVTZ
    Blend: AUG-CC-PVTZ
  Basis Set: (AUG-CC-PVTZ AUX)
    Blend: AUG-CC-PVTZ-JKFIT

    Orbital Energies [Eh]
    ---------------------

    Doubly Occupied:

       1A    -20.551269     2A    -20.494414     3A    -15.611795
       4A    -15.586445     5A    -11.390029     6A    -11.356612
       7A    -11.283107     8A    -11.275622     9A    -11.267218
      10A    -11.264919    11A    -11.260261    12A    -11.258735
      13A     -1.405663    14A     -1.323645    15A     -1.239977
      16A     -1.206933    17A     -1.179186    18A     -1.060704
      19A     -1.049753    20A     -0.914821    21A     -0.877709
      22A     -0.825396    23A     -0.796705    24A     -0.768708
      25A     -0.730980    26A     -0.707768    27A     -0.697486
      28A     -0.660510    29A     -0.656151    30A     -0.629223
      31A     -0.612079    32A     -0.589478    33A     -0.567276
      34A     -0.553978    35A     -0.540485    36A     -0.518292
      37A     -0.515394    38A     -0.459567    39A     -0.443005
      40A     -0.415551    41A     -0.389805    42A     -0.364694
      43A     -0.355442

  @DF-RHF Final Energy:  -566.45086399642275

   => Energetics <=

    Nuclear Repulsion Energy =            670.2404625842494852
    One-Electron Energy =               -2102.0690749798600336
    Two-Electron Energy =                 865.3777483991876807
    Total Energy =                       -566.4508639964227541
  Basis Set: (AUG-CC-PVTZ AUX)
    Blend: AUG-CC-PVTZ-RI
    Molecular point group: c1

    Geometry (in Angstrom), charge = 0, multiplicity = 1:

       Center              X                  Y                   Z               Mass
    ------------   -----------------  -----------------  -----------------  -----------------
         O           -0.422857032677     2.745542736836     0.843736601599    15.994914619570
         O           -2.117220032677    -1.137524263164    -0.828933398401    15.994914619570
         N           -1.805461032677     1.631124736836    -0.588297398401    14.003074004430
         N           -1.347178032677    -2.310564263164     0.958324601599    14.003074004430
         C            0.369015967323     0.671104736836    -0.018372398401    12.000000000000
         C            0.143283967323    -0.721484263164    -0.050593398401    12.000000000000
         C            1.691678967323     1.136911736836    -0.035090398401    12.000000000000
         C            1.238714967323    -1.597937263164    -0.137095398401    12.000000000000
         C            2.769623967323     0.262306736836    -0.144849398401    12.000000000000
         C            2.543396967323    -1.113787263164    -0.199574398401    12.000000000000
         C           -0.689344032677     1.679629536836     0.084173801599    12.000000000000
         C           -1.213684032677    -1.363927263164    -0.013970398401    12.000000000000
         H            1.851015967323     2.208215736836     0.045116601599     1.007825032230
         H            1.054926967323    -2.669314263164    -0.171584398401     1.007825032230
         H            3.783483967323     0.653529736836    -0.178083398401     1.007825032230
         H            3.376012967323    -1.807528263164    -0.286639398401     1.007825032230
         H           -2.050940032677     0.749585736836    -1.030417398401     1.007825032230
         H           -2.523533032677     2.326310736836    -0.427231398401     1.007825032230
         H           -0.707289032677    -2.338408263164     1.739552601599     1.007825032230
         H           -2.260707032677    -2.733808263164     1.069507601599     1.007825032230

  Basis Set: AUG-CC-PVTZ
    Blend: AUG-CC-PVTZ
  Basis Set: (AUG-CC-PVTZ AUX)
    Blend: AUG-CC-PVTZ-JKFIT
	 Reference Energy          =    -566.4508639964227541 [Eh]
	 Singles Energy            =      -0.0000000000000000 [Eh]
	 Same-Spin Energy          =      -0.5989544952832370 [Eh]
	 Opposite-Spin Energy      =      -1.7938519242065243 [Eh]
	 Correlation Energy        =      -2.3928064194897614 [Eh]
	 Total Energy              =    -568.8436704159124702 [Eh]

	 ================> DF-SCS-MP2 Energies <==================
	-----------------------------------------------------------
	 SCS Same-Spin Scale       =       0.3333333333333333 [-]
	 SCS Opposite-Spin Scale   =       1.2000000000000000 [-]
	 SCS Same-Spin Energy      =      -0.1996514984277457 [Eh]
	 SCS Opposite-Spin Energy  =      -2.1526223090478291 [Eh]
	 SCS Correlation Energy    =      -2.3522738074755747 [Eh]
	 SCS Total Energy          =    -568.8031378038983803 [Eh]
	-----------------------------------------------------------

  Dipole Moment: [D]
     X:     0.7211      Y:    -4.5090      Z:     0.5806     Total:     4.6030

*** Psi4 exiting successfully. Buy a developer a beer!
