                               Psi4 1.4a3.dev225

  ==> Input File <==

--------------------------------------------------------------------------
#psi4
#
memory 32 gb

molecule  {
0 1
  O       -0.4387840     2.7607480     0.8353900
  O       -2.1331470    -1.1223190    -0.8372800
  N       -1.8213880     1.6463300    -0.5966440
  N       -1.3631050    -2.2953590     0.9499780
  C        0.3530890     0.6863100    -0.0267190
  C        0.1273570    -0.7062790    -0.0589400
  C        1.6757520     1.1521170    -0.0434370
  C        1.2227880    -1.5827320    -0.1454420
  C        2.6087932     0.2931866    -0.1433069
  C        2.5274700    -1.0985820    -0.2079210
  C       -0.6853200     1.7746360     0.1326930
  C       -1.2296110    -1.3487220    -0.0223170
  H        1.8350890     2.2234210     0.0367700
  H        1.0390000    -2.6541090    -0.1799310
  H        3.7675570     0.6687350    -0.1864300
  H        3.3600860    -1.7923230    -0.2949860
  H       -2.0668670     0.7647910    -1.0387640
  H       -2.5394600     2.3415160    -0.4355780
  H       -0.7232160    -2.3232030     1.7312060
  H       -2.2766340    -2.7186030     1.0611610
units angstrom
no_reorient  #important for SAPT in psi4, default
symmetry c1  #important for SAPT in psi4, default
}

set PROPERTIES_ORIGIN ["COM"]
properties('MP2/aug-cc-pvtz', properties = ['dipole'])
--------------------------------------------------------------------------

    Molecular point group: c1
  Charge       = 0
  Multiplicity = 1
  Basis Set: AUG-CC-PVTZ
    Blend: AUG-CC-PVTZ
  Basis Set: (AUG-CC-PVTZ AUX)
    Blend: AUG-CC-PVTZ-JKFIT

    Orbital Energies [Eh]
    ---------------------

    Doubly Occupied:

       1A    -20.547188     2A    -20.517165     3A    -15.609065
       4A    -15.572759     5A    -11.386403     6A    -11.358427
       7A    -11.279077     8A    -11.275825     9A    -11.265640
      10A    -11.262696    11A    -11.254054    12A    -11.239448
      13A     -1.401571    14A     -1.371158    15A     -1.237266
      16A     -1.205605    17A     -1.188047    18A     -1.064110
      19A     -1.051017    20A     -0.914369    21A     -0.866954
      22A     -0.823261    23A     -0.786010    24A     -0.766002
      25A     -0.721507    26A     -0.705786    27A     -0.684503
      28A     -0.660104    29A     -0.650724    30A     -0.629031
      31A     -0.615878    32A     -0.593805    33A     -0.583855
      34A     -0.565724    35A     -0.546079    36A     -0.527173
      37A     -0.493785    38A     -0.454170    39A     -0.441196
      40A     -0.429056    41A     -0.403593    42A     -0.375779
      43A     -0.355897

  @DF-RHF Final Energy:  -566.44350959266671

   => Energetics <=

    Nuclear Repulsion Energy =            672.8417794122096893
    One-Electron Energy =               -2107.2090562900666555
    Two-Electron Energy =                 867.9237672851902516
    Total Energy =                       -566.4435095926667145
  Basis Set: (AUG-CC-PVTZ AUX)
    Blend: AUG-CC-PVTZ-RI
    Molecular point group: c1

    Geometry (in Angstrom), charge = 0, multiplicity = 1:

       Center              X                  Y                   Z               Mass
    ------------   -----------------  -----------------  -----------------  -----------------
         O           -0.413717409362     2.738559197069     0.838853840745    15.994914619570
         O           -2.108080409362    -1.144507802931    -0.833816159255    15.994914619570
         N           -1.796321409362     1.624141197069    -0.593180159255    14.003074004430
         N           -1.338038409362    -2.317547802931     0.953441840745    14.003074004430
         C            0.378155590638     0.664121197069    -0.023255159255    12.000000000000
         C            0.152423590638    -0.728467802931    -0.055476159255    12.000000000000
         C            1.700818590638     1.129928197069    -0.039973159255    12.000000000000
         C            1.247854590638    -1.604920802931    -0.141978159255    12.000000000000
         C            2.633859790638     0.270997797069    -0.139843059255    12.000000000000
         C            2.552536590638    -1.120770802931    -0.204457159255    12.000000000000
         C           -0.660253409362     1.752447197069     0.136156840745    12.000000000000
         C           -1.204544409362    -1.370910802931    -0.018853159255    12.000000000000
         H            1.860155590638     2.201232197069     0.040233840745     1.007825032230
         H            1.064066590638    -2.676297802931    -0.176467159255     1.007825032230
         H            3.792623590638     0.646546197069    -0.182966159255     1.007825032230
         H            3.385152590638    -1.814511802931    -0.291522159255     1.007825032230
         H           -2.041800409362     0.742602197069    -1.035300159255     1.007825032230
         H           -2.514393409362     2.319327197069    -0.432114159255     1.007825032230
         H           -0.698149409362    -2.345391802931     1.734669840745     1.007825032230
         H           -2.251567409362    -2.740791802931     1.064624840745     1.007825032230

  Basis Set: AUG-CC-PVTZ
    Blend: AUG-CC-PVTZ
  Basis Set: (AUG-CC-PVTZ AUX)
    Blend: AUG-CC-PVTZ-JKFIT
	 Reference Energy          =    -566.4435095926667145 [Eh]
	 Singles Energy            =      -0.0000000000000000 [Eh]
	 Same-Spin Energy          =      -0.5972819850354345 [Eh]
	 Opposite-Spin Energy      =      -1.7906008944778429 [Eh]
	 Correlation Energy        =      -2.3878828795132776 [Eh]
	 Total Energy              =    -568.8313924721800277 [Eh]

	 ================> DF-SCS-MP2 Energies <==================
	-----------------------------------------------------------
	 SCS Same-Spin Scale       =       0.3333333333333333 [-]
	 SCS Opposite-Spin Scale   =       1.2000000000000000 [-]
	 SCS Same-Spin Energy      =      -0.1990939950118115 [Eh]
	 SCS Opposite-Spin Energy  =      -2.1487210733734114 [Eh]
	 SCS Correlation Energy    =      -2.3478150683852230 [Eh]
	 SCS Total Energy          =    -568.7913246610519309 [Eh]
	-----------------------------------------------------------

  Dipole Moment: [D]
     X:     0.7892      Y:    -4.1160      Z:     1.0107     Total:     4.3111

*** Psi4 exiting successfully. Buy a developer a beer!
