                               Psi4 1.4a3.dev225

  ==> Input File <==

--------------------------------------------------------------------------
#psi4
#
memory 32 gb

molecule  {
0 1
  O       -0.4387840     2.7607480     0.8353900
  O       -2.1331470    -1.1223190    -0.8372800
  N       -1.8213880     1.6463300    -0.5966440
  N       -1.3631050    -2.2953590     0.9499780
  C        0.3530890     0.6863100    -0.0267190
  C        0.1273570    -0.7062790    -0.0589400
  C        1.6757520     1.1521170    -0.0434370
  C        1.2227880    -1.5827320    -0.1454420
  C        2.7536970     0.2775120    -0.1531960
  C        2.5274700    -1.0985820    -0.2079210
  C       -0.6853200     1.7746360     0.1326930
  C       -1.2296110    -1.3487220    -0.0223170
  H        1.8424246     2.2727419     0.0404626
  H        1.0390000    -2.6541090    -0.1799310
  H        3.7675570     0.6687350    -0.1864300
  H        3.3600860    -1.7923230    -0.2949860
  H       -2.0668670     0.7647910    -1.0387640
  H       -2.5394600     2.3415160    -0.4355780
  H       -0.7232160    -2.3232030     1.7312060
  H       -2.2766340    -2.7186030     1.0611610
units angstrom
no_reorient  #important for SAPT in psi4, default
symmetry c1  #important for SAPT in psi4, default
}

set PROPERTIES_ORIGIN ["COM"]
properties('MP2/aug-cc-pvtz', properties = ['dipole'])
--------------------------------------------------------------------------

    Molecular point group: c1
  Charge       = 0
  Multiplicity = 1
  Basis Set: AUG-CC-PVTZ
    Blend: AUG-CC-PVTZ
  Basis Set: (AUG-CC-PVTZ AUX)
    Blend: AUG-CC-PVTZ-JKFIT

    Orbital Energies [Eh]
    ---------------------

    Doubly Occupied:

       1A    -20.547156     2A    -20.515181     3A    -15.609045
       4A    -15.571833     5A    -11.386386     6A    -11.357524
       7A    -11.280757     8A    -11.273557     9A    -11.265597
      10A    -11.262221    11A    -11.261005    12A    -11.258340
      13A     -1.401547    14A     -1.369467    15A     -1.236949
      16A     -1.203582    17A     -1.174832    18A     -1.055407
      19A     -1.045357    20A     -0.908335    21A     -0.867768
      22A     -0.820594    23A     -0.787521    24A     -0.763138
      25A     -0.724134    26A     -0.701262    27A     -0.686483
      28A     -0.659439    29A     -0.647704    30A     -0.630750
      31A     -0.607322    32A     -0.592784    33A     -0.581045
      34A     -0.566154    35A     -0.539057    36A     -0.518780
      37A     -0.517411    38A     -0.455910    39A     -0.440993
      40A     -0.428933    41A     -0.402394    42A     -0.362999
      43A     -0.356361

  @DF-RHF Final Energy:  -566.46924312412648

   => Energetics <=

    Nuclear Repulsion Energy =            669.5491895744306703
    One-Electron Energy =               -2100.7508334416288562
    Two-Electron Energy =                 864.7324007430715938
    Total Energy =                       -566.4692431241264785
  Basis Set: (AUG-CC-PVTZ AUX)
    Blend: AUG-CC-PVTZ-RI
    Molecular point group: c1

    Geometry (in Angstrom), charge = 0, multiplicity = 1:

       Center              X                  Y                   Z               Mass
    ------------   -----------------  -----------------  -----------------  -----------------
         O           -0.424361403891     2.739402727255     0.839554491129    15.994914619570
         O           -2.118724403891    -1.143664272745    -0.833115508871    15.994914619570
         N           -1.806965403891     1.624984727255    -0.592479508871    14.003074004430
         N           -1.348682403891    -2.316704272745     0.954142491129    14.003074004430
         C            0.367511596109     0.664964727255    -0.022554508871    12.000000000000
         C            0.141779596109    -0.727624272745    -0.054775508871    12.000000000000
         C            1.690174596109     1.130771727255    -0.039272508871    12.000000000000
         C            1.237210596109    -1.604077272745    -0.141277508871    12.000000000000
         C            2.768119596109     0.256166727255    -0.149031508871    12.000000000000
         C            2.541892596109    -1.119927272745    -0.203756508871    12.000000000000
         C           -0.670897403891     1.753290727255     0.136857491129    12.000000000000
         C           -1.215188403891    -1.370067272745    -0.018152508871    12.000000000000
         H            1.856847196109     2.251396627255     0.044627091129     1.007825032230
         H            1.053422596109    -2.675454272745    -0.175766508871     1.007825032230
         H            3.781979596109     0.647389727255    -0.182265508871     1.007825032230
         H            3.374508596109    -1.813668272745    -0.290821508871     1.007825032230
         H           -2.052444403891     0.743445727255    -1.034599508871     1.007825032230
         H           -2.525037403891     2.320170727255    -0.431413508871     1.007825032230
         H           -0.708793403891    -2.344548272745     1.735370491129     1.007825032230
         H           -2.262211403891    -2.739948272745     1.065325491129     1.007825032230

  Basis Set: AUG-CC-PVTZ
    Blend: AUG-CC-PVTZ
  Basis Set: (AUG-CC-PVTZ AUX)
    Blend: AUG-CC-PVTZ-JKFIT
	 Reference Energy          =    -566.4692431241264785 [Eh]
	 Singles Energy            =      -0.0000000000000000 [Eh]
	 Same-Spin Energy          =      -0.5970005678016865 [Eh]
	 Opposite-Spin Energy      =      -1.7901882080037734 [Eh]
	 Correlation Energy        =      -2.3871887758054600 [Eh]
	 Total Energy              =    -568.8564318999319767 [Eh]

	 ================> DF-SCS-MP2 Energies <==================
	-----------------------------------------------------------
	 SCS Same-Spin Scale       =       0.3333333333333333 [-]
	 SCS Opposite-Spin Scale   =       1.2000000000000000 [-]
	 SCS Same-Spin Energy      =      -0.1990001892672288 [Eh]
	 SCS Opposite-Spin Energy  =      -2.1482258496045281 [Eh]
	 SCS Correlation Energy    =      -2.3472260388717570 [Eh]
	 SCS Total Energy          =    -568.8164691629982599 [Eh]
	-----------------------------------------------------------

  Dipole Moment: [D]
     X:     0.9245      Y:    -4.0269      Z:     1.0181     Total:     4.2553

*** Psi4 exiting successfully. Buy a developer a beer!
