                               Psi4 1.4a3.dev225

  ==> Input File <==

--------------------------------------------------------------------------
#psi4
#
memory 32 gb

molecule  {
0 1
  O       -0.4387840     2.7607480     0.8353900
  O       -2.1331470    -1.1223190    -0.8372800
  N       -1.8213880     1.6463300    -0.5966440
  N       -1.3631050    -2.2953590     0.9499780
  C        0.3530890     0.6863100    -0.0267190
  C        0.1273570    -0.7062790    -0.0589400
  C        1.6757520     1.1521170    -0.0434370
  C        1.2227880    -1.5827320    -0.1454420
  C        2.6572722     0.2896509    -0.1465298
  C        2.5274700    -1.0985820    -0.2079210
  C       -0.6853200     1.7746360     0.1326930
  C       -1.2296110    -1.3487220    -0.0223170
  H        1.8350890     2.2234210     0.0367700
  H        1.0390000    -2.6541090    -0.1799310
  H        3.7675570     0.6687350    -0.1864300
  H        3.3600860    -1.7923230    -0.2949860
  H       -2.0668670     0.7647910    -1.0387640
  H       -2.5394600     2.3415160    -0.4355780
  H       -0.7232160    -2.3232030     1.7312060
  H       -2.2766340    -2.7186030     1.0611610
units angstrom
no_reorient  #important for SAPT in psi4, default
symmetry c1  #important for SAPT in psi4, default
}

set PROPERTIES_ORIGIN ["COM"]
properties('MP2/aug-cc-pvtz', properties = ['dipole'])
--------------------------------------------------------------------------

    Molecular point group: c1
  Charge       = 0
  Multiplicity = 1
  Basis Set: AUG-CC-PVTZ
    Blend: AUG-CC-PVTZ
  Basis Set: (AUG-CC-PVTZ AUX)
    Blend: AUG-CC-PVTZ-JKFIT

    Orbital Energies [Eh]
    ---------------------

    Doubly Occupied:

       1A    -20.547068     2A    -20.516466     3A    -15.608959
       4A    -15.572377     5A    -11.386261     6A    -11.358050
       7A    -11.279414     8A    -11.274818     9A    -11.265438
      10A    -11.262124    11A    -11.255262    12A    -11.244776
      13A     -1.401453    14A     -1.370543    15A     -1.237034
      16A     -1.204666    17A     -1.183166    18A     -1.059613
      19A     -1.050568    20A     -0.911721    21A     -0.868020
      22A     -0.822789    23A     -0.786208    24A     -0.765199
      25A     -0.721943    26A     -0.704593    27A     -0.684461
      28A     -0.659532    29A     -0.649876    30A     -0.630006
      31A     -0.614132    32A     -0.593317    33A     -0.582878
      34A     -0.565442    35A     -0.542441    36A     -0.523519
      37A     -0.507044    38A     -0.455065    39A     -0.441057
      40A     -0.429236    41A     -0.403159    42A     -0.370588
      43A     -0.356426

  @DF-RHF Final Energy:  -566.45953129417728

   => Energetics <=

    Nuclear Repulsion Energy =            671.7927317227571393
    One-Electron Energy =               -2105.1711081964826917
    Two-Electron Energy =                 866.9188451795481569
    Total Energy =                       -566.4595312941772818
  Basis Set: (AUG-CC-PVTZ AUX)
    Blend: AUG-CC-PVTZ-RI
    Molecular point group: c1

    Geometry (in Angstrom), charge = 0, multiplicity = 1:

       Center              X                  Y                   Z               Mass
    ------------   -----------------  -----------------  -----------------  -----------------
         O           -0.417263386713     2.738817814453     0.839089578496    15.994914619570
         O           -2.111626386713    -1.144249185547    -0.833580421504    15.994914619570
         N           -1.799867386713     1.624399814453    -0.592944421504    14.003074004430
         N           -1.341584386713    -2.317289185547     0.953677578496    14.003074004430
         C            0.374609613287     0.664379814453    -0.023019421504    12.000000000000
         C            0.148877613287    -0.728209185547    -0.055240421504    12.000000000000
         C            1.697272613287     1.130186814453    -0.039737421504    12.000000000000
         C            1.244308613287    -1.604662185547    -0.141742421504    12.000000000000
         C            2.678792813287     0.267720714453    -0.142830221504    12.000000000000
         C            2.548990613287    -1.120512185547    -0.204221421504    12.000000000000
         C           -0.663799386713     1.752705814453     0.136392578496    12.000000000000
         C           -1.208090386713    -1.370652185547    -0.018617421504    12.000000000000
         H            1.856609613287     2.201490814453     0.040469578496     1.007825032230
         H            1.060520613287    -2.676039185547    -0.176231421504     1.007825032230
         H            3.789077613287     0.646804814453    -0.182730421504     1.007825032230
         H            3.381606613287    -1.814253185547    -0.291286421504     1.007825032230
         H           -2.045346386713     0.742860814453    -1.035064421504     1.007825032230
         H           -2.517939386713     2.319585814453    -0.431878421504     1.007825032230
         H           -0.701695386713    -2.345133185547     1.734905578496     1.007825032230
         H           -2.255113386713    -2.740533185547     1.064860578496     1.007825032230

  Basis Set: AUG-CC-PVTZ
    Blend: AUG-CC-PVTZ
  Basis Set: (AUG-CC-PVTZ AUX)
    Blend: AUG-CC-PVTZ-JKFIT
	 Reference Energy          =    -566.4595312941772818 [Eh]
	 Singles Energy            =      -0.0000000000000000 [Eh]
	 Same-Spin Energy          =      -0.5970576579077430 [Eh]
	 Opposite-Spin Energy      =      -1.7899927363446393 [Eh]
	 Correlation Energy        =      -2.3870503942523822 [Eh]
	 Total Energy              =    -568.8465816884296373 [Eh]

	 ================> DF-SCS-MP2 Energies <==================
	-----------------------------------------------------------
	 SCS Same-Spin Scale       =       0.3333333333333333 [-]
	 SCS Opposite-Spin Scale   =       1.2000000000000000 [-]
	 SCS Same-Spin Energy      =      -0.1990192193025810 [Eh]
	 SCS Opposite-Spin Energy  =      -2.1479912836135671 [Eh]
	 SCS Correlation Energy    =      -2.3470105029161479 [Eh]
	 SCS Total Energy          =    -568.8065417970934732 [Eh]
	-----------------------------------------------------------

  Dipole Moment: [D]
     X:     0.8538      Y:    -4.0828      Z:     1.0111     Total:     4.2919

*** Psi4 exiting successfully. Buy a developer a beer!
