                               Psi4 1.4a3.dev225

  ==> Input File <==

--------------------------------------------------------------------------
#psi4
#
memory 32 gb

molecule  {
0 1
  O       -0.4387840     2.7607480     0.8353900
  O       -2.1331470    -1.1223190    -0.8372800
  N       -1.8213880     1.6463300    -0.5966440
  N       -1.3631050    -2.2953590     0.9499780
  C        0.3530890     0.6863100    -0.0267190
  C        0.1593500    -0.5089073    -0.0543733
  C        1.6757520     1.1521170    -0.0434370
  C        1.2227880    -1.5827320    -0.1454420
  C        2.7536970     0.2775120    -0.1531960
  C        2.5274700    -1.0985820    -0.2079210
  C       -0.6853200     1.7746360     0.1326930
  C       -1.2296110    -1.3487220    -0.0223170
  H        1.8350890     2.2234210     0.0367700
  H        1.0390000    -2.6541090    -0.1799310
  H        3.7675570     0.6687350    -0.1864300
  H        3.3600860    -1.7923230    -0.2949860
  H       -2.0668670     0.7647910    -1.0387640
  H       -2.5394600     2.3415160    -0.4355780
  H       -0.7232160    -2.3232030     1.7312060
  H       -2.2766340    -2.7186030     1.0611610
units angstrom
no_reorient  #important for SAPT in psi4, default
symmetry c1  #important for SAPT in psi4, default
}

set PROPERTIES_ORIGIN ["COM"]
properties('MP2/aug-cc-pvtz', properties = ['dipole'])
--------------------------------------------------------------------------

    Molecular point group: c1
  Charge       = 0
  Multiplicity = 1
  Basis Set: AUG-CC-PVTZ
    Blend: AUG-CC-PVTZ
  Basis Set: (AUG-CC-PVTZ AUX)
    Blend: AUG-CC-PVTZ-JKFIT

    Orbital Energies [Eh]
    ---------------------

    Doubly Occupied:

       1A    -20.546289     2A    -20.517793     3A    -15.611204
       4A    -15.573626     5A    -11.390995     6A    -11.358825
       7A    -11.275322     8A    -11.268859     9A    -11.260537
      10A    -11.255092    11A    -11.252751    12A    -11.247834
      13A     -1.398903    14A     -1.371979    15A     -1.234449
      16A     -1.210258    17A     -1.187601    18A     -1.074921
      19A     -1.026767    20A     -0.888887    21A     -0.868375
      22A     -0.843061    23A     -0.785453    24A     -0.761971
      25A     -0.724077    26A     -0.697410    27A     -0.680825
      28A     -0.675623    29A     -0.645087    30A     -0.632418
      31A     -0.600632    32A     -0.590240    33A     -0.583889
      34A     -0.568128    35A     -0.536385    36A     -0.530089
      37A     -0.521124    38A     -0.445529    39A     -0.441427
      40A     -0.419774    41A     -0.404257    42A     -0.389108
      43A     -0.342053

  @DF-RHF Final Energy:  -566.41629939414611

   => Energetics <=

    Nuclear Repulsion Energy =            671.1638478181987466
    One-Electron Energy =               -2103.8806366001404058
    Two-Electron Energy =                 866.3004893877955510
    Total Energy =                       -566.4162993941461082
  Basis Set: (AUG-CC-PVTZ AUX)
    Blend: AUG-CC-PVTZ-RI
    Molecular point group: c1

    Geometry (in Angstrom), charge = 0, multiplicity = 1:

       Center              X                  Y                   Z               Mass
    ------------   -----------------  -----------------  -----------------  -----------------
         O           -0.426656456087     2.725269034292     0.839243145596    15.994914619570
         O           -2.121019456087    -1.157797965708    -0.833426854404    15.994914619570
         N           -1.809260456087     1.610851034292    -0.592790854404    14.003074004430
         N           -1.350977456087    -2.330837965708     0.953831145596    14.003074004430
         C            0.365216543913     0.650831034292    -0.022865854404    12.000000000000
         C            0.171477543913    -0.544386265708    -0.050520154404    12.000000000000
         C            1.687879543913     1.116638034292    -0.039583854404    12.000000000000
         C            1.234915543913    -1.618210965708    -0.141588854404    12.000000000000
         C            2.765824543913     0.242033034292    -0.149342854404    12.000000000000
         C            2.539597543913    -1.134060965708    -0.204067854404    12.000000000000
         C           -0.673192456087     1.739157034292     0.136546145596    12.000000000000
         C           -1.217483456087    -1.384200965708    -0.018463854404    12.000000000000
         H            1.847216543913     2.187942034292     0.040623145596     1.007825032230
         H            1.051127543913    -2.689587965708    -0.176077854404     1.007825032230
         H            3.779684543913     0.633256034292    -0.182576854404     1.007825032230
         H            3.372213543913    -1.827801965708    -0.291132854404     1.007825032230
         H           -2.054739456087     0.729312034292    -1.034910854404     1.007825032230
         H           -2.527332456087     2.306037034292    -0.431724854404     1.007825032230
         H           -0.711088456087    -2.358681965708     1.735059145596     1.007825032230
         H           -2.264506456087    -2.754081965708     1.065014145596     1.007825032230

  Basis Set: AUG-CC-PVTZ
    Blend: AUG-CC-PVTZ
  Basis Set: (AUG-CC-PVTZ AUX)
    Blend: AUG-CC-PVTZ-JKFIT
	 Reference Energy          =    -566.4162993941461082 [Eh]
	 Singles Energy            =      -0.0000000000000000 [Eh]
	 Same-Spin Energy          =      -0.5952497063221330 [Eh]
	 Opposite-Spin Energy      =      -1.7900514035590724 [Eh]
	 Correlation Energy        =      -2.3853011098812056 [Eh]
	 Total Energy              =    -568.8016005040273058 [Eh]

	 ================> DF-SCS-MP2 Energies <==================
	-----------------------------------------------------------
	 SCS Same-Spin Scale       =       0.3333333333333333 [-]
	 SCS Opposite-Spin Scale   =       1.2000000000000000 [-]
	 SCS Same-Spin Energy      =      -0.1984165687740443 [Eh]
	 SCS Opposite-Spin Energy  =      -2.1480616842708868 [Eh]
	 SCS Correlation Energy    =      -2.3464782530449311 [Eh]
	 SCS Total Energy          =    -568.7627776471910011 [Eh]
	-----------------------------------------------------------

  Dipole Moment: [D]
     X:     0.7333      Y:    -4.0197      Z:     1.0410     Total:     4.2166

*** Psi4 exiting successfully. Buy a developer a beer!
