                               Psi4 1.4a3.dev225

  ==> Input File <==

--------------------------------------------------------------------------
#psi4
#
memory 32 gb

molecule  {
0 1
  O       -0.4387840     2.7607480     0.8353900
  O       -2.1331470    -1.1223190    -0.8372800
  N       -1.8213880     1.6463300    -0.5966440
  N       -1.3631050    -2.2953590     0.9499780
  C        0.3530890     0.6863100    -0.0267190
  C        0.1273570    -0.7062790    -0.0589400
  C        1.6757520     1.1521170    -0.0434370
  C        1.2227880    -1.5827320    -0.1454420
  C        2.7536970     0.2775120    -0.1531960
  C        2.5274700    -1.0985820    -0.2079210
  C       -0.6853200     1.7746360     0.1326930
  C       -1.2296110    -1.3487220    -0.0223170
  H        1.8350890     2.2234210     0.0367700
  H        1.0390000    -2.6541090    -0.1799310
  H        3.7675570     0.6687350    -0.1864300
  H        3.3447700    -1.7795616    -0.2933844
  H       -2.0668670     0.7647910    -1.0387640
  H       -2.5394600     2.3415160    -0.4355780
  H       -0.7232160    -2.3232030     1.7312060
  H       -2.2766340    -2.7186030     1.0611610
units angstrom
no_reorient  #important for SAPT in psi4, default
symmetry c1  #important for SAPT in psi4, default
}

set PROPERTIES_ORIGIN ["COM"]
properties('MP2/aug-cc-pvtz', properties = ['dipole'])
--------------------------------------------------------------------------

    Molecular point group: c1
  Charge       = 0
  Multiplicity = 1
  Basis Set: AUG-CC-PVTZ
    Blend: AUG-CC-PVTZ
  Basis Set: (AUG-CC-PVTZ AUX)
    Blend: AUG-CC-PVTZ-JKFIT

    Orbital Energies [Eh]
    ---------------------

    Doubly Occupied:

       1A    -20.547036     2A    -20.515278     3A    -15.608944
       4A    -15.571801     5A    -11.386218     6A    -11.357510
       7A    -11.280442     8A    -11.273217     9A    -11.265385
      10A    -11.259919    11A    -11.258154    12A    -11.255520
      13A     -1.401431    14A     -1.369524    15A     -1.236843
      16A     -1.203564    17A     -1.174985    18A     -1.055665
      19A     -1.046875    20A     -0.908586    21A     -0.869731
      22A     -0.822374    23A     -0.787880    24A     -0.764405
      25A     -0.724124    26A     -0.703561    27A     -0.686497
      28A     -0.660023    29A     -0.650022    30A     -0.631720
      31A     -0.610904    32A     -0.593380    33A     -0.581157
      34A     -0.566593    35A     -0.539488    36A     -0.523448
      37A     -0.517230    38A     -0.455848    39A     -0.440925
      40A     -0.428987    41A     -0.402467    42A     -0.362801
      43A     -0.356242

  @DF-RHF Final Energy:  -566.47198194990756

   => Energetics <=

    Nuclear Repulsion Energy =            669.9099379208735172
    One-Electron Energy =               -2101.4504327688732701
    Two-Electron Energy =                 865.0685128980921945
    Total Energy =                       -566.4719819499075584
  Basis Set: (AUG-CC-PVTZ AUX)
    Blend: AUG-CC-PVTZ-RI
    Molecular point group: c1

    Geometry (in Angstrom), charge = 0, multiplicity = 1:

       Center              X                  Y                   Z               Mass
    ------------   -----------------  -----------------  -----------------  -----------------
         O           -0.424222253291     2.739627315203     0.839567336310    15.994914619570
         O           -2.118585253291    -1.143439684797    -0.833102663690    15.994914619570
         N           -1.806826253291     1.625209315203    -0.592466663690    14.003074004430
         N           -1.348543253291    -2.316479684797     0.954155336310    14.003074004430
         C            0.367650746709     0.665189315203    -0.022541663690    12.000000000000
         C            0.141918746709    -0.727399684797    -0.054762663690    12.000000000000
         C            1.690313746709     1.130996315203    -0.039259663690    12.000000000000
         C            1.237349746709    -1.603852684797    -0.141264663690    12.000000000000
         C            2.768258746709     0.256391315203    -0.149018663690    12.000000000000
         C            2.542031746709    -1.119702684797    -0.203743663690    12.000000000000
         C           -0.670758253291     1.753515315203     0.136870336310    12.000000000000
         C           -1.215049253291    -1.369842684797    -0.018139663690    12.000000000000
         H            1.849650746709     2.202300315203     0.040947336310     1.007825032230
         H            1.053561746709    -2.675229684797    -0.175753663690     1.007825032230
         H            3.782118746709     0.647614315203    -0.182252663690     1.007825032230
         H            3.359331746709    -1.800682284797    -0.289207063690     1.007825032230
         H           -2.052305253291     0.743670315203    -1.034586663690     1.007825032230
         H           -2.524898253291     2.320395315203    -0.431400663690     1.007825032230
         H           -0.708654253291    -2.344323684797     1.735383336310     1.007825032230
         H           -2.262072253291    -2.739723684797     1.065338336310     1.007825032230

  Basis Set: AUG-CC-PVTZ
    Blend: AUG-CC-PVTZ
  Basis Set: (AUG-CC-PVTZ AUX)
    Blend: AUG-CC-PVTZ-JKFIT
	 Reference Energy          =    -566.4719819499075584 [Eh]
	 Singles Energy            =      -0.0000000000000000 [Eh]
	 Same-Spin Energy          =      -0.5967781341968369 [Eh]
	 Opposite-Spin Energy      =      -1.7895666844735103 [Eh]
	 Correlation Energy        =      -2.3863448186703473 [Eh]
	 Total Energy              =    -568.8583267685778537 [Eh]

	 ================> DF-SCS-MP2 Energies <==================
	-----------------------------------------------------------
	 SCS Same-Spin Scale       =       0.3333333333333333 [-]
	 SCS Opposite-Spin Scale   =       1.2000000000000000 [-]
	 SCS Same-Spin Energy      =      -0.1989260447322790 [Eh]
	 SCS Opposite-Spin Energy  =      -2.1474800213682124 [Eh]
	 SCS Correlation Energy    =      -2.3464060661004913 [Eh]
	 SCS Total Energy          =    -568.8183880160080435 [Eh]
	-----------------------------------------------------------

  Dipole Moment: [D]
     X:     0.9351      Y:    -4.0339      Z:     1.0137     Total:     4.2631

*** Psi4 exiting successfully. Buy a developer a beer!
