                               Psi4 1.4a3.dev225

  ==> Input File <==

--------------------------------------------------------------------------
#psi4
#
memory 32 gb

molecule  {
0 1
  O       -0.4387840     2.7607480     0.8353900
  O       -2.1331470    -1.1223190    -0.8372800
  N       -1.8213880     1.6463300    -0.5966440
  N       -1.3631050    -2.2953590     0.9499780
  C        0.3530890     0.6863100    -0.0267190
  C        0.1273570    -0.7062790    -0.0589400
  C        1.5814370     1.1189017    -0.0422449
  C        1.2227880    -1.5827320    -0.1454420
  C        2.7536970     0.2775120    -0.1531960
  C        2.5274700    -1.0985820    -0.2079210
  C       -0.6853200     1.7746360     0.1326930
  C       -1.2296110    -1.3487220    -0.0223170
  H        1.8350890     2.2234210     0.0367700
  H        1.0390000    -2.6541090    -0.1799310
  H        3.7675570     0.6687350    -0.1864300
  H        3.3600860    -1.7923230    -0.2949860
  H       -2.0668670     0.7647910    -1.0387640
  H       -2.5394600     2.3415160    -0.4355780
  H       -0.7232160    -2.3232030     1.7312060
  H       -2.2766340    -2.7186030     1.0611610
units angstrom
no_reorient  #important for SAPT in psi4, default
symmetry c1  #important for SAPT in psi4, default
}

set PROPERTIES_ORIGIN ["COM"]
properties('MP2/aug-cc-pvtz', properties = ['dipole'])
--------------------------------------------------------------------------

    Molecular point group: c1
  Charge       = 0
  Multiplicity = 1
  Basis Set: AUG-CC-PVTZ
    Blend: AUG-CC-PVTZ
  Basis Set: (AUG-CC-PVTZ AUX)
    Blend: AUG-CC-PVTZ-JKFIT

    Orbital Energies [Eh]
    ---------------------

    Doubly Occupied:

       1A    -20.546393     2A    -20.514183     3A    -15.608478
       4A    -15.571394     5A    -11.385626     6A    -11.356423
       7A    -11.279903     8A    -11.266385     9A    -11.264967
      10A    -11.260727    11A    -11.260430    12A    -11.252793
      13A     -1.400935    14A     -1.368956    15A     -1.236409
      16A     -1.203875    17A     -1.180568    18A     -1.061985
      19A     -1.046110    20A     -0.906628    21A     -0.867420
      22A     -0.822098    23A     -0.789371    24A     -0.763688
      25A     -0.725466    26A     -0.700107    27A     -0.687725
      28A     -0.658282    29A     -0.646875    30A     -0.635034
      31A     -0.604477    32A     -0.594532    33A     -0.580631
      34A     -0.568204    35A     -0.546568    36A     -0.520048
      37A     -0.504970    38A     -0.456123    39A     -0.440393
      40A     -0.428500    41A     -0.401689    42A     -0.370416
      43A     -0.353913

  @DF-RHF Final Energy:  -566.45857428928684

   => Energetics <=

    Nuclear Repulsion Energy =            671.5200164899473521
    One-Electron Energy =               -2104.6777826249312966
    Two-Electron Energy =                 866.6991918456969870
    Total Energy =                       -566.4585742892868439
  Basis Set: (AUG-CC-PVTZ AUX)
    Blend: AUG-CC-PVTZ-RI
    Molecular point group: c1

    Geometry (in Angstrom), charge = 0, multiplicity = 1:

       Center              X                  Y                   Z               Mass
    ------------   -----------------  -----------------  -----------------  -----------------
         O           -0.417417707203     2.742135229539     0.839489979383    15.994914619570
         O           -2.111780707203    -1.140931770461    -0.833180020617    15.994914619570
         N           -1.800021707203     1.627717229539    -0.592544020617    14.003074004430
         N           -1.341738707203    -2.313971770461     0.954077979383    14.003074004430
         C            0.374455292797     0.667697229539    -0.022619020617    12.000000000000
         C            0.148723292797    -0.724891770461    -0.054840020617    12.000000000000
         C            1.602803292797     1.100288929539    -0.038144920617    12.000000000000
         C            1.244154292797    -1.601344770461    -0.141342020617    12.000000000000
         C            2.775063292797     0.258899229539    -0.149096020617    12.000000000000
         C            2.548836292797    -1.117194770461    -0.203821020617    12.000000000000
         C           -0.663953707203     1.756023229539     0.136792979383    12.000000000000
         C           -1.208244707203    -1.367334770461    -0.018217020617    12.000000000000
         H            1.856455292797     2.204808229539     0.040869979383     1.007825032230
         H            1.060366292797    -2.672721770461    -0.175831020617     1.007825032230
         H            3.788923292797     0.650122229539    -0.182330020617     1.007825032230
         H            3.381452292797    -1.810935770461    -0.290886020617     1.007825032230
         H           -2.045500707203     0.746178229539    -1.034664020617     1.007825032230
         H           -2.518093707203     2.322903229539    -0.431478020617     1.007825032230
         H           -0.701849707203    -2.341815770461     1.735305979383     1.007825032230
         H           -2.255267707203    -2.737215770461     1.065260979383     1.007825032230

  Basis Set: AUG-CC-PVTZ
    Blend: AUG-CC-PVTZ
  Basis Set: (AUG-CC-PVTZ AUX)
    Blend: AUG-CC-PVTZ-JKFIT
	 Reference Energy          =    -566.4585742892868439 [Eh]
	 Singles Energy            =      -0.0000000000000000 [Eh]
	 Same-Spin Energy          =      -0.5967507050321317 [Eh]
	 Opposite-Spin Energy      =      -1.7902038423223585 [Eh]
	 Correlation Energy        =      -2.3869545473544900 [Eh]
	 Total Energy              =    -568.8455288366412788 [Eh]

	 ================> DF-SCS-MP2 Energies <==================
	-----------------------------------------------------------
	 SCS Same-Spin Scale       =       0.3333333333333333 [-]
	 SCS Opposite-Spin Scale   =       1.2000000000000000 [-]
	 SCS Same-Spin Energy      =      -0.1989169016773772 [Eh]
	 SCS Opposite-Spin Energy  =      -2.1482446107868300 [Eh]
	 SCS Correlation Energy    =      -2.3471615124642073 [Eh]
	 SCS Total Energy          =    -568.8057358017510978 [Eh]
	-----------------------------------------------------------

  Dipole Moment: [D]
     X:     0.9681      Y:    -4.0431      Z:     1.0144     Total:     4.2794

*** Psi4 exiting successfully. Buy a developer a beer!
