                               Psi4 1.4a3.dev225

  ==> Input File <==

--------------------------------------------------------------------------
#psi4
#
memory 32 gb

molecule  {
0 1
  O       -0.4387840     2.7607480     0.8353900
  O       -2.1331470    -1.1223190    -0.8372800
  N       -1.8213880     1.6463300    -0.5966440
  N       -1.3631050    -2.2953590     0.9499780
  C        0.3530890     0.6863100    -0.0267190
  C        0.1273570    -0.7062790    -0.0589400
  C        1.6171212     1.0746106    -0.0446801
  C        1.2227880    -1.5827320    -0.1454420
  C        2.7536970     0.2775120    -0.1531960
  C        2.5274700    -1.0985820    -0.2079210
  C       -0.6853200     1.7746360     0.1326930
  C       -1.2296110    -1.3487220    -0.0223170
  H        1.8350890     2.2234210     0.0367700
  H        1.0390000    -2.6541090    -0.1799310
  H        3.7675570     0.6687350    -0.1864300
  H        3.3600860    -1.7923230    -0.2949860
  H       -2.0668670     0.7647910    -1.0387640
  H       -2.5394600     2.3415160    -0.4355780
  H       -0.7232160    -2.3232030     1.7312060
  H       -2.2766340    -2.7186030     1.0611610
units angstrom
no_reorient  #important for SAPT in psi4, default
symmetry c1  #important for SAPT in psi4, default
}

set PROPERTIES_ORIGIN ["COM"]
properties('MP2/aug-cc-pvtz', properties = ['dipole'])
--------------------------------------------------------------------------

    Molecular point group: c1
  Charge       = 0
  Multiplicity = 1
  Basis Set: AUG-CC-PVTZ
    Blend: AUG-CC-PVTZ
  Basis Set: (AUG-CC-PVTZ AUX)
    Blend: AUG-CC-PVTZ-JKFIT

    Orbital Energies [Eh]
    ---------------------

    Doubly Occupied:

       1A    -20.546815     2A    -20.515301     3A    -15.608692
       4A    -15.572343     5A    -11.385623     6A    -11.358074
       7A    -11.280462     8A    -11.264877     9A    -11.263642
      10A    -11.261639    11A    -11.258958    12A    -11.252265
      13A     -1.401254    14A     -1.369529    15A     -1.236719
      16A     -1.204815    17A     -1.183107    18A     -1.059457
      19A     -1.049846    20A     -0.909694    21A     -0.868161
      22A     -0.819481    23A     -0.791591    24A     -0.763331
      25A     -0.726260    26A     -0.700067    27A     -0.689662
      28A     -0.658064    29A     -0.648904    30A     -0.632791
      31A     -0.601325    32A     -0.595916    33A     -0.580959
      34A     -0.568151    35A     -0.548563    36A     -0.522355
      37A     -0.500270    38A     -0.456147    39A     -0.440496
      40A     -0.429556    41A     -0.402281    42A     -0.366125
      43A     -0.359681

  @DF-RHF Final Energy:  -566.45992711392159

   => Energetics <=

    Nuclear Repulsion Energy =            671.6902735859350742
    One-Electron Energy =               -2104.9939058464069603
    Two-Electron Energy =                 866.8437051465502918
    Total Energy =                       -566.4599271139215944
  Basis Set: (AUG-CC-PVTZ AUX)
    Blend: AUG-CC-PVTZ-RI
    Molecular point group: c1

    Geometry (in Angstrom), charge = 0, multiplicity = 1:

       Center              X                  Y                   Z               Mass
    ------------   -----------------  -----------------  -----------------  -----------------
         O           -0.420027813949     2.745374884594     0.839668101127    15.994914619570
         O           -2.114390813949    -1.137692115406    -0.833001898873    15.994914619570
         N           -1.802631813949     1.630956884594    -0.592365898873    14.003074004430
         N           -1.344348813949    -2.310732115406     0.954256101127    14.003074004430
         C            0.371845186051     0.670936884594    -0.022440898873    12.000000000000
         C            0.146113186051    -0.721652115406    -0.054661898873    12.000000000000
         C            1.635877386051     1.059237484594    -0.040401998873    12.000000000000
         C            1.241544186051    -1.598105115406    -0.141163898873    12.000000000000
         C            2.772453186051     0.262138884594    -0.148917898873    12.000000000000
         C            2.546226186051    -1.113955115406    -0.203642898873    12.000000000000
         C           -0.666563813949     1.759262884594     0.136971101127    12.000000000000
         C           -1.210854813949    -1.364095115406    -0.018038898873    12.000000000000
         H            1.853845186051     2.208047884594     0.041048101127     1.007825032230
         H            1.057756186051    -2.669482115406    -0.175652898873     1.007825032230
         H            3.786313186051     0.653361884594    -0.182151898873     1.007825032230
         H            3.378842186051    -1.807696115406    -0.290707898873     1.007825032230
         H           -2.048110813949     0.749417884594    -1.034485898873     1.007825032230
         H           -2.520703813949     2.326142884594    -0.431299898873     1.007825032230
         H           -0.704459813949    -2.338576115406     1.735484101127     1.007825032230
         H           -2.257877813949    -2.733976115406     1.065439101127     1.007825032230

  Basis Set: AUG-CC-PVTZ
    Blend: AUG-CC-PVTZ
  Basis Set: (AUG-CC-PVTZ AUX)
    Blend: AUG-CC-PVTZ-JKFIT
	 Reference Energy          =    -566.4599271139215944 [Eh]
	 Singles Energy            =      -0.0000000000000000 [Eh]
	 Same-Spin Energy          =      -0.5971574282992510 [Eh]
	 Opposite-Spin Energy      =      -1.7902492876922182 [Eh]
	 Correlation Energy        =      -2.3874067159914691 [Eh]
	 Total Energy              =    -568.8473338299130546 [Eh]

	 ================> DF-SCS-MP2 Energies <==================
	-----------------------------------------------------------
	 SCS Same-Spin Scale       =       0.3333333333333333 [-]
	 SCS Opposite-Spin Scale   =       1.2000000000000000 [-]
	 SCS Same-Spin Energy      =      -0.1990524760997503 [Eh]
	 SCS Opposite-Spin Energy  =      -2.1482991452306619 [Eh]
	 SCS Correlation Energy    =      -2.3473516213304122 [Eh]
	 SCS Total Energy          =    -568.8072787352519981 [Eh]
	-----------------------------------------------------------

  Dipole Moment: [D]
     X:     0.9399      Y:    -4.0513      Z:     1.0117     Total:     4.2802

*** Psi4 exiting successfully. Buy a developer a beer!
