                               Psi4 1.4a3.dev225

  ==> Input File <==

--------------------------------------------------------------------------
#psi4
#
memory 32 gb

molecule  {
0 1
  O       -0.4387840     2.7607480     0.8353900
  O       -2.1331470    -1.1223190    -0.8372800
  N       -1.8213880     1.6463300    -0.5966440
  N       -1.3631050    -2.2953590     0.9499780
  C        0.3885767     0.5955110    -0.0355336
  C        0.1273570    -0.7062790    -0.0589400
  C        1.6757520     1.1521170    -0.0434370
  C        1.2227880    -1.5827320    -0.1454420
  C        2.7536970     0.2775120    -0.1531960
  C        2.5274700    -1.0985820    -0.2079210
  C       -0.6853200     1.7746360     0.1326930
  C       -1.2296110    -1.3487220    -0.0223170
  H        1.8350890     2.2234210     0.0367700
  H        1.0390000    -2.6541090    -0.1799310
  H        3.7675570     0.6687350    -0.1864300
  H        3.3600860    -1.7923230    -0.2949860
  H       -2.0668670     0.7647910    -1.0387640
  H       -2.5394600     2.3415160    -0.4355780
  H       -0.7232160    -2.3232030     1.7312060
  H       -2.2766340    -2.7186030     1.0611610
units angstrom
no_reorient  #important for SAPT in psi4, default
symmetry c1  #important for SAPT in psi4, default
}

set PROPERTIES_ORIGIN ["COM"]
properties('MP2/aug-cc-pvtz', properties = ['dipole'])
--------------------------------------------------------------------------

    Molecular point group: c1
  Charge       = 0
  Multiplicity = 1
  Basis Set: AUG-CC-PVTZ
    Blend: AUG-CC-PVTZ
  Basis Set: (AUG-CC-PVTZ AUX)
    Blend: AUG-CC-PVTZ-JKFIT

    Orbital Energies [Eh]
    ---------------------

    Doubly Occupied:

       1A    -20.548154     2A    -20.517460     3A    -15.610004
       4A    -15.571895     5A    -11.387937     6A    -11.361443
       7A    -11.270719     8A    -11.268985     9A    -11.263978
      10A    -11.259278    11A    -11.256781    12A    -11.253784
      13A     -1.402535    14A     -1.367914    15A     -1.238227
      16A     -1.203208    17A     -1.182614    18A     -1.061757
      19A     -1.041145    20A     -0.901421    21A     -0.864675
      22A     -0.830177    23A     -0.785557    24A     -0.765487
      25A     -0.722356    26A     -0.702941    27A     -0.682276
      28A     -0.666025    29A     -0.645307    30A     -0.631868
      31A     -0.612199    32A     -0.588643    33A     -0.584322
      34A     -0.564078    35A     -0.537453    36A     -0.525969
      37A     -0.520860    38A     -0.456751    39A     -0.441677
      40A     -0.420850    41A     -0.402922    42A     -0.371222
      43A     -0.353385

  @DF-RHF Final Energy:  -566.46202706469489

   => Energetics <=

    Nuclear Repulsion Energy =            670.2988393230683641
    One-Electron Energy =               -2102.2292490225809161
    Two-Electron Energy =                 865.4683826348175444
    Total Energy =                       -566.4620270646948939
  Basis Set: (AUG-CC-PVTZ AUX)
    Blend: AUG-CC-PVTZ-RI
    Molecular point group: c1

    Geometry (in Angstrom), charge = 0, multiplicity = 1:

       Center              X                  Y                   Z               Mass
    ------------   -----------------  -----------------  -----------------  -----------------
         O           -0.426912074542     2.746347166583     0.840221915511    15.994914619570
         O           -2.121275074542    -1.136719833417    -0.832448084489    15.994914619570
         N           -1.809516074542     1.631929166583    -0.591812084489    14.003074004430
         N           -1.351233074542    -2.309759833417     0.954809915511    14.003074004430
         C            0.400448625458     0.581110166583    -0.030701684489    12.000000000000
         C            0.139228925458    -0.720679833417    -0.054108084489    12.000000000000
         C            1.687623925458     1.137716166583    -0.038605084489    12.000000000000
         C            1.234659925458    -1.597132833417    -0.140610084489    12.000000000000
         C            2.765568925458     0.263111166583    -0.148364084489    12.000000000000
         C            2.539341925458    -1.112982833417    -0.203089084489    12.000000000000
         C           -0.673448074542     1.760235166583     0.137524915511    12.000000000000
         C           -1.217739074542    -1.363122833417    -0.017485084489    12.000000000000
         H            1.846960925458     2.209020166583     0.041601915511     1.007825032230
         H            1.050871925458    -2.668509833417    -0.175099084489     1.007825032230
         H            3.779428925458     0.654334166583    -0.181598084489     1.007825032230
         H            3.371957925458    -1.806723833417    -0.290154084489     1.007825032230
         H           -2.054995074542     0.750390166583    -1.033932084489     1.007825032230
         H           -2.527588074542     2.327115166583    -0.430746084489     1.007825032230
         H           -0.711344074542    -2.337603833417     1.736037915511     1.007825032230
         H           -2.264762074542    -2.733003833417     1.065992915511     1.007825032230

  Basis Set: AUG-CC-PVTZ
    Blend: AUG-CC-PVTZ
  Basis Set: (AUG-CC-PVTZ AUX)
    Blend: AUG-CC-PVTZ-JKFIT
	 Reference Energy          =    -566.4620270646948939 [Eh]
	 Singles Energy            =      -0.0000000000000000 [Eh]
	 Same-Spin Energy          =      -0.5964922028399203 [Eh]
	 Opposite-Spin Energy      =      -1.7893825785694948 [Eh]
	 Correlation Energy        =      -2.3858747814094152 [Eh]
	 Total Energy              =    -568.8479018461042642 [Eh]

	 ================> DF-SCS-MP2 Energies <==================
	-----------------------------------------------------------
	 SCS Same-Spin Scale       =       0.3333333333333333 [-]
	 SCS Opposite-Spin Scale   =       1.2000000000000000 [-]
	 SCS Same-Spin Energy      =      -0.1988307342799734 [Eh]
	 SCS Opposite-Spin Energy  =      -2.1472590942833936 [Eh]
	 SCS Correlation Energy    =      -2.3460898285633669 [Eh]
	 SCS Total Energy          =    -568.8081168932582159 [Eh]
	-----------------------------------------------------------

  Dipole Moment: [D]
     X:     0.8264      Y:    -3.9642      Z:     1.0408     Total:     4.1810

*** Psi4 exiting successfully. Buy a developer a beer!
