                               Psi4 1.4a3.dev225

  ==> Input File <==

--------------------------------------------------------------------------
#psi4
#
memory 32 gb

molecule  {
0 1
  O       -0.4387840     2.7607480     0.8353900
  O       -2.1331470    -1.1223190    -0.8372800
  N       -1.8213880     1.6463300    -0.5966440
  N       -1.3631050    -2.2953590     0.9499780
  C        0.3530890     0.6863100    -0.0267190
  C        0.1273570    -0.7062790    -0.0589400
  C        1.6568890     1.1454739    -0.0431986
  C        1.2227880    -1.5827320    -0.1454420
  C        2.7536970     0.2775120    -0.1531960
  C        2.5274700    -1.0985820    -0.2079210
  C       -0.6853200     1.7746360     0.1326930
  C       -1.2296110    -1.3487220    -0.0223170
  H        1.8350890     2.2234210     0.0367700
  H        1.0390000    -2.6541090    -0.1799310
  H        3.7675570     0.6687350    -0.1864300
  H        3.3600860    -1.7923230    -0.2949860
  H       -2.0668670     0.7647910    -1.0387640
  H       -2.5394600     2.3415160    -0.4355780
  H       -0.7232160    -2.3232030     1.7312060
  H       -2.2766340    -2.7186030     1.0611610
units angstrom
no_reorient  #important for SAPT in psi4, default
symmetry c1  #important for SAPT in psi4, default
}

set PROPERTIES_ORIGIN ["COM"]
properties('MP2/aug-cc-pvtz', properties = ['dipole'])
--------------------------------------------------------------------------

    Molecular point group: c1
  Charge       = 0
  Multiplicity = 1
  Basis Set: AUG-CC-PVTZ
    Blend: AUG-CC-PVTZ
  Basis Set: (AUG-CC-PVTZ AUX)
    Blend: AUG-CC-PVTZ-JKFIT

    Orbital Energies [Eh]
    ---------------------

    Doubly Occupied:

       1A    -20.546959     2A    -20.515084     3A    -15.608890
       4A    -15.571740     5A    -11.386164     6A    -11.357319
       7A    -11.280431     8A    -11.270935     9A    -11.265691
      10A    -11.261909    11A    -11.259619    12A    -11.255281
      13A     -1.401380    14A     -1.369430    15A     -1.236792
      16A     -1.203603    17A     -1.175894    18A     -1.054981
      19A     -1.048023    20A     -0.907946    21A     -0.868850
      22A     -0.822308    23A     -0.787930    24A     -0.763837
      25A     -0.724382    26A     -0.702145    27A     -0.686770
      28A     -0.659289    29A     -0.648211    30A     -0.632591
      31A     -0.609599    32A     -0.593308    33A     -0.580924
      34A     -0.566740    35A     -0.540308    36A     -0.520603
      37A     -0.517676    38A     -0.455967    39A     -0.440869
      40A     -0.428943    41A     -0.402342    42A     -0.361996
      43A     -0.357884

  @DF-RHF Final Energy:  -566.47142267249296

   => Energetics <=

    Nuclear Repulsion Energy =            670.1314795783289355
    One-Electron Energy =               -2101.9027199065749301
    Two-Electron Energy =                 865.2998176557530314
    Total Energy =                       -566.4714226724929631
  Basis Set: (AUG-CC-PVTZ AUX)
    Blend: AUG-CC-PVTZ-RI
    Molecular point group: c1

    Geometry (in Angstrom), charge = 0, multiplicity = 1:

       Center              X                  Y                   Z               Mass
    ------------   -----------------  -----------------  -----------------  -----------------
         O           -0.422936614009     2.740191616441     0.839559737394    15.994914619570
         O           -2.117299614009    -1.142875383559    -0.833110262606    15.994914619570
         N           -1.805540614009     1.625773616441    -0.592474262606    14.003074004430
         N           -1.347257614009    -2.315915383559     0.954147737394    14.003074004430
         C            0.368936385991     0.665753616441    -0.022549262606    12.000000000000
         C            0.143204385991    -0.726835383559    -0.054770262606    12.000000000000
         C            1.672736385991     1.124917516441    -0.039028862606    12.000000000000
         C            1.238635385991    -1.603288383559    -0.141272262606    12.000000000000
         C            2.769544385991     0.256955616441    -0.149026262606    12.000000000000
         C            2.543317385991    -1.119138383559    -0.203751262606    12.000000000000
         C           -0.669472614009     1.754079616441     0.136862737394    12.000000000000
         C           -1.213763614009    -1.369278383559    -0.018147262606    12.000000000000
         H            1.850936385991     2.202864616441     0.040939737394     1.007825032230
         H            1.054847385991    -2.674665383559    -0.175761262606     1.007825032230
         H            3.783404385991     0.648178616441    -0.182260262606     1.007825032230
         H            3.375933385991    -1.812879383559    -0.290816262606     1.007825032230
         H           -2.051019614009     0.744234616441    -1.034594262606     1.007825032230
         H           -2.523612614009     2.320959616441    -0.431408262606     1.007825032230
         H           -0.707368614009    -2.343759383559     1.735375737394     1.007825032230
         H           -2.260786614009    -2.739159383559     1.065330737394     1.007825032230

  Basis Set: AUG-CC-PVTZ
    Blend: AUG-CC-PVTZ
  Basis Set: (AUG-CC-PVTZ AUX)
    Blend: AUG-CC-PVTZ-JKFIT
	 Reference Energy          =    -566.4714226724929631 [Eh]
	 Singles Energy            =      -0.0000000000000000 [Eh]
	 Same-Spin Energy          =      -0.5968294930202021 [Eh]
	 Opposite-Spin Energy      =      -1.7897223275272429 [Eh]
	 Correlation Energy        =      -2.3865518205474450 [Eh]
	 Total Energy              =    -568.8579744930403876 [Eh]

	 ================> DF-SCS-MP2 Energies <==================
	-----------------------------------------------------------
	 SCS Same-Spin Scale       =       0.3333333333333333 [-]
	 SCS Opposite-Spin Scale   =       1.2000000000000000 [-]
	 SCS Same-Spin Energy      =      -0.1989431643400673 [Eh]
	 SCS Opposite-Spin Energy  =      -2.1476667930326916 [Eh]
	 SCS Correlation Energy    =      -2.3466099573727588 [Eh]
	 SCS Total Energy          =    -568.8180326298656837 [Eh]
	-----------------------------------------------------------

  Dipole Moment: [D]
     X:     0.9381      Y:    -4.0319      Z:     1.0143     Total:     4.2620

*** Psi4 exiting successfully. Buy a developer a beer!
