                               Psi4 1.4a3.dev225

  ==> Input File <==

--------------------------------------------------------------------------
#psi4
#
memory 32 gb

molecule  {
0 1
  O       -0.4387840     2.7607480     0.8353900
  O       -2.1331470    -1.1223190    -0.8372800
  N       -1.8213880     1.6463300    -0.5966440
  N       -1.3631050    -2.2953590     0.9499780
  C        0.3530890     0.6863100    -0.0267190
  C        0.1273570    -0.7062790    -0.0589400
  C        1.6946150     1.1587601    -0.0436754
  C        1.2227880    -1.5827320    -0.1454420
  C        2.7536970     0.2775120    -0.1531960
  C        2.5274700    -1.0985820    -0.2079210
  C       -0.6853200     1.7746360     0.1326930
  C       -1.2296110    -1.3487220    -0.0223170
  H        1.8350890     2.2234210     0.0367700
  H        1.0390000    -2.6541090    -0.1799310
  H        3.7675570     0.6687350    -0.1864300
  H        3.3600860    -1.7923230    -0.2949860
  H       -2.0668670     0.7647910    -1.0387640
  H       -2.5394600     2.3415160    -0.4355780
  H       -0.7232160    -2.3232030     1.7312060
  H       -2.2766340    -2.7186030     1.0611610
units angstrom
no_reorient  #important for SAPT in psi4, default
symmetry c1  #important for SAPT in psi4, default
}

set PROPERTIES_ORIGIN ["COM"]
properties('MP2/aug-cc-pvtz', properties = ['dipole'])
--------------------------------------------------------------------------

    Molecular point group: c1
  Charge       = 0
  Multiplicity = 1
  Basis Set: AUG-CC-PVTZ
    Blend: AUG-CC-PVTZ
  Basis Set: (AUG-CC-PVTZ AUX)
    Blend: AUG-CC-PVTZ-JKFIT

    Orbital Energies [Eh]
    ---------------------

    Doubly Occupied:

       1A    -20.547218     2A    -20.515552     3A    -15.609081
       4A    -15.571938     5A    -11.386400     6A    -11.357784
       7A    -11.280682     8A    -11.275472     9A    -11.265490
      10A    -11.262243    11A    -11.257366    12A    -11.255807
      13A     -1.401582    14A     -1.369702    15A     -1.236984
      16A     -1.203617    17A     -1.174128    18A     -1.056271
      19A     -1.044984    20A     -0.908812    21A     -0.869297
      22A     -0.822488    23A     -0.787017    24A     -0.764026
      25A     -0.723822    26A     -0.703293    27A     -0.686236
      28A     -0.659786    29A     -0.650241    30A     -0.630970
      31A     -0.612287    32A     -0.592298    33A     -0.581098
      34A     -0.566212    35A     -0.538125    36A     -0.524550
      37A     -0.516908    38A     -0.455715    39A     -0.441064
      40A     -0.429087    41A     -0.402663    42A     -0.364401
      43A     -0.354317

  @DF-RHF Final Energy:  -566.47129018146973

   => Energetics <=

    Nuclear Repulsion Energy =            669.4777231647700546
    One-Electron Energy =               -2100.5840023595142156
    Two-Electron Energy =                 864.6349890132745486
    Total Energy =                       -566.4712901814697261
  Basis Set: (AUG-CC-PVTZ AUX)
    Blend: AUG-CC-PVTZ-RI
    Molecular point group: c1

    Geometry (in Angstrom), charge = 0, multiplicity = 1:

       Center              X                  Y                   Z               Mass
    ------------   -----------------  -----------------  -----------------  -----------------
         O           -0.425696067412     2.739219802578     0.839594612742    15.994914619570
         O           -2.120059067412    -1.143847197422    -0.833075387258    15.994914619570
         N           -1.808300067412     1.624801802578    -0.592439387258    14.003074004430
         N           -1.350017067412    -2.316887197422     0.954182612742    14.003074004430
         C            0.366176932588     0.664781802578    -0.022514387258    12.000000000000
         C            0.140444932588    -0.727807197422    -0.054735387258    12.000000000000
         C            1.707702932588     1.137231902578    -0.039470787258    12.000000000000
         C            1.235875932588    -1.604260197422    -0.141237387258    12.000000000000
         C            2.766784932588     0.255983802578    -0.148991387258    12.000000000000
         C            2.540557932588    -1.120110197422    -0.203716387258    12.000000000000
         C           -0.672232067412     1.753107802578     0.136897612742    12.000000000000
         C           -1.216523067412    -1.370250197422    -0.018112387258    12.000000000000
         H            1.848176932588     2.201892802578     0.040974612742     1.007825032230
         H            1.052087932588    -2.675637197422    -0.175726387258     1.007825032230
         H            3.780644932588     0.647206802578    -0.182225387258     1.007825032230
         H            3.373173932588    -1.813851197422    -0.290781387258     1.007825032230
         H           -2.053779067412     0.743262802578    -1.034559387258     1.007825032230
         H           -2.526372067412     2.319987802578    -0.431373387258     1.007825032230
         H           -0.710128067412    -2.344731197422     1.735410612742     1.007825032230
         H           -2.263546067412    -2.740131197422     1.065365612742     1.007825032230

  Basis Set: AUG-CC-PVTZ
    Blend: AUG-CC-PVTZ
  Basis Set: (AUG-CC-PVTZ AUX)
    Blend: AUG-CC-PVTZ-JKFIT
	 Reference Energy          =    -566.4712901814697261 [Eh]
	 Singles Energy            =      -0.0000000000000000 [Eh]
	 Same-Spin Energy          =      -0.5967866261312265 [Eh]
	 Opposite-Spin Energy      =      -1.7897331698461987 [Eh]
	 Correlation Energy        =      -2.3865197959774251 [Eh]
	 Total Energy              =    -568.8578099774471184 [Eh]

	 ================> DF-SCS-MP2 Energies <==================
	-----------------------------------------------------------
	 SCS Same-Spin Scale       =       0.3333333333333333 [-]
	 SCS Opposite-Spin Scale   =       1.2000000000000000 [-]
	 SCS Same-Spin Energy      =      -0.1989288753770755 [Eh]
	 SCS Opposite-Spin Energy  =      -2.1476798038154383 [Eh]
	 SCS Correlation Energy    =      -2.3466086791925136 [Eh]
	 SCS Total Energy          =    -568.8178988606622397 [Eh]
	-----------------------------------------------------------

  Dipole Moment: [D]
     X:     0.9214      Y:    -4.0299      Z:     1.0141     Total:     4.2565

*** Psi4 exiting successfully. Buy a developer a beer!
