                               Psi4 1.4a3.dev225

  ==> Input File <==

--------------------------------------------------------------------------
#psi4
#
memory 32 gb

molecule  {
0 1
  O       -0.4387840     2.7607480     0.8353900
  O       -2.1331470    -1.1223190    -0.8372800
  N       -1.8213880     1.6463300    -0.5966440
  N       -1.3631050    -2.2953590     0.9499780
  C        0.3530890     0.6863100    -0.0267190
  C        0.1273570    -0.7062790    -0.0589400
  C        1.6757520     1.1521170    -0.0434370
  C        1.2227880    -1.5827320    -0.1454420
  C        2.7536970     0.2775120    -0.1531960
  C        2.5274700    -1.0985820    -0.2079210
  C       -0.6952955     1.7347354     0.1042601
  C       -1.2296110    -1.3487220    -0.0223170
  H        1.8350890     2.2234210     0.0367700
  H        1.0390000    -2.6541090    -0.1799310
  H        3.7675570     0.6687350    -0.1864300
  H        3.3600860    -1.7923230    -0.2949860
  H       -2.0668670     0.7647910    -1.0387640
  H       -2.5394600     2.3415160    -0.4355780
  H       -0.7232160    -2.3232030     1.7312060
  H       -2.2766340    -2.7186030     1.0611610
units angstrom
no_reorient  #important for SAPT in psi4, default
symmetry c1  #important for SAPT in psi4, default
}

set PROPERTIES_ORIGIN ["COM"]
properties('MP2/aug-cc-pvtz', properties = ['dipole'])
--------------------------------------------------------------------------

    Molecular point group: c1
  Charge       = 0
  Multiplicity = 1
  Basis Set: AUG-CC-PVTZ
    Blend: AUG-CC-PVTZ
  Basis Set: (AUG-CC-PVTZ AUX)
    Blend: AUG-CC-PVTZ-JKFIT

    Orbital Energies [Eh]
    ---------------------

    Doubly Occupied:

       1A    -20.549212     2A    -20.504769     3A    -15.610425
       4A    -15.579160     5A    -11.388204     6A    -11.357364
       7A    -11.281928     8A    -11.274584     9A    -11.266448
      10A    -11.263546    11A    -11.259365    12A    -11.257258
      13A     -1.403586    14A     -1.341789    15A     -1.238471
      16A     -1.208244    17A     -1.177328    18A     -1.057954
      19A     -1.048407    20A     -0.911548    21A     -0.873550
      22A     -0.823923    23A     -0.792071    24A     -0.766256
      25A     -0.727383    26A     -0.705056    27A     -0.691843
      28A     -0.659817    29A     -0.652435    30A     -0.629182
      31A     -0.611372    32A     -0.588529    33A     -0.575013
      34A     -0.560996    35A     -0.538863    36A     -0.520815
      37A     -0.517476    38A     -0.457703    39A     -0.441861
      40A     -0.423457    41A     -0.396901    42A     -0.363969
      43A     -0.356287

  @DF-RHF Final Energy:  -566.46451867519090

   => Energetics <=

    Nuclear Repulsion Energy =            669.9946930464523120
    One-Electron Energy =               -2101.6097298455038072
    Two-Electron Energy =                 865.1505181238605928
    Total Energy =                       -566.4645186751909023
  Basis Set: (AUG-CC-PVTZ AUX)
    Blend: AUG-CC-PVTZ-RI
    Molecular point group: c1

    Geometry (in Angstrom), charge = 0, multiplicity = 1:

       Center              X                  Y                   Z               Mass
    ------------   -----------------  -----------------  -----------------  -----------------
         O           -0.423586686694     2.742624223172     0.841656888334    15.994914619570
         O           -2.117949686694    -1.140442776828    -0.831013111666    15.994914619570
         N           -1.806190686694     1.628206223172    -0.590377111666    14.003074004430
         N           -1.347907686694    -2.313482776828     0.956244888334    14.003074004430
         C            0.368286313306     0.668186223172    -0.020452111666    12.000000000000
         C            0.142554313306    -0.724402776828    -0.052673111666    12.000000000000
         C            1.690949313306     1.133993223172    -0.037170111666    12.000000000000
         C            1.237985313306    -1.600855776828    -0.139175111666    12.000000000000
         C            2.768894313306     0.259388223172    -0.146929111666    12.000000000000
         C            2.542667313306    -1.116705776828    -0.201654111666    12.000000000000
         C           -0.680098186694     1.716611623172     0.110526988334    12.000000000000
         C           -1.214413686694    -1.366845776828    -0.016050111666    12.000000000000
         H            1.850286313306     2.205297223172     0.043036888334     1.007825032230
         H            1.054197313306    -2.672232776828    -0.173664111666     1.007825032230
         H            3.782754313306     0.650611223172    -0.180163111666     1.007825032230
         H            3.375283313306    -1.810446776828    -0.288719111666     1.007825032230
         H           -2.051669686694     0.746667223172    -1.032497111666     1.007825032230
         H           -2.524262686694     2.323392223172    -0.429311111666     1.007825032230
         H           -0.708018686694    -2.341326776828     1.737472888334     1.007825032230
         H           -2.261436686694    -2.736726776828     1.067427888334     1.007825032230

  Basis Set: AUG-CC-PVTZ
    Blend: AUG-CC-PVTZ
  Basis Set: (AUG-CC-PVTZ AUX)
    Blend: AUG-CC-PVTZ-JKFIT
	 Reference Energy          =    -566.4645186751909023 [Eh]
	 Singles Energy            =      -0.0000000000000000 [Eh]
	 Same-Spin Energy          =      -0.5978760127361946 [Eh]
	 Opposite-Spin Energy      =      -1.7917675510284454 [Eh]
	 Correlation Energy        =      -2.3896435637646398 [Eh]
	 Total Energy              =    -568.8541622389554959 [Eh]

	 ================> DF-SCS-MP2 Energies <==================
	-----------------------------------------------------------
	 SCS Same-Spin Scale       =       0.3333333333333333 [-]
	 SCS Opposite-Spin Scale   =       1.2000000000000000 [-]
	 SCS Same-Spin Energy      =      -0.1992920042453982 [Eh]
	 SCS Opposite-Spin Energy  =      -2.1501210612341346 [Eh]
	 SCS Correlation Energy    =      -2.3494130654795327 [Eh]
	 SCS Total Energy          =    -568.8139317406704549 [Eh]
	-----------------------------------------------------------

  Dipole Moment: [D]
     X:     0.8239      Y:    -4.2799      Z:     0.7908     Total:     4.4296

*** Psi4 exiting successfully. Buy a developer a beer!
