                               Psi4 1.4a3.dev225

  ==> Input File <==

--------------------------------------------------------------------------
#psi4
#
memory 32 gb

molecule  {
0 1
  O       -0.4387840     2.7607480     0.8353900
  O       -2.1331470    -1.1223190    -0.8372800
  N       -1.8213880     1.6463300    -0.5966440
  N       -1.3631050    -2.2953590     0.9499780
  C        0.3530890     0.6863100    -0.0267190
  C        0.1273570    -0.7062790    -0.0589400
  C        1.6757520     1.1521170    -0.0434370
  C        1.2227880    -1.5827320    -0.1454420
  C        2.7536970     0.2775120    -0.1531960
  C        2.5274700    -1.0985820    -0.2079210
  C       -0.6853200     1.7746360     0.1326930
  C       -1.2296110    -1.3487220    -0.0223170
  H        1.8321548     2.2036926     0.0352930
  H        1.0390000    -2.6541090    -0.1799310
  H        3.7675570     0.6687350    -0.1864300
  H        3.3600860    -1.7923230    -0.2949860
  H       -2.0668670     0.7647910    -1.0387640
  H       -2.5394600     2.3415160    -0.4355780
  H       -0.7232160    -2.3232030     1.7312060
  H       -2.2766340    -2.7186030     1.0611610
units angstrom
no_reorient  #important for SAPT in psi4, default
symmetry c1  #important for SAPT in psi4, default
}

set PROPERTIES_ORIGIN ["COM"]
properties('MP2/aug-cc-pvtz', properties = ['dipole'])
--------------------------------------------------------------------------

    Molecular point group: c1
  Charge       = 0
  Multiplicity = 1
  Basis Set: AUG-CC-PVTZ
    Blend: AUG-CC-PVTZ
  Basis Set: (AUG-CC-PVTZ AUX)
    Blend: AUG-CC-PVTZ-JKFIT

    Orbital Energies [Eh]
    ---------------------

    Doubly Occupied:

       1A    -20.547070     2A    -20.515372     3A    -15.608967
       4A    -15.571842     5A    -11.386250     6A    -11.357566
       7A    -11.280484     8A    -11.273173     9A    -11.265579
      10A    -11.262004    11A    -11.258318    12A    -11.253610
      13A     -1.401462    14A     -1.369604    15A     -1.236869
      16A     -1.203613    17A     -1.175047    18A     -1.055363
      19A     -1.047312    20A     -0.908390    21A     -0.869739
      22A     -0.823190    23A     -0.787469    24A     -0.764269
      25A     -0.724092    26A     -0.703384    27A     -0.686517
      28A     -0.659602    29A     -0.649827    30A     -0.632255
      31A     -0.612292    32A     -0.592826    33A     -0.581002
      34A     -0.566580    35A     -0.538878    36A     -0.524611
      37A     -0.517272    38A     -0.455842    39A     -0.440963
      40A     -0.429056    41A     -0.402543    42A     -0.362855
      43A     -0.356316

  @DF-RHF Final Energy:  -566.47201417430915

   => Energetics <=

    Nuclear Repulsion Energy =            669.9063539231141249
    One-Electron Energy =               -2101.4381897950524944
    Two-Electron Energy =                 865.0598216976291042
    Total Energy =                       -566.4720141743091517
  Basis Set: (AUG-CC-PVTZ AUX)
    Blend: AUG-CC-PVTZ-RI
    Molecular point group: c1

    Geometry (in Angstrom), charge = 0, multiplicity = 1:

       Center              X                  Y                   Z               Mass
    ------------   -----------------  -----------------  -----------------  -----------------
         O           -0.424298315684     2.739826902657     0.839586248398    15.994914619570
         O           -2.118661315684    -1.143240097343    -0.833083751602    15.994914619570
         N           -1.806902315684     1.625408902657    -0.592447751602    14.003074004430
         N           -1.348619315684    -2.316280097343     0.954174248398    14.003074004430
         C            0.367574684316     0.665388902657    -0.022522751602    12.000000000000
         C            0.141842684316    -0.727200097343    -0.054743751602    12.000000000000
         C            1.690237684316     1.131195902657    -0.039240751602    12.000000000000
         C            1.237273684316    -1.603653097343    -0.141245751602    12.000000000000
         C            2.768182684316     0.256590902657    -0.148999751602    12.000000000000
         C            2.541955684316    -1.119503097343    -0.203724751602    12.000000000000
         C           -0.670834315684     1.753714902657     0.136889248398    12.000000000000
         C           -1.215125315684    -1.369643097343    -0.018120751602    12.000000000000
         H            1.846640484316     2.182771502657     0.039489248398     1.007825032230
         H            1.053485684316    -2.675030097343    -0.175734751602     1.007825032230
         H            3.782042684316     0.647813902657    -0.182233751602     1.007825032230
         H            3.374571684316    -1.813244097343    -0.290789751602     1.007825032230
         H           -2.052381315684     0.743869902657    -1.034567751602     1.007825032230
         H           -2.524974315684     2.320594902657    -0.431381751602     1.007825032230
         H           -0.708730315684    -2.344124097343     1.735402248398     1.007825032230
         H           -2.262148315684    -2.739524097343     1.065357248398     1.007825032230

  Basis Set: AUG-CC-PVTZ
    Blend: AUG-CC-PVTZ
  Basis Set: (AUG-CC-PVTZ AUX)
    Blend: AUG-CC-PVTZ-JKFIT
	 Reference Energy          =    -566.4720141743091517 [Eh]
	 Singles Energy            =      -0.0000000000000000 [Eh]
	 Same-Spin Energy          =      -0.5967471498039122 [Eh]
	 Opposite-Spin Energy      =      -1.7895449469367422 [Eh]
	 Correlation Energy        =      -2.3862920967406542 [Eh]
	 Total Energy              =    -568.8583062710498552 [Eh]

	 ================> DF-SCS-MP2 Energies <==================
	-----------------------------------------------------------
	 SCS Same-Spin Scale       =       0.3333333333333333 [-]
	 SCS Opposite-Spin Scale   =       1.2000000000000000 [-]
	 SCS Same-Spin Energy      =      -0.1989157166013041 [Eh]
	 SCS Opposite-Spin Energy  =      -2.1474539363240903 [Eh]
	 SCS Correlation Energy    =      -2.3463696529253943 [Eh]
	 SCS Total Energy          =    -568.8183838272345838 [Eh]
	-----------------------------------------------------------

  Dipole Moment: [D]
     X:     0.9316      Y:    -4.0328      Z:     1.0126     Total:     4.2610

*** Psi4 exiting successfully. Buy a developer a beer!
