                               Psi4 1.4a3.dev225

  ==> Input File <==

--------------------------------------------------------------------------
#psi4
#
memory 32 gb

molecule  {
0 1
  O       -0.4387840     2.7607480     0.8353900
  O       -2.1331470    -1.1223190    -0.8372800
  N       -1.8213880     1.6463300    -0.5966440
  N       -1.3631050    -2.2953590     0.9499780
  C        0.3530890     0.6863100    -0.0267190
  C        0.1273570    -0.7062790    -0.0589400
  C        1.7070556     1.1892951    -0.0430157
  C        1.2227880    -1.5827320    -0.1454420
  C        2.7536970     0.2775120    -0.1531960
  C        2.5274700    -1.0985820    -0.2079210
  C       -0.6853200     1.7746360     0.1326930
  C       -1.2296110    -1.3487220    -0.0223170
  H        1.8350890     2.2234210     0.0367700
  H        1.0390000    -2.6541090    -0.1799310
  H        3.7675570     0.6687350    -0.1864300
  H        3.3600860    -1.7923230    -0.2949860
  H       -2.0668670     0.7647910    -1.0387640
  H       -2.5394600     2.3415160    -0.4355780
  H       -0.7232160    -2.3232030     1.7312060
  H       -2.2766340    -2.7186030     1.0611610
units angstrom
no_reorient  #important for SAPT in psi4, default
symmetry c1  #important for SAPT in psi4, default
}

set PROPERTIES_ORIGIN ["COM"]
properties('MP2/aug-cc-pvtz', properties = ['dipole'])
--------------------------------------------------------------------------

    Molecular point group: c1
  Charge       = 0
  Multiplicity = 1
  Basis Set: AUG-CC-PVTZ
    Blend: AUG-CC-PVTZ
  Basis Set: (AUG-CC-PVTZ AUX)
    Blend: AUG-CC-PVTZ-JKFIT

    Orbital Energies [Eh]
    ---------------------

    Doubly Occupied:

       1A    -20.547279     2A    -20.515400     3A    -15.609177
       4A    -15.571684     5A    -11.386636     6A    -11.357408
       7A    -11.280780     8A    -11.277855     9A    -11.266052
      10A    -11.262433    11A    -11.258810    12A    -11.257361
      13A     -1.401645    14A     -1.369609    15A     -1.237051
      16A     -1.203271    17A     -1.171585    18A     -1.055489
      19A     -1.043646    20A     -0.907995    21A     -0.870264
      22A     -0.823984    23A     -0.785573    24A     -0.764525
      25A     -0.723053    26A     -0.704880    27A     -0.685011
      28A     -0.660178    29A     -0.652620    30A     -0.630326
      31A     -0.615093    32A     -0.591492    33A     -0.581016
      34A     -0.565896    35A     -0.535864    36A     -0.528258
      37A     -0.515147    38A     -0.455504    39A     -0.441159
      40A     -0.428748    41A     -0.402626    42A     -0.364333
      43A     -0.352237

  @DF-RHF Final Energy:  -566.46844200952899

   => Energetics <=

    Nuclear Repulsion Energy =            668.8809506467330266
    One-Electron Energy =               -2099.3808769069937625
    Two-Electron Energy =                 864.0314842507317508
    Total Energy =                       -566.4684420095289852
  Basis Set: (AUG-CC-PVTZ AUX)
    Blend: AUG-CC-PVTZ-RI
    Molecular point group: c1

    Geometry (in Angstrom), charge = 0, multiplicity = 1:

       Center              X                  Y                   Z               Mass
    ------------   -----------------  -----------------  -----------------  -----------------
         O           -0.426606030196     2.736986332036     0.839546359245    15.994914619570
         O           -2.120969030196    -1.146080667964    -0.833123640755    15.994914619570
         N           -1.809210030196     1.622568332036    -0.592487640755    14.003074004430
         N           -1.350927030196    -2.319120667964     0.954134359245    14.003074004430
         C            0.365266969804     0.662548332036    -0.022562640755    12.000000000000
         C            0.139534969804    -0.730040667964    -0.054783640755    12.000000000000
         C            1.719233569804     1.165533432036    -0.038859340755    12.000000000000
         C            1.234965969804    -1.606493667964    -0.141285640755    12.000000000000
         C            2.765874969804     0.253750332036    -0.149039640755    12.000000000000
         C            2.539647969804    -1.122343667964    -0.203764640755    12.000000000000
         C           -0.673142030196     1.750874332036     0.136849359245    12.000000000000
         C           -1.217433030196    -1.372483667964    -0.018160640755    12.000000000000
         H            1.847266969804     2.199659332036     0.040926359245     1.007825032230
         H            1.051177969804    -2.677870667964    -0.175774640755     1.007825032230
         H            3.779734969804     0.644973332036    -0.182273640755     1.007825032230
         H            3.372263969804    -1.816084667964    -0.290829640755     1.007825032230
         H           -2.054689030196     0.741029332036    -1.034607640755     1.007825032230
         H           -2.527282030196     2.317754332036    -0.431421640755     1.007825032230
         H           -0.711038030196    -2.346964667964     1.735362359245     1.007825032230
         H           -2.264456030196    -2.742364667964     1.065317359245     1.007825032230

  Basis Set: AUG-CC-PVTZ
    Blend: AUG-CC-PVTZ
  Basis Set: (AUG-CC-PVTZ AUX)
    Blend: AUG-CC-PVTZ-JKFIT
	 Reference Energy          =    -566.4684420095289852 [Eh]
	 Singles Energy            =      -0.0000000000000000 [Eh]
	 Same-Spin Energy          =      -0.5967667479070407 [Eh]
	 Opposite-Spin Energy      =      -1.7899588361881280 [Eh]
	 Correlation Energy        =      -2.3867255840951689 [Eh]
	 Total Energy              =    -568.8551675936241736 [Eh]

	 ================> DF-SCS-MP2 Energies <==================
	-----------------------------------------------------------
	 SCS Same-Spin Scale       =       0.3333333333333333 [-]
	 SCS Opposite-Spin Scale   =       1.2000000000000000 [-]
	 SCS Same-Spin Energy      =      -0.1989222493023469 [Eh]
	 SCS Opposite-Spin Energy  =      -2.1479506034257536 [Eh]
	 SCS Correlation Energy    =      -2.3468728527281004 [Eh]
	 SCS Total Energy          =    -568.8153148622570825 [Eh]
	-----------------------------------------------------------

  Dipole Moment: [D]
     X:     0.9210      Y:    -4.0327      Z:     1.0148     Total:     4.2592

*** Psi4 exiting successfully. Buy a developer a beer!
