                               Psi4 1.4a3.dev225

  ==> Input File <==

--------------------------------------------------------------------------
#psi4
#
memory 32 gb

molecule  {
0 1
  O       -0.4387840     2.7607480     0.8353900
  O       -2.1331470    -1.1223190    -0.8372800
  N       -1.8213880     1.6463300    -0.5966440
  N       -1.3631050    -2.2953590     0.9499780
  C        0.3119853     0.8266222    -0.0136631
  C        0.1273570    -0.7062790    -0.0589400
  C        1.6757520     1.1521170    -0.0434370
  C        1.2227880    -1.5827320    -0.1454420
  C        2.7536970     0.2775120    -0.1531960
  C        2.5274700    -1.0985820    -0.2079210
  C       -0.6853200     1.7746360     0.1326930
  C       -1.2296110    -1.3487220    -0.0223170
  H        1.8350890     2.2234210     0.0367700
  H        1.0390000    -2.6541090    -0.1799310
  H        3.7675570     0.6687350    -0.1864300
  H        3.3600860    -1.7923230    -0.2949860
  H       -2.0668670     0.7647910    -1.0387640
  H       -2.5394600     2.3415160    -0.4355780
  H       -0.7232160    -2.3232030     1.7312060
  H       -2.2766340    -2.7186030     1.0611610
units angstrom
no_reorient  #important for SAPT in psi4, default
symmetry c1  #important for SAPT in psi4, default
}

set PROPERTIES_ORIGIN ["COM"]
properties('MP2/aug-cc-pvtz', properties = ['dipole'])
--------------------------------------------------------------------------

    Molecular point group: c1
  Charge       = 0
  Multiplicity = 1
  Basis Set: AUG-CC-PVTZ
    Blend: AUG-CC-PVTZ
  Basis Set: (AUG-CC-PVTZ AUX)
    Blend: AUG-CC-PVTZ-JKFIT

    Orbital Energies [Eh]
    ---------------------

    Doubly Occupied:

       1A    -20.545765     2A    -20.511674     3A    -15.607817
       4A    -15.570932     5A    -11.384429     6A    -11.347499
       7A    -11.293948     8A    -11.277134     9A    -11.268546
      10A    -11.266849    11A    -11.261599    12A    -11.260261
      13A     -1.400096    14A     -1.373279    15A     -1.235420
      16A     -1.204092    17A     -1.167210    18A     -1.057659
      19A     -1.047999    20A     -0.925127    21A     -0.877052
      22A     -0.809020    23A     -0.790263    24A     -0.760921
      25A     -0.728445    26A     -0.702584    27A     -0.692586
      28A     -0.658257    29A     -0.648523    30A     -0.631216
      31A     -0.610047    32A     -0.597827    33A     -0.577363
      34A     -0.569987    35A     -0.548634    36A     -0.511404
      37A     -0.505280    38A     -0.455557    39A     -0.439240
      40A     -0.432813    41A     -0.401439    42A     -0.363211
      43A     -0.349482

  @DF-RHF Final Energy:  -566.44289371962816

   => Energetics <=

    Nuclear Repulsion Energy =            669.3118430154670477
    One-Electron Energy =               -2100.1724958908425833
    Two-Electron Energy =                 864.4177591557473761
    Total Energy =                       -566.4428937196281595
  Basis Set: (AUG-CC-PVTZ AUX)
    Blend: AUG-CC-PVTZ-RI
    Molecular point group: c1

    Geometry (in Angstrom), charge = 0, multiplicity = 1:

       Center              X                  Y                   Z               Mass
    ------------   -----------------  -----------------  -----------------  -----------------
         O           -0.421309826772     2.729442628934     0.838622206407    15.994914619570
         O           -2.115672826772    -1.153624371066    -0.834047793593    15.994914619570
         N           -1.803913826772     1.615024628934    -0.593411793593    14.003074004430
         N           -1.345630826772    -2.326664371066     0.953210206407    14.003074004430
         C            0.329459473228     0.795316828934    -0.010430893593    12.000000000000
         C            0.144831173228    -0.737584371066    -0.055707793593    12.000000000000
         C            1.693226173228     1.120811628934    -0.040204793593    12.000000000000
         C            1.240262173228    -1.614037371066    -0.142209793593    12.000000000000
         C            2.771171173228     0.246206628934    -0.149963793593    12.000000000000
         C            2.544944173228    -1.129887371066    -0.204688793593    12.000000000000
         C           -0.667845826772     1.743330628934     0.135925206407    12.000000000000
         C           -1.212136826772    -1.380027371066    -0.019084793593    12.000000000000
         H            1.852563173228     2.192115628934     0.040002206407     1.007825032230
         H            1.056474173228    -2.685414371066    -0.176698793593     1.007825032230
         H            3.785031173228     0.637429628934    -0.183197793593     1.007825032230
         H            3.377560173228    -1.823628371066    -0.291753793593     1.007825032230
         H           -2.049392826772     0.733485628934    -1.035531793593     1.007825032230
         H           -2.521985826772     2.310210628934    -0.432345793593     1.007825032230
         H           -0.705741826772    -2.354508371066     1.734438206407     1.007825032230
         H           -2.259159826772    -2.749908371066     1.064393206407     1.007825032230

  Basis Set: AUG-CC-PVTZ
    Blend: AUG-CC-PVTZ
  Basis Set: (AUG-CC-PVTZ AUX)
    Blend: AUG-CC-PVTZ-JKFIT
	 Reference Energy          =    -566.4428937196281595 [Eh]
	 Singles Energy            =      -0.0000000000000000 [Eh]
	 Same-Spin Energy          =      -0.5985901062049982 [Eh]
	 Opposite-Spin Energy      =      -1.7933829537610755 [Eh]
	 Correlation Energy        =      -2.3919730599660736 [Eh]
	 Total Energy              =    -568.8348667795942220 [Eh]

	 ================> DF-SCS-MP2 Energies <==================
	-----------------------------------------------------------
	 SCS Same-Spin Scale       =       0.3333333333333333 [-]
	 SCS Opposite-Spin Scale   =       1.2000000000000000 [-]
	 SCS Same-Spin Energy      =      -0.1995300354016661 [Eh]
	 SCS Opposite-Spin Energy  =      -2.1520595445132904 [Eh]
	 SCS Correlation Energy    =      -2.3515895799149567 [Eh]
	 SCS Total Energy          =    -568.7944832995431170 [Eh]
	-----------------------------------------------------------

  Dipole Moment: [D]
     X:     1.0751      Y:    -4.0951      Z:     0.9886     Total:     4.3477

*** Psi4 exiting successfully. Buy a developer a beer!
