                               Psi4 1.4a3.dev225

  ==> Input File <==

--------------------------------------------------------------------------
#psi4
#
memory 32 gb

molecule  {
0 1
  O       -0.3276288     2.7023498     0.8664396
  O       -2.1331470    -1.1223190    -0.8372800
  N       -1.8213880     1.6463300    -0.5966440
  N       -1.3631050    -2.2953590     0.9499780
  C        0.3530890     0.6863100    -0.0267190
  C        0.1273570    -0.7062790    -0.0589400
  C        1.6757520     1.1521170    -0.0434370
  C        1.2227880    -1.5827320    -0.1454420
  C        2.7536970     0.2775120    -0.1531960
  C        2.5274700    -1.0985820    -0.2079210
  C       -0.6853200     1.7746360     0.1326930
  C       -1.2296110    -1.3487220    -0.0223170
  H        1.8350890     2.2234210     0.0367700
  H        1.0390000    -2.6541090    -0.1799310
  H        3.7675570     0.6687350    -0.1864300
  H        3.3600860    -1.7923230    -0.2949860
  H       -2.0668670     0.7647910    -1.0387640
  H       -2.5394600     2.3415160    -0.4355780
  H       -0.7232160    -2.3232030     1.7312060
  H       -2.2766340    -2.7186030     1.0611610
units angstrom
no_reorient  #important for SAPT in psi4, default
symmetry c1  #important for SAPT in psi4, default
}

set PROPERTIES_ORIGIN ["COM"]
properties('MP2/aug-cc-pvtz', properties = ['dipole'])
--------------------------------------------------------------------------

    Molecular point group: c1
  Charge       = 0
  Multiplicity = 1
  Basis Set: AUG-CC-PVTZ
    Blend: AUG-CC-PVTZ
  Basis Set: (AUG-CC-PVTZ AUX)
    Blend: AUG-CC-PVTZ-JKFIT

    Orbital Energies [Eh]
    ---------------------

    Doubly Occupied:

       1A    -20.546534     2A    -20.518186     3A    -15.608065
       4A    -15.579330     5A    -11.385201     6A    -11.359779
       7A    -11.276433     8A    -11.268517     9A    -11.262454
      10A    -11.258506    11A    -11.255179    12A    -11.251347
      13A     -1.400951    14A     -1.371578    15A     -1.235938
      16A     -1.211580    17A     -1.172004    18A     -1.052188
      19A     -1.042530    20A     -0.905511    21A     -0.867165
      22A     -0.820199    23A     -0.788089    24A     -0.764326
      25A     -0.725332    26A     -0.701830    27A     -0.687645
      28A     -0.657850    29A     -0.649173    30A     -0.631297
      31A     -0.609125    32A     -0.592439    33A     -0.580470
      34A     -0.567620    35A     -0.536604    36A     -0.519583
      37A     -0.514670    38A     -0.455278    39A     -0.440609
      40A     -0.429411    41A     -0.408858    42A     -0.359811
      43A     -0.351168

  @DF-RHF Final Energy:  -566.46827467517335

   => Energetics <=

    Nuclear Repulsion Energy =            670.7868507380650271
    One-Electron Energy =               -2103.2695307079352460
    Two-Electron Energy =                 866.0144052946969850
    Total Energy =                       -566.4682746751733475
  Basis Set: (AUG-CC-PVTZ AUX)
    Blend: AUG-CC-PVTZ-RI
    Molecular point group: c1

    Geometry (in Angstrom), charge = 0, multiplicity = 1:

       Center              X                  Y                   Z               Mass
    ------------   -----------------  -----------------  -----------------  -----------------
         O           -0.323998232928     2.687001050421     0.867599589848    15.994914619570
         O           -2.129516432928    -1.137667749579    -0.836120010152    15.994914619570
         N           -1.817757432928     1.630981250421    -0.595484010152    14.003074004430
         N           -1.359474432928    -2.310707749579     0.951137989848    14.003074004430
         C            0.356719567072     0.670961250421    -0.025559010152    12.000000000000
         C            0.130987567072    -0.721627749579    -0.057780010152    12.000000000000
         C            1.679382567072     1.136768250421    -0.042277010152    12.000000000000
         C            1.226418567072    -1.598080749579    -0.144282010152    12.000000000000
         C            2.757327567072     0.262163250421    -0.152036010152    12.000000000000
         C            2.531100567072    -1.113930749579    -0.206761010152    12.000000000000
         C           -0.681689432928     1.759287250421     0.133852989848    12.000000000000
         C           -1.225980432928    -1.364070749579    -0.021157010152    12.000000000000
         H            1.838719567072     2.208072250421     0.037929989848     1.007825032230
         H            1.042630567072    -2.669457749579    -0.178771010152     1.007825032230
         H            3.771187567072     0.653386250421    -0.185270010152     1.007825032230
         H            3.363716567072    -1.807671749579    -0.293826010152     1.007825032230
         H           -2.063236432928     0.749442250421    -1.037604010152     1.007825032230
         H           -2.535829432928     2.326167250421    -0.434418010152     1.007825032230
         H           -0.719585432928    -2.338551749579     1.732365989848     1.007825032230
         H           -2.273003432928    -2.733951749579     1.062320989848     1.007825032230

  Basis Set: AUG-CC-PVTZ
    Blend: AUG-CC-PVTZ
  Basis Set: (AUG-CC-PVTZ AUX)
    Blend: AUG-CC-PVTZ-JKFIT
	 Reference Energy          =    -566.4682746751733475 [Eh]
	 Singles Energy            =      -0.0000000000000000 [Eh]
	 Same-Spin Energy          =      -0.5971217857302440 [Eh]
	 Opposite-Spin Energy      =      -1.7900583555061691 [Eh]
	 Correlation Energy        =      -2.3871801412364131 [Eh]
	 Total Energy              =    -568.8554548164097469 [Eh]

	 ================> DF-SCS-MP2 Energies <==================
	-----------------------------------------------------------
	 SCS Same-Spin Scale       =       0.3333333333333333 [-]
	 SCS Opposite-Spin Scale   =       1.2000000000000000 [-]
	 SCS Same-Spin Energy      =      -0.1990405952434147 [Eh]
	 SCS Opposite-Spin Energy  =      -2.1480700266074026 [Eh]
	 SCS Correlation Energy    =      -2.3471106218508173 [Eh]
	 SCS Total Energy          =    -568.8153852970241360 [Eh]
	-----------------------------------------------------------

  Dipole Moment: [D]
     X:     0.5697      Y:    -3.7401      Z:     0.9802     Total:     3.9081

*** Psi4 exiting successfully. Buy a developer a beer!
