                               Psi4 1.4a3.dev225

  ==> Input File <==

--------------------------------------------------------------------------
#psi4
#
memory 32 gb

molecule  {
0 1
  O       -0.4387840     2.7607480     0.8353900
  O       -2.1331470    -1.1223190    -0.8372800
  N       -1.8213880     1.6463300    -0.5966440
  N       -1.3631050    -2.2953590     0.9499780
  C        0.3530890     0.6863100    -0.0267190
  C        0.1273570    -0.7062790    -0.0589400
  C        1.7070273     1.1893212    -0.0435015
  C        1.2227880    -1.5827320    -0.1454420
  C        2.7536970     0.2775120    -0.1531960
  C        2.5274700    -1.0985820    -0.2079210
  C       -0.6853200     1.7746360     0.1326930
  C       -1.2296110    -1.3487220    -0.0223170
  H        1.8350890     2.2234210     0.0367700
  H        1.0390000    -2.6541090    -0.1799310
  H        3.7675570     0.6687350    -0.1864300
  H        3.3600860    -1.7923230    -0.2949860
  H       -2.0668670     0.7647910    -1.0387640
  H       -2.5394600     2.3415160    -0.4355780
  H       -0.7232160    -2.3232030     1.7312060
  H       -2.2766340    -2.7186030     1.0611610
units angstrom
no_reorient  #important for SAPT in psi4, default
symmetry c1  #important for SAPT in psi4, default
}

set PROPERTIES_ORIGIN ["COM"]
properties('MP2/aug-cc-pvtz', properties = ['dipole'])
--------------------------------------------------------------------------

    Molecular point group: c1
  Charge       = 0
  Multiplicity = 1
  Basis Set: AUG-CC-PVTZ
    Blend: AUG-CC-PVTZ
  Basis Set: (AUG-CC-PVTZ AUX)
    Blend: AUG-CC-PVTZ-JKFIT

    Orbital Energies [Eh]
    ---------------------

    Doubly Occupied:

       1A    -20.547280     2A    -20.515402     3A    -15.609177
       4A    -15.571685     5A    -11.386636     6A    -11.357409
       7A    -11.280778     8A    -11.277855     9A    -11.266054
      10A    -11.262431    11A    -11.258811    12A    -11.257360
      13A     -1.401645    14A     -1.369610    15A     -1.237050
      16A     -1.203273    17A     -1.171585    18A     -1.055489
      19A     -1.043647    20A     -0.907995    21A     -0.870263
      22A     -0.823984    23A     -0.785573    24A     -0.764525
      25A     -0.723054    26A     -0.704879    27A     -0.685011
      28A     -0.660179    29A     -0.652620    30A     -0.630333
      31A     -0.615093    32A     -0.591492    33A     -0.581016
      34A     -0.565897    35A     -0.535863    36A     -0.528257
      37A     -0.515148    38A     -0.455504    39A     -0.441159
      40A     -0.428747    41A     -0.402627    42A     -0.364333
      43A     -0.352240

  @DF-RHF Final Energy:  -566.46844367490814

   => Energetics <=

    Nuclear Repulsion Energy =            668.8808320609191469
    One-Electron Energy =               -2099.3806149080955947
    Two-Electron Energy =                 864.0313391722683036
    Total Energy =                       -566.4684436749081442
  Basis Set: (AUG-CC-PVTZ AUX)
    Blend: AUG-CC-PVTZ-RI
    Molecular point group: c1

    Geometry (in Angstrom), charge = 0, multiplicity = 1:

       Center              X                  Y                   Z               Mass
    ------------   -----------------  -----------------  -----------------  -----------------
         O           -0.426603960204     2.736984422962     0.839581892895    15.994914619570
         O           -2.120966960204    -1.146082577038    -0.833088107105    15.994914619570
         N           -1.809207960204     1.622566422962    -0.592452107105    14.003074004430
         N           -1.350924960204    -2.319122577038     0.954169892895    14.003074004430
         C            0.365269039796     0.662546422962    -0.022527107105    12.000000000000
         C            0.139537039796    -0.730042577038    -0.054748107105    12.000000000000
         C            1.719207339796     1.165557622962    -0.039309607105    12.000000000000
         C            1.234968039796    -1.606495577038    -0.141250107105    12.000000000000
         C            2.765877039796     0.253748422962    -0.149004107105    12.000000000000
         C            2.539650039796    -1.122345577038    -0.203729107105    12.000000000000
         C           -0.673139960204     1.750872422962     0.136884892895    12.000000000000
         C           -1.217430960204    -1.372485577038    -0.018125107105    12.000000000000
         H            1.847269039796     2.199657422962     0.040961892895     1.007825032230
         H            1.051180039796    -2.677872577038    -0.175739107105     1.007825032230
         H            3.779737039796     0.644971422962    -0.182238107105     1.007825032230
         H            3.372266039796    -1.816086577038    -0.290794107105     1.007825032230
         H           -2.054686960204     0.741027422962    -1.034572107105     1.007825032230
         H           -2.527279960204     2.317752422962    -0.431386107105     1.007825032230
         H           -0.711035960204    -2.346966577038     1.735397892895     1.007825032230
         H           -2.264453960204    -2.742366577038     1.065352892895     1.007825032230

  Basis Set: AUG-CC-PVTZ
    Blend: AUG-CC-PVTZ
  Basis Set: (AUG-CC-PVTZ AUX)
    Blend: AUG-CC-PVTZ-JKFIT
	 Reference Energy          =    -566.4684436749081442 [Eh]
	 Singles Energy            =      -0.0000000000000000 [Eh]
	 Same-Spin Energy          =      -0.5967667571447102 [Eh]
	 Opposite-Spin Energy      =      -1.7899593948798302 [Eh]
	 Correlation Energy        =      -2.3867261520245404 [Eh]
	 Total Energy              =    -568.8551698269326380 [Eh]

	 ================> DF-SCS-MP2 Energies <==================
	-----------------------------------------------------------
	 SCS Same-Spin Scale       =       0.3333333333333333 [-]
	 SCS Opposite-Spin Scale   =       1.2000000000000000 [-]
	 SCS Same-Spin Energy      =      -0.1989222523815700 [Eh]
	 SCS Opposite-Spin Energy  =      -2.1479512738557962 [Eh]
	 SCS Correlation Energy    =      -2.3468735262373661 [Eh]
	 SCS Total Energy          =    -568.8153172011454899 [Eh]
	-----------------------------------------------------------

  Dipole Moment: [D]
     X:     0.9210      Y:    -4.0327      Z:     1.0150     Total:     4.2592

*** Psi4 exiting successfully. Buy a developer a beer!
