                               Psi4 1.4a3.dev225

  ==> Input File <==

--------------------------------------------------------------------------
#psi4
#
memory 32 gb

molecule  {
0 1
  O       -0.4387840     2.7607480     0.8353900
  O       -2.1331470    -1.1223190    -0.8372800
  N       -1.8213880     1.6463300    -0.5966440
  N       -1.3631050    -2.2953590     0.9499780
  C        0.3530890     0.6863100    -0.0267190
  C        0.1273570    -0.7062790    -0.0589400
  C        1.6757520     1.1521170    -0.0434370
  C        1.2227880    -1.5827320    -0.1454420
  C        2.7536970     0.2775120    -0.1531960
  C        2.5274700    -1.0985820    -0.2079210
  C       -0.6853200     1.7746360     0.1326930
  C       -1.2150103    -1.3523806    -0.0091476
  H        1.8350890     2.2234210     0.0367700
  H        1.0390000    -2.6541090    -0.1799310
  H        3.7675570     0.6687350    -0.1864300
  H        3.3600860    -1.7923230    -0.2949860
  H       -2.0668670     0.7647910    -1.0387640
  H       -2.5394600     2.3415160    -0.4355780
  H       -0.7232160    -2.3232030     1.7312060
  H       -2.2766340    -2.7186030     1.0611610
units angstrom
no_reorient  #important for SAPT in psi4, default
symmetry c1  #important for SAPT in psi4, default
}

set PROPERTIES_ORIGIN ["COM"]
properties('MP2/aug-cc-pvtz', properties = ['dipole'])
--------------------------------------------------------------------------

    Molecular point group: c1
  Charge       = 0
  Multiplicity = 1
  Basis Set: AUG-CC-PVTZ
    Blend: AUG-CC-PVTZ
  Basis Set: (AUG-CC-PVTZ AUX)
    Blend: AUG-CC-PVTZ-JKFIT

    Orbital Energies [Eh]
    ---------------------

    Doubly Occupied:

       1A    -20.543042     2A    -20.515071     3A    -15.612065
       4A    -15.570955     5A    -11.386562     6A    -11.357348
       7A    -11.280953     8A    -11.274179     9A    -11.266409
      10A    -11.262602    11A    -11.259182    12A    -11.256209
      13A     -1.389674    14A     -1.369209    15A     -1.239485
      16A     -1.202902    17A     -1.175964    18A     -1.056994
      19A     -1.047603    20A     -0.910674    21A     -0.869769
      22A     -0.824072    23A     -0.788214    24A     -0.764467
      25A     -0.724959    26A     -0.704386    27A     -0.686026
      28A     -0.659785    29A     -0.647443    30A     -0.629761
      31A     -0.609590    32A     -0.591325    33A     -0.579175
      34A     -0.565763    35A     -0.537968    36A     -0.523788
      37A     -0.517728    38A     -0.454180    39A     -0.439694
      40A     -0.428720    41A     -0.401595    42A     -0.363378
      43A     -0.356876

  @DF-RHF Final Energy:  -566.46958690676558

   => Energetics <=

    Nuclear Repulsion Energy =            669.7960370667470897
    One-Electron Energy =               -2101.2397604953312111
    Two-Electron Energy =                 864.9741365218186502
    Total Energy =                       -566.4695869067655849
  Basis Set: (AUG-CC-PVTZ AUX)
    Blend: AUG-CC-PVTZ-RI
    Molecular point group: c1

    Geometry (in Angstrom), charge = 0, multiplicity = 1:

       Center              X                  Y                   Z               Mass
    ------------   -----------------  -----------------  -----------------  -----------------
         O           -0.425384303158     2.739973316365     0.838613904495    15.994914619570
         O           -2.119747303158    -1.143093683635    -0.834056095505    15.994914619570
         N           -1.807988303158     1.625555316365    -0.593420095505    14.003074004430
         N           -1.349705303158    -2.316133683635     0.953201904495    14.003074004430
         C            0.366488696842     0.665535316365    -0.023495095505    12.000000000000
         C            0.140756696842    -0.727053683635    -0.055716095505    12.000000000000
         C            1.689151696842     1.131342316365    -0.040213095505    12.000000000000
         C            1.236187696842    -1.603506683635    -0.142218095505    12.000000000000
         C            2.767096696842     0.256737316365    -0.149972095505    12.000000000000
         C            2.540869696842    -1.119356683635    -0.204697095505    12.000000000000
         C           -0.671920303158     1.753861316365     0.135916904495    12.000000000000
         C           -1.201610603158    -1.373155283635    -0.005923695505    12.000000000000
         H            1.848488696842     2.202646316365     0.039993904495     1.007825032230
         H            1.052399696842    -2.674883683635    -0.176707095505     1.007825032230
         H            3.780956696842     0.647960316365    -0.183206095505     1.007825032230
         H            3.373485696842    -1.813097683635    -0.291762095505     1.007825032230
         H           -2.053467303158     0.744016316365    -1.035540095505     1.007825032230
         H           -2.526060303158     2.320741316365    -0.432354095505     1.007825032230
         H           -0.709816303158    -2.343977683635     1.734429904495     1.007825032230
         H           -2.263234303158    -2.739377683635     1.064384904495     1.007825032230

  Basis Set: AUG-CC-PVTZ
    Blend: AUG-CC-PVTZ
  Basis Set: (AUG-CC-PVTZ AUX)
    Blend: AUG-CC-PVTZ-JKFIT
	 Reference Energy          =    -566.4695869067655849 [Eh]
	 Singles Energy            =      -0.0000000000000000 [Eh]
	 Same-Spin Energy          =      -0.5972980185387241 [Eh]
	 Opposite-Spin Energy      =      -1.7905867491486747 [Eh]
	 Correlation Energy        =      -2.3878847676873987 [Eh]
	 Total Energy              =    -568.8574716744529951 [Eh]

	 ================> DF-SCS-MP2 Energies <==================
	-----------------------------------------------------------
	 SCS Same-Spin Scale       =       0.3333333333333333 [-]
	 SCS Opposite-Spin Scale   =       1.2000000000000000 [-]
	 SCS Same-Spin Energy      =      -0.1990993395129080 [Eh]
	 SCS Opposite-Spin Energy  =      -2.1487040989784094 [Eh]
	 SCS Correlation Energy    =      -2.3478034384913173 [Eh]
	 SCS Total Energy          =    -568.8173903452568538 [Eh]
	-----------------------------------------------------------

  Dipole Moment: [D]
     X:     1.0163      Y:    -4.0839      Z:     1.1168     Total:     4.3541

*** Psi4 exiting successfully. Buy a developer a beer!
