                               Psi4 1.4a3.dev225

  ==> Input File <==

--------------------------------------------------------------------------
#psi4
#
memory 32 gb

molecule  {
0 1
  O       -0.4387840     2.7607480     0.8353900
  O       -2.1331470    -1.1223190    -0.8372800
  N       -1.8213880     1.6463300    -0.5966440
  N       -1.3631050    -2.2953590     0.9499780
  C        0.3530890     0.6863100    -0.0267190
  C        0.1273570    -0.7062790    -0.0589400
  C        1.6757520     1.1521170    -0.0434370
  C        1.2227880    -1.5827320    -0.1454420
  C        2.7536970     0.2775120    -0.1531960
  C        2.5274700    -1.0985820    -0.2079210
  C       -0.6853200     1.7746360     0.1326930
  C       -1.2296110    -1.3487220    -0.0223170
  H        1.8350890     2.2234210     0.0367700
  H        1.0390000    -2.6541090    -0.1799310
  H        3.7675570     0.6687350    -0.1864300
  H        3.3600860    -1.7923230    -0.2949860
  H       -2.0668670     0.7647910    -1.0387640
  H       -2.3975976     2.2041750    -0.4673982
  H       -0.7232160    -2.3232030     1.7312060
  H       -2.2766340    -2.7186030     1.0611610
units angstrom
no_reorient  #important for SAPT in psi4, default
symmetry c1  #important for SAPT in psi4, default
}

set PROPERTIES_ORIGIN ["COM"]
properties('MP2/aug-cc-pvtz', properties = ['dipole'])
--------------------------------------------------------------------------

    Molecular point group: c1
  Charge       = 0
  Multiplicity = 1
  Basis Set: AUG-CC-PVTZ
    Blend: AUG-CC-PVTZ
  Basis Set: (AUG-CC-PVTZ AUX)
    Blend: AUG-CC-PVTZ-JKFIT

    Orbital Energies [Eh]
    ---------------------

    Doubly Occupied:

       1A    -20.547668     2A    -20.517950     3A    -15.609528
       4A    -15.551407     5A    -11.386909     6A    -11.359150
       7A    -11.281188     8A    -11.273404     9A    -11.266146
      10A    -11.262635    11A    -11.258987    12A    -11.256248
      13A     -1.402200    14A     -1.374618    15A     -1.238511
      16A     -1.234369    17A     -1.177410    18A     -1.057433
      19A     -1.048222    20A     -0.914164    21A     -0.878778
      22A     -0.825616    23A     -0.802623    24A     -0.765299
      25A     -0.737760    26A     -0.711828    27A     -0.697797
      28A     -0.660311    29A     -0.653794    30A     -0.633456
      31A     -0.611649    32A     -0.598230    33A     -0.582096
      34A     -0.568530    35A     -0.540469    36A     -0.523983
      37A     -0.518536    38A     -0.456997    39A     -0.441753
      40A     -0.430636    41A     -0.407195    42A     -0.363518
      43A     -0.357090

  @DF-RHF Final Energy:  -566.42645618966117

   => Energetics <=

    Nuclear Repulsion Energy =            671.2283026870322828
    One-Electron Energy =               -2103.7373401972654392
    Two-Electron Energy =                 866.0825813205719896
    Total Energy =                       -566.4264561896611667
  Basis Set: (AUG-CC-PVTZ AUX)
    Blend: AUG-CC-PVTZ-RI
    Molecular point group: c1

    Geometry (in Angstrom), charge = 0, multiplicity = 1:

       Center              X                  Y                   Z               Mass
    ------------   -----------------  -----------------  -----------------  -----------------
         O           -0.425187812839     2.740549406315     0.839772649115    15.994914619570
         O           -2.119550812839    -1.142517593685    -0.832897350885    15.994914619570
         N           -1.807791812839     1.626131406315    -0.592261350885    14.003074004430
         N           -1.349508812839    -2.315557593685     0.954360649115    14.003074004430
         C            0.366685187161     0.666111406315    -0.022336350885    12.000000000000
         C            0.140953187161    -0.726477593685    -0.054557350885    12.000000000000
         C            1.689348187161     1.131918406315    -0.039054350885    12.000000000000
         C            1.236384187161    -1.602930593685    -0.141059350885    12.000000000000
         C            2.767293187161     0.257313406315    -0.148813350885    12.000000000000
         C            2.541066187161    -1.118780593685    -0.203538350885    12.000000000000
         C           -0.671723812839     1.754437406315     0.137075649115    12.000000000000
         C           -1.216014812839    -1.368920593685    -0.017934350885    12.000000000000
         H            1.848685187161     2.203222406315     0.041152649115     1.007825032230
         H            1.052596187161    -2.674307593685    -0.175548350885     1.007825032230
         H            3.781153187161     0.648536406315    -0.182047350885     1.007825032230
         H            3.373682187161    -1.812521593685    -0.290603350885     1.007825032230
         H           -2.053270812839     0.744592406315    -1.034381350885     1.007825032230
         H           -2.384001412839     2.183976406315    -0.463015550885     1.007825032230
         H           -0.709619812839    -2.343401593685     1.735588649115     1.007825032230
         H           -2.263037812839    -2.738801593685     1.065543649115     1.007825032230

  Basis Set: AUG-CC-PVTZ
    Blend: AUG-CC-PVTZ
  Basis Set: (AUG-CC-PVTZ AUX)
    Blend: AUG-CC-PVTZ-JKFIT
	 Reference Energy          =    -566.4264561896611667 [Eh]
	 Singles Energy            =      -0.0000000000000000 [Eh]
	 Same-Spin Energy          =      -0.5956720190109834 [Eh]
	 Opposite-Spin Energy      =      -1.7871436606009823 [Eh]
	 Correlation Energy        =      -2.3828156796119657 [Eh]
	 Total Energy              =    -568.8092718692731751 [Eh]

	 ================> DF-SCS-MP2 Energies <==================
	-----------------------------------------------------------
	 SCS Same-Spin Scale       =       0.3333333333333333 [-]
	 SCS Opposite-Spin Scale   =       1.2000000000000000 [-]
	 SCS Same-Spin Energy      =      -0.1985573396703278 [Eh]
	 SCS Opposite-Spin Energy  =      -2.1445723927211788 [Eh]
	 SCS Correlation Energy    =      -2.3431297323915068 [Eh]
	 SCS Total Energy          =    -568.7695859220526700 [Eh]
	-----------------------------------------------------------

  Dipole Moment: [D]
     X:     1.0964      Y:    -4.1544      Z:     1.0150     Total:     4.4149

*** Psi4 exiting successfully. Buy a developer a beer!
