                               Psi4 1.4a3.dev225

  ==> Input File <==

--------------------------------------------------------------------------
#psi4
#
memory 32 gb

molecule  {
0 1
  O       -0.4387840     2.7607480     0.8353900
  O       -2.1331470    -1.1223190    -0.8372800
  N       -1.8213880     1.6463300    -0.5966440
  N       -1.3631050    -2.2953590     0.9499780
  C        0.3530890     0.6863100    -0.0267190
  C        0.1273570    -0.7062790    -0.0589400
  C        1.6757520     1.1521170    -0.0434370
  C        1.2227880    -1.5827320    -0.1454420
  C        2.7296759     0.2811781    -0.1515032
  C        2.5274700    -1.0985820    -0.2079210
  C       -0.6853200     1.7746360     0.1326930
  C       -1.2296110    -1.3487220    -0.0223170
  H        1.8350890     2.2234210     0.0367700
  H        1.0390000    -2.6541090    -0.1799310
  H        3.7675570     0.6687350    -0.1864300
  H        3.3600860    -1.7923230    -0.2949860
  H       -2.0668670     0.7647910    -1.0387640
  H       -2.5394600     2.3415160    -0.4355780
  H       -0.7232160    -2.3232030     1.7312060
  H       -2.2766340    -2.7186030     1.0611610
units angstrom
no_reorient  #important for SAPT in psi4, default
symmetry c1  #important for SAPT in psi4, default
}

set PROPERTIES_ORIGIN ["COM"]
properties('MP2/aug-cc-pvtz', properties = ['dipole'])
--------------------------------------------------------------------------

    Molecular point group: c1
  Charge       = 0
  Multiplicity = 1
  Basis Set: AUG-CC-PVTZ
    Blend: AUG-CC-PVTZ
  Basis Set: (AUG-CC-PVTZ AUX)
    Blend: AUG-CC-PVTZ-JKFIT

    Orbital Energies [Eh]
    ---------------------

    Doubly Occupied:

       1A    -20.547056     2A    -20.515578     3A    -15.608953
       4A    -15.571950     5A    -11.386245     6A    -11.357651
       7A    -11.280221     8A    -11.273610     9A    -11.265483
      10A    -11.261942    11A    -11.257566    12A    -11.252970
      13A     -1.401447    14A     -1.369783    15A     -1.236892
      16A     -1.203804    17A     -1.176807    18A     -1.055738
      19A     -1.048120    20A     -0.908884    21A     -0.869006
      22A     -0.822430    23A     -0.787019    24A     -0.764202
      25A     -0.723373    26A     -0.703124    27A     -0.685758
      28A     -0.659327    29A     -0.649211    30A     -0.631432
      31A     -0.611700    32A     -0.592897    33A     -0.581409
      34A     -0.565993    35A     -0.538287    36A     -0.521912
      37A     -0.518570    38A     -0.455720    39A     -0.440969
      40A     -0.429108    41A     -0.402645    42A     -0.364134
      43A     -0.356832

  @DF-RHF Final Energy:  -566.47121281412285

   => Energetics <=

    Nuclear Repulsion Energy =            670.2852710442880380
    One-Electron Energy =               -2102.2014552604055098
    Two-Electron Energy =                 865.4449714019946214
    Total Energy =                       -566.4712128141228504
  Basis Set: (AUG-CC-PVTZ AUX)
    Blend: AUG-CC-PVTZ-RI
    Molecular point group: c1

    Geometry (in Angstrom), charge = 0, multiplicity = 1:

       Center              X                  Y                   Z               Mass
    ------------   -----------------  -----------------  -----------------  -----------------
         O           -0.422559326817     2.739437554070     0.839453355879    15.994914619570
         O           -2.116922326817    -1.143629445930    -0.833216644121    15.994914619570
         N           -1.805163326817     1.625019554070    -0.592580644121    14.003074004430
         N           -1.346880326817    -2.316669445930     0.954041355879    14.003074004430
         C            0.369313673183     0.664999554070    -0.022655644121    12.000000000000
         C            0.143581673183    -0.727589445930    -0.054876644121    12.000000000000
         C            1.691976673183     1.130806554070    -0.039373644121    12.000000000000
         C            1.239012673183    -1.604042445930    -0.141378644121    12.000000000000
         C            2.745900573183     0.259867654070    -0.147439844121    12.000000000000
         C            2.543694673183    -1.119892445930    -0.203857644121    12.000000000000
         C           -0.669095326817     1.753325554070     0.136756355879    12.000000000000
         C           -1.213386326817    -1.370032445930    -0.018253644121    12.000000000000
         H            1.851313673183     2.202110554070     0.040833355879     1.007825032230
         H            1.055224673183    -2.675419445930    -0.175867644121     1.007825032230
         H            3.783781673183     0.647424554070    -0.182366644121     1.007825032230
         H            3.376310673183    -1.813633445930    -0.290922644121     1.007825032230
         H           -2.050642326817     0.743480554070    -1.034700644121     1.007825032230
         H           -2.523235326817     2.320205554070    -0.431514644121     1.007825032230
         H           -0.706991326817    -2.344513445930     1.735269355879     1.007825032230
         H           -2.260409326817    -2.739913445930     1.065224355879     1.007825032230

  Basis Set: AUG-CC-PVTZ
    Blend: AUG-CC-PVTZ
  Basis Set: (AUG-CC-PVTZ AUX)
    Blend: AUG-CC-PVTZ-JKFIT
	 Reference Energy          =    -566.4712128141228504 [Eh]
	 Singles Energy            =      -0.0000000000000000 [Eh]
	 Same-Spin Energy          =      -0.5968517568006240 [Eh]
	 Opposite-Spin Energy      =      -1.7896538608865851 [Eh]
	 Correlation Energy        =      -2.3865056176872090 [Eh]
	 Total Energy              =    -568.8577184318100990 [Eh]

	 ================> DF-SCS-MP2 Energies <==================
	-----------------------------------------------------------
	 SCS Same-Spin Scale       =       0.3333333333333333 [-]
	 SCS Opposite-Spin Scale   =       1.2000000000000000 [-]
	 SCS Same-Spin Energy      =      -0.1989505856002080 [Eh]
	 SCS Opposite-Spin Energy  =      -2.1475846330639019 [Eh]
	 SCS Correlation Energy    =      -2.3465352186641097 [Eh]
	 SCS Total Energy          =    -568.8177480327869944 [Eh]
	-----------------------------------------------------------

  Dipole Moment: [D]
     X:     0.9166      Y:    -4.0418      Z:     1.0132     Total:     4.2665

*** Psi4 exiting successfully. Buy a developer a beer!
