                               Psi4 1.4a3.dev225

  ==> Input File <==

--------------------------------------------------------------------------
#psi4
#
memory 32 gb

molecule  {
0 1
  O       -0.4200372     2.7517494     0.8411098
  O       -2.1331470    -1.1223190    -0.8372800
  N       -1.8213880     1.6463300    -0.5966440
  N       -1.3631050    -2.2953590     0.9499780
  C        0.3530890     0.6863100    -0.0267190
  C        0.1273570    -0.7062790    -0.0589400
  C        1.6757520     1.1521170    -0.0434370
  C        1.2227880    -1.5827320    -0.1454420
  C        2.7536970     0.2775120    -0.1531960
  C        2.5274700    -1.0985820    -0.2079210
  C       -0.6853200     1.7746360     0.1326930
  C       -1.2296110    -1.3487220    -0.0223170
  H        1.8350890     2.2234210     0.0367700
  H        1.0390000    -2.6541090    -0.1799310
  H        3.7675570     0.6687350    -0.1864300
  H        3.3600860    -1.7923230    -0.2949860
  H       -2.0668670     0.7647910    -1.0387640
  H       -2.5394600     2.3415160    -0.4355780
  H       -0.7232160    -2.3232030     1.7312060
  H       -2.2766340    -2.7186030     1.0611610
units angstrom
no_reorient  #important for SAPT in psi4, default
symmetry c1  #important for SAPT in psi4, default
}

set PROPERTIES_ORIGIN ["COM"]
properties('MP2/aug-cc-pvtz', properties = ['dipole'])
--------------------------------------------------------------------------

    Molecular point group: c1
  Charge       = 0
  Multiplicity = 1
  Basis Set: AUG-CC-PVTZ
    Blend: AUG-CC-PVTZ
  Basis Set: (AUG-CC-PVTZ AUX)
    Blend: AUG-CC-PVTZ-JKFIT

    Orbital Energies [Eh]
    ---------------------

    Doubly Occupied:

       1A    -20.547016     2A    -20.515823     3A    -15.608847
       4A    -15.573109     5A    -11.386122     6A    -11.357896
       7A    -11.279898     8A    -11.272470     9A    -11.265076
      10A    -11.261490    11A    -11.257914    12A    -11.254951
      13A     -1.401411    14A     -1.369794    15A     -1.236742
      16A     -1.204949    17A     -1.174538    18A     -1.054848
      19A     -1.046031    20A     -0.907902    21A     -0.868768
      22A     -0.822037    23A     -0.787566    24A     -0.764002
      25A     -0.724315    26A     -0.702576    27A     -0.686695
      28A     -0.659238    29A     -0.649141    30A     -0.631755
      31A     -0.610662    32A     -0.592767    33A     -0.580940
      34A     -0.566621    35A     -0.538565    36A     -0.522511
      37A     -0.516889    38A     -0.455776    39A     -0.440928
      40A     -0.429212    41A     -0.403607    42A     -0.362391
      43A     -0.355522

  @DF-RHF Final Energy:  -566.47171058277684

   => Energetics <=

    Nuclear Repulsion Energy =            669.9471017544127562
    One-Electron Energy =               -2101.5390037912188745
    Two-Electron Energy =                 865.1201914540291682
    Total Energy =                       -566.4717105827768364
  Basis Set: (AUG-CC-PVTZ AUX)
    Blend: AUG-CC-PVTZ-RI
    Molecular point group: c1

    Geometry (in Angstrom), charge = 0, multiplicity = 1:

       Center              X                  Y                   Z               Mass
    ------------   -----------------  -----------------  -----------------  -----------------
         O           -0.407397262674     2.731584429311     0.844739322344    15.994914619570
         O           -2.120507062674    -1.142483970689    -0.833650477656    15.994914619570
         N           -1.808748062674     1.626165029311    -0.593014477656    14.003074004430
         N           -1.350465062674    -2.315523970689     0.953607522344    14.003074004430
         C            0.365728937326     0.666145029311    -0.023089477656    12.000000000000
         C            0.139996937326    -0.726443970689    -0.055310477656    12.000000000000
         C            1.688391937326     1.131952029311    -0.039807477656    12.000000000000
         C            1.235427937326    -1.602896970689    -0.141812477656    12.000000000000
         C            2.766336937326     0.257347029311    -0.149566477656    12.000000000000
         C            2.540109937326    -1.118746970689    -0.204291477656    12.000000000000
         C           -0.672680062674     1.754471029311     0.136322522344    12.000000000000
         C           -1.216971062674    -1.368886970689    -0.018687477656    12.000000000000
         H            1.847728937326     2.203256029311     0.040399522344     1.007825032230
         H            1.051639937326    -2.674273970689    -0.176301477656     1.007825032230
         H            3.780196937326     0.648570029311    -0.182800477656     1.007825032230
         H            3.372725937326    -1.812487970689    -0.291356477656     1.007825032230
         H           -2.054227062674     0.744626029311    -1.035134477656     1.007825032230
         H           -2.526820062674     2.321351029311    -0.431948477656     1.007825032230
         H           -0.710576062674    -2.343367970689     1.734835522344     1.007825032230
         H           -2.263994062674    -2.738767970689     1.064790522344     1.007825032230

  Basis Set: AUG-CC-PVTZ
    Blend: AUG-CC-PVTZ
  Basis Set: (AUG-CC-PVTZ AUX)
    Blend: AUG-CC-PVTZ-JKFIT
	 Reference Energy          =    -566.4717105827768364 [Eh]
	 Singles Energy            =      -0.0000000000000000 [Eh]
	 Same-Spin Energy          =      -0.5968465977198467 [Eh]
	 Opposite-Spin Energy      =      -1.7897296737713568 [Eh]
	 Correlation Energy        =      -2.3865762714912035 [Eh]
	 Total Energy              =    -568.8582868542680444 [Eh]

	 ================> DF-SCS-MP2 Energies <==================
	-----------------------------------------------------------
	 SCS Same-Spin Scale       =       0.3333333333333333 [-]
	 SCS Opposite-Spin Scale   =       1.2000000000000000 [-]
	 SCS Same-Spin Energy      =      -0.1989488659066156 [Eh]
	 SCS Opposite-Spin Energy  =      -2.1476756085256281 [Eh]
	 SCS Correlation Energy    =      -2.3466244744322435 [Eh]
	 SCS Total Energy          =    -568.8183350572090831 [Eh]
	-----------------------------------------------------------

  Dipole Moment: [D]
     X:     0.8697      Y:    -3.9852      Z:     1.0068     Total:     4.2014

*** Psi4 exiting successfully. Buy a developer a beer!
