                               Psi4 1.4a3.dev225

  ==> Input File <==

--------------------------------------------------------------------------
#psi4
#
memory 32 gb

molecule  {
0 1
  O       -0.4387840     2.7607480     0.8353900
  O       -2.1331470    -1.1223190    -0.8372800
  N       -1.8213880     1.6463300    -0.5966440
  N       -1.3631050    -2.2953590     0.9499780
  C        0.3530890     0.6863100    -0.0267190
  C        0.1273570    -0.7062790    -0.0589400
  C        1.6757520     1.1521170    -0.0434370
  C        1.2227880    -1.5827320    -0.1454420
  C        2.7536970     0.2775120    -0.1531960
  C        2.5274700    -1.0985820    -0.2079210
  C       -0.6853200     1.7746360     0.1326930
  C       -1.2296110    -1.3487220    -0.0223170
  H        1.8350890     2.2234210     0.0367700
  H        1.0390000    -2.6541090    -0.1799310
  H        3.7675570     0.6687350    -0.1864300
  H        3.3600860    -1.7923230    -0.2949860
  H       -2.0668670     0.7647910    -1.0387640
  H       -2.5394600     2.3415160    -0.4355780
  H       -0.7232160    -2.3232030     1.7312060
  H       -2.3668206    -2.7603870     1.0721373
units angstrom
no_reorient  #important for SAPT in psi4, default
symmetry c1  #important for SAPT in psi4, default
}

set PROPERTIES_ORIGIN ["COM"]
properties('MP2/aug-cc-pvtz', properties = ['dipole'])
--------------------------------------------------------------------------

    Molecular point group: c1
  Charge       = 0
  Multiplicity = 1
  Basis Set: AUG-CC-PVTZ
    Blend: AUG-CC-PVTZ
  Basis Set: (AUG-CC-PVTZ AUX)
    Blend: AUG-CC-PVTZ-JKFIT

    Orbital Energies [Eh]
    ---------------------

    Doubly Occupied:

       1A    -20.545867     2A    -20.515046     3A    -15.616530
       4A    -15.571512     5A    -11.385531     6A    -11.357277
       7A    -11.280532     8A    -11.273035     9A    -11.265267
      10A    -11.261764    11A    -11.258196    12A    -11.255407
      13A     -1.399630    14A     -1.369281    15A     -1.227332
      16A     -1.203269    17A     -1.173733    18A     -1.054100
      19A     -1.046013    20A     -0.904775    21A     -0.868131
      22A     -0.818641    23A     -0.786732    24A     -0.760137
      25A     -0.718596    26A     -0.690033    27A     -0.686027
      28A     -0.657678    29A     -0.647627    30A     -0.629962
      31A     -0.609008    32A     -0.592212    33A     -0.579191
      34A     -0.566052    35A     -0.538485    36A     -0.522569
      37A     -0.516840    38A     -0.454908    39A     -0.439092
      40A     -0.428551    41A     -0.402147    42A     -0.362528
      43A     -0.356031

  @DF-RHF Final Energy:  -566.46139856507671

   => Energetics <=

    Nuclear Repulsion Energy =            669.2446441610761667
    One-Electron Energy =               -2100.2215334969705509
    Two-Electron Energy =                 864.5154907708176779
    Total Energy =                       -566.4613985650767063
  Basis Set: (AUG-CC-PVTZ AUX)
    Blend: AUG-CC-PVTZ-RI
    Molecular point group: c1

    Geometry (in Angstrom), charge = 0, multiplicity = 1:

       Center              X                  Y                   Z               Mass
    ------------   -----------------  -----------------  -----------------  -----------------
         O           -0.423762317175     2.739962391981     0.839509746774    15.994914619570
         O           -2.118125317175    -1.143104608019    -0.833160253226    15.994914619570
         N           -1.806366317175     1.625544391981    -0.592524253226    14.003074004430
         N           -1.348083317175    -2.316144608019     0.954097746774    14.003074004430
         C            0.368110682825     0.665524391981    -0.022599253226    12.000000000000
         C            0.142378682825    -0.727064608019    -0.054820253226    12.000000000000
         C            1.690773682825     1.131331391981    -0.039317253226    12.000000000000
         C            1.237809682825    -1.603517608019    -0.141322253226    12.000000000000
         C            2.768718682825     0.256726391981    -0.149076253226    12.000000000000
         C            2.542491682825    -1.119367608019    -0.203801253226    12.000000000000
         C           -0.670298317175     1.753850391981     0.136812746774    12.000000000000
         C           -1.214589317175    -1.369507608019    -0.018197253226    12.000000000000
         H            1.850110682825     2.202635391981     0.040889746774     1.007825032230
         H            1.054021682825    -2.674894608019    -0.175811253226     1.007825032230
         H            3.782578682825     0.647949391981    -0.182310253226     1.007825032230
         H            3.375107682825    -1.813108608019    -0.290866253226     1.007825032230
         H           -2.051845317175     0.744005391981    -1.034644253226     1.007825032230
         H           -2.524438317175     2.320730391981    -0.431458253226     1.007825032230
         H           -0.708194317175    -2.343988608019     1.735325746774     1.007825032230
         H           -2.351798917175    -2.781172608019     1.076257046774     1.007825032230

  Basis Set: AUG-CC-PVTZ
    Blend: AUG-CC-PVTZ
  Basis Set: (AUG-CC-PVTZ AUX)
    Blend: AUG-CC-PVTZ-JKFIT
	 Reference Energy          =    -566.4613985650767063 [Eh]
	 Singles Energy            =      -0.0000000000000000 [Eh]
	 Same-Spin Energy          =      -0.5975194479378543 [Eh]
	 Opposite-Spin Energy      =      -1.7915152460857300 [Eh]
	 Correlation Energy        =      -2.3890346940235840 [Eh]
	 Total Energy              =    -568.8504332591003276 [Eh]

	 ================> DF-SCS-MP2 Energies <==================
	-----------------------------------------------------------
	 SCS Same-Spin Scale       =       0.3333333333333333 [-]
	 SCS Opposite-Spin Scale   =       1.2000000000000000 [-]
	 SCS Same-Spin Energy      =      -0.1991731493126181 [Eh]
	 SCS Opposite-Spin Energy  =      -2.1498182953028757 [Eh]
	 SCS Correlation Energy    =      -2.3489914446154936 [Eh]
	 SCS Total Energy          =    -568.8103900096922416 [Eh]
	-----------------------------------------------------------

  Dipole Moment: [D]
     X:     0.8385      Y:    -4.0868      Z:     1.0325     Total:     4.2978

*** Psi4 exiting successfully. Buy a developer a beer!
