                               Psi4 1.4a3.dev225

  ==> Input File <==

--------------------------------------------------------------------------
#psi4
#
memory 32 gb

molecule  {
0 1
  O       -0.4387840     2.7607480     0.8353900
  O       -2.1331470    -1.1223190    -0.8372800
  N       -1.8213880     1.6463300    -0.5966440
  N       -1.3631050    -2.2953590     0.9499780
  C        0.3530890     0.6863100    -0.0267190
  C        0.1273570    -0.7062790    -0.0589400
  C        1.6757520     1.1521170    -0.0434370
  C        1.2227880    -1.5827320    -0.1454420
  C        2.7536970     0.2775120    -0.1531960
  C        2.5274700    -1.0985820    -0.2079210
  C       -0.6853200     1.7746360     0.1326930
  C       -1.2296110    -1.3487220    -0.0223170
  H        1.8380232     2.2431494     0.0382470
  H        1.0390000    -2.6541090    -0.1799310
  H        3.7675570     0.6687350    -0.1864300
  H        3.3600860    -1.7923230    -0.2949860
  H       -2.0668670     0.7647910    -1.0387640
  H       -2.5394600     2.3415160    -0.4355780
  H       -0.7232160    -2.3232030     1.7312060
  H       -2.2766340    -2.7186030     1.0611610
units angstrom
no_reorient  #important for SAPT in psi4, default
symmetry c1  #important for SAPT in psi4, default
}

set PROPERTIES_ORIGIN ["COM"]
properties('MP2/aug-cc-pvtz', properties = ['dipole'])
--------------------------------------------------------------------------

    Molecular point group: c1
  Charge       = 0
  Multiplicity = 1
  Basis Set: AUG-CC-PVTZ
    Blend: AUG-CC-PVTZ
  Basis Set: (AUG-CC-PVTZ AUX)
    Blend: AUG-CC-PVTZ-JKFIT

    Orbital Energies [Eh]
    ---------------------

    Doubly Occupied:

       1A    -20.547116     2A    -20.515264     3A    -15.609009
       4A    -15.571836     5A    -11.386324     6A    -11.357541
       7A    -11.280634     8A    -11.273379     9A    -11.265582
      10A    -11.262119    11A    -11.258770    12A    -11.257443
      13A     -1.401508    14A     -1.369527    15A     -1.236911
      16A     -1.203594    17A     -1.174904    18A     -1.055369
      19A     -1.046132    20A     -0.908347    21A     -0.868519
      22A     -0.821641    23A     -0.787495    24A     -0.763595
      25A     -0.724114    26A     -0.702092    27A     -0.686492
      28A     -0.659490    29A     -0.648495    30A     -0.631343
      31A     -0.609556    32A     -0.592811    33A     -0.581023
      34A     -0.566339    35A     -0.538972    36A     -0.521440
      37A     -0.517348    38A     -0.455879    39A     -0.440978
      40A     -0.428989    41A     -0.402462    42A     -0.362931
      43A     -0.356332

  @DF-RHF Final Energy:  -566.47115029330780

   => Energetics <=

    Nuclear Repulsion Energy =            669.6990198295940218
    One-Electron Energy =               -2101.0410470692663694
    Two-Electron Energy =                 864.8708769463646604
    Total Energy =                       -566.4711502933078009
  Basis Set: (AUG-CC-PVTZ AUX)
    Blend: AUG-CC-PVTZ-RI
    Molecular point group: c1

    Geometry (in Angstrom), charge = 0, multiplicity = 1:

       Center              X                  Y                   Z               Mass
    ------------   -----------------  -----------------  -----------------  -----------------
         O           -0.424334365737     2.739584516362     0.839568101738    15.994914619570
         O           -2.118697365737    -1.143482483638    -0.833101898262    15.994914619570
         N           -1.806938365737     1.625166516362    -0.592465898262    14.003074004430
         N           -1.348655365737    -2.316522483638     0.954156101738    14.003074004430
         C            0.367538634263     0.665146516362    -0.022540898262    12.000000000000
         C            0.141806634263    -0.727442483638    -0.054761898262    12.000000000000
         C            1.690201634263     1.130953516362    -0.039258898262    12.000000000000
         C            1.237237634263    -1.603895483638    -0.141263898262    12.000000000000
         C            2.768146634263     0.256348516362    -0.149017898262    12.000000000000
         C            2.541919634263    -1.119745483638    -0.203742898262    12.000000000000
         C           -0.670870365737     1.753472516362     0.136871101738    12.000000000000
         C           -1.215161365737    -1.369885483638    -0.018138898262    12.000000000000
         H            1.852472834263     2.221985916362     0.042425101738     1.007825032230
         H            1.053449634263    -2.675272483638    -0.175752898262     1.007825032230
         H            3.782006634263     0.647571516362    -0.182251898262     1.007825032230
         H            3.374535634263    -1.813486483638    -0.290807898262     1.007825032230
         H           -2.052417365737     0.743627516362    -1.034585898262     1.007825032230
         H           -2.525010365737     2.320352516362    -0.431399898262     1.007825032230
         H           -0.708766365737    -2.344366483638     1.735384101738     1.007825032230
         H           -2.262184365737    -2.739766483638     1.065339101738     1.007825032230

  Basis Set: AUG-CC-PVTZ
    Blend: AUG-CC-PVTZ
  Basis Set: (AUG-CC-PVTZ AUX)
    Blend: AUG-CC-PVTZ-JKFIT
	 Reference Energy          =    -566.4711502933078009 [Eh]
	 Singles Energy            =      -0.0000000000000000 [Eh]
	 Same-Spin Energy          =      -0.5968864772777550 [Eh]
	 Opposite-Spin Energy      =      -1.7898858814407950 [Eh]
	 Correlation Energy        =      -2.3867723587185501 [Eh]
	 Total Energy              =    -568.8579226520263319 [Eh]

	 ================> DF-SCS-MP2 Energies <==================
	-----------------------------------------------------------
	 SCS Same-Spin Scale       =       0.3333333333333333 [-]
	 SCS Opposite-Spin Scale   =       1.2000000000000000 [-]
	 SCS Same-Spin Energy      =      -0.1989621590925850 [Eh]
	 SCS Opposite-Spin Energy  =      -2.1478630577289537 [Eh]
	 SCS Correlation Energy    =      -2.3468252168215389 [Eh]
	 SCS Total Energy          =    -568.8179755101293722 [Eh]
	-----------------------------------------------------------

  Dipole Moment: [D]
     X:     0.9278      Y:    -4.0289      Z:     1.0157     Total:     4.2573

*** Psi4 exiting successfully. Buy a developer a beer!
