                               Psi4 1.4a3.dev225

  ==> Input File <==

--------------------------------------------------------------------------
#psi4
#
memory 32 gb

molecule  {
0 1
  O       -0.4387840     2.7607480     0.8353900
  O       -2.1331470    -1.1223190    -0.8372800
  N       -1.8213880     1.6463300    -0.5966440
  N       -1.3631050    -2.2953590     0.9499780
  C        0.3530890     0.6863100    -0.0267190
  C        0.1273570    -0.7062790    -0.0589400
  C        1.6757520     1.1521170    -0.0434370
  C        1.2227880    -1.5827320    -0.1454420
  C        2.7536970     0.2775120    -0.1531960
  C        2.5274700    -1.0985820    -0.2079210
  C       -0.6653690     1.8544372     0.1895588
  C       -1.2296110    -1.3487220    -0.0223170
  H        1.8350890     2.2234210     0.0367700
  H        1.0390000    -2.6541090    -0.1799310
  H        3.7675570     0.6687350    -0.1864300
  H        3.3600860    -1.7923230    -0.2949860
  H       -2.0668670     0.7647910    -1.0387640
  H       -2.5394600     2.3415160    -0.4355780
  H       -0.7232160    -2.3232030     1.7312060
  H       -2.2766340    -2.7186030     1.0611610
units angstrom
no_reorient  #important for SAPT in psi4, default
symmetry c1  #important for SAPT in psi4, default
}

set PROPERTIES_ORIGIN ["COM"]
properties('MP2/aug-cc-pvtz', properties = ['dipole'])
--------------------------------------------------------------------------

    Molecular point group: c1
  Charge       = 0
  Multiplicity = 1
  Basis Set: AUG-CC-PVTZ
    Blend: AUG-CC-PVTZ
  Basis Set: (AUG-CC-PVTZ AUX)
    Blend: AUG-CC-PVTZ-JKFIT

    Orbital Energies [Eh]
    ---------------------

    Doubly Occupied:

       1A    -20.542664     2A    -20.536941     3A    -15.605896
       4A    -15.557166     5A    -11.382161     6A    -11.356580
       7A    -11.277191     8A    -11.269500     9A    -11.263474
      10A    -11.258758    11A    -11.256337    12A    -11.252124
      13A     -1.445325    14A     -1.396845    15A     -1.233531
      16A     -1.186730    17A     -1.167782    18A     -1.050731
      19A     -1.042193    20A     -0.902335    21A     -0.859690
      22A     -0.819018    23A     -0.778538    24A     -0.760097
      25A     -0.719809    26A     -0.698752    27A     -0.678755
      28A     -0.665466    29A     -0.650653    30A     -0.640349
      31A     -0.613132    32A     -0.602984    33A     -0.588933
      34A     -0.578546    35A     -0.543965    36A     -0.524376
      37A     -0.516314    38A     -0.452626    39A     -0.438923
      40A     -0.428534    41A     -0.406096    42A     -0.359906
      43A     -0.354765

  @DF-RHF Final Energy:  -566.46074032047363

   => Energetics <=

    Nuclear Repulsion Energy =            669.6179876622219354
    One-Electron Energy =               -2100.8284736524506116
    Two-Electron Energy =                 864.7497456697551570
    Total Energy =                       -566.4607403204736329
  Basis Set: (AUG-CC-PVTZ AUX)
    Blend: AUG-CC-PVTZ-RI
    Molecular point group: c1

    Geometry (in Angstrom), charge = 0, multiplicity = 1:

       Center              X                  Y                   Z               Mass
    ------------   -----------------  -----------------  -----------------  -----------------
         O           -0.425775648743     2.733868682183     0.835417748536    15.994914619570
         O           -2.120138648743    -1.149198317817    -0.837252251464    15.994914619570
         N           -1.808379648743     1.619450682183    -0.596616251464    14.003074004430
         N           -1.350096648743    -2.322238317817     0.950005748536    14.003074004430
         C            0.366097351257     0.659430682183    -0.026691251464    12.000000000000
         C            0.140365351257    -0.733158317817    -0.058912251464    12.000000000000
         C            1.688760351257     1.125237682183    -0.043409251464    12.000000000000
         C            1.235796351257    -1.609611317817    -0.145414251464    12.000000000000
         C            2.766705351257     0.250632682183    -0.153168251464    12.000000000000
         C            2.540478351257    -1.125461317817    -0.207893251464    12.000000000000
         C           -0.652360648743     1.827557882183     0.189586548536    12.000000000000
         C           -1.216602648743    -1.375601317817    -0.022289251464    12.000000000000
         H            1.848097351257     2.196541682183     0.036797748536     1.007825032230
         H            1.052008351257    -2.680988317817    -0.179903251464     1.007825032230
         H            3.780565351257     0.641855682183    -0.186402251464     1.007825032230
         H            3.373094351257    -1.819202317817    -0.294958251464     1.007825032230
         H           -2.053858648743     0.737911682183    -1.038736251464     1.007825032230
         H           -2.526451648743     2.314636682183    -0.435550251464     1.007825032230
         H           -0.710207648743    -2.350082317817     1.731233748536     1.007825032230
         H           -2.263625648743    -2.745482317817     1.061188748536     1.007825032230

  Basis Set: AUG-CC-PVTZ
    Blend: AUG-CC-PVTZ
  Basis Set: (AUG-CC-PVTZ AUX)
    Blend: AUG-CC-PVTZ-JKFIT
	 Reference Energy          =    -566.4607403204736329 [Eh]
	 Singles Energy            =      -0.0000000000000000 [Eh]
	 Same-Spin Energy          =      -0.5948942540876796 [Eh]
	 Opposite-Spin Energy      =      -1.7859110782874330 [Eh]
	 Correlation Energy        =      -2.3808053323751128 [Eh]
	 Total Energy              =    -568.8415456528487084 [Eh]

	 ================> DF-SCS-MP2 Energies <==================
	-----------------------------------------------------------
	 SCS Same-Spin Scale       =       0.3333333333333333 [-]
	 SCS Opposite-Spin Scale   =       1.2000000000000000 [-]
	 SCS Same-Spin Energy      =      -0.1982980846958932 [Eh]
	 SCS Opposite-Spin Energy  =      -2.1430932939449194 [Eh]
	 SCS Correlation Energy    =      -2.3413913786408127 [Eh]
	 SCS Total Energy          =    -568.8021316991143976 [Eh]
	-----------------------------------------------------------

  Dipole Moment: [D]
     X:     1.1496      Y:    -3.4501      Z:     1.5115     Total:     3.9382

*** Psi4 exiting successfully. Buy a developer a beer!
