                               Psi4 1.4a3.dev225

  ==> Input File <==

--------------------------------------------------------------------------
#psi4
#
memory 32 gb

molecule  {
0 1
  O       -0.4387840     2.7607480     0.8353900
  O       -2.1331470    -1.1223190    -0.8372800
  N       -1.8213880     1.6463300    -0.5966440
  N       -1.3631050    -2.2953590     0.9499780
  C        0.3530890     0.6863100    -0.0267190
  C        0.1273570    -0.7062790    -0.0589400
  C        1.6757520     1.1521170    -0.0434370
  C        1.2227880    -1.5827320    -0.1454420
  C        2.7536970     0.2775120    -0.1531960
  C        2.5274700    -1.0985820    -0.2079210
  C       -0.6454181     1.9342385     0.2464247
  C       -1.2296110    -1.3487220    -0.0223170
  H        1.8350890     2.2234210     0.0367700
  H        1.0390000    -2.6541090    -0.1799310
  H        3.7675570     0.6687350    -0.1864300
  H        3.3600860    -1.7923230    -0.2949860
  H       -2.0668670     0.7647910    -1.0387640
  H       -2.5394600     2.3415160    -0.4355780
  H       -0.7232160    -2.3232030     1.7312060
  H       -2.2766340    -2.7186030     1.0611610
units angstrom
no_reorient  #important for SAPT in psi4, default
symmetry c1  #important for SAPT in psi4, default
}

set PROPERTIES_ORIGIN ["COM"]
properties('MP2/aug-cc-pvtz', properties = ['dipole'])
--------------------------------------------------------------------------

    Molecular point group: c1
  Charge       = 0
  Multiplicity = 1
  Basis Set: AUG-CC-PVTZ
    Blend: AUG-CC-PVTZ
  Basis Set: (AUG-CC-PVTZ AUX)
    Blend: AUG-CC-PVTZ-JKFIT

    Orbital Energies [Eh]
    ---------------------

    Doubly Occupied:

       1A    -20.559873     2A    -20.537961     3A    -15.602490
       4A    -15.542366     5A    -11.377622     6A    -11.354849
       7A    -11.272942     8A    -11.263908     9A    -11.260837
      10A    -11.255097    11A    -11.253713    12A    -11.248263
      13A     -1.537926    14A     -1.392136    15A     -1.229861
      16A     -1.173661    17A     -1.151946    18A     -1.046521
      19A     -1.036654    20A     -0.896781    21A     -0.850409
      22A     -0.815410    23A     -0.771517    24A     -0.760189
      25A     -0.721696    26A     -0.704485    27A     -0.691792
      28A     -0.667822    29A     -0.658780    30A     -0.645357
      31A     -0.630403    32A     -0.617458    33A     -0.597284
      34A     -0.575421    35A     -0.548313    36A     -0.523198
      37A     -0.514319    38A     -0.448750    39A     -0.434239
      40A     -0.414601    41A     -0.399411    42A     -0.356339
      43A     -0.351379

  @DF-RHF Final Energy:  -566.39715841716520

   => Energetics <=

    Nuclear Repulsion Energy =            669.7910565586664688
    One-Electron Energy =               -2100.9884682706501735
    Two-Electron Energy =                 864.8002532948185035
    Total Energy =                       -566.3971584171652012
  Basis Set: (AUG-CC-PVTZ AUX)
    Blend: AUG-CC-PVTZ-RI
    Molecular point group: c1

    Geometry (in Angstrom), charge = 0, multiplicity = 1:

       Center              X                  Y                   Z               Mass
    ------------   -----------------  -----------------  -----------------  -----------------
         O           -0.427234949461     2.728031647543     0.831258314690    15.994914619570
         O           -2.121597949461    -1.155035352457    -0.841411685310    15.994914619570
         N           -1.809838949461     1.613613647543    -0.600775685310    14.003074004430
         N           -1.351555949461    -2.328075352457     0.945846314690    14.003074004430
         C            0.364638050539     0.653593647543    -0.030850685310    12.000000000000
         C            0.138906050539    -0.738995352457    -0.063071685310    12.000000000000
         C            1.687301050539     1.119400647543    -0.047568685310    12.000000000000
         C            1.234337050539    -1.615448352457    -0.149573685310    12.000000000000
         C            2.765246050539     0.244795647543    -0.157327685310    12.000000000000
         C            2.539019050539    -1.131298352457    -0.212052685310    12.000000000000
         C           -0.633869049461     1.901522147543     0.242293014690    12.000000000000
         C           -1.218061949461    -1.381438352457    -0.026448685310    12.000000000000
         H            1.846638050539     2.190704647543     0.032638314690     1.007825032230
         H            1.050549050539    -2.686825352457    -0.184062685310     1.007825032230
         H            3.779106050539     0.636018647543    -0.190561685310     1.007825032230
         H            3.371635050539    -1.825039352457    -0.299117685310     1.007825032230
         H           -2.055317949461     0.732074647543    -1.042895685310     1.007825032230
         H           -2.527910949461     2.308799647543    -0.439709685310     1.007825032230
         H           -0.711666949461    -2.355919352457     1.727074314690     1.007825032230
         H           -2.265084949461    -2.751319352457     1.057029314690     1.007825032230

  Basis Set: AUG-CC-PVTZ
    Blend: AUG-CC-PVTZ
  Basis Set: (AUG-CC-PVTZ AUX)
    Blend: AUG-CC-PVTZ-JKFIT
	 Reference Energy          =    -566.3971584171652012 [Eh]
	 Singles Energy            =      -0.0000000000000000 [Eh]
	 Same-Spin Energy          =      -0.5933481609776081 [Eh]
	 Opposite-Spin Energy      =      -1.7827684769946999 [Eh]
	 Correlation Energy        =      -2.3761166379723080 [Eh]
	 Total Energy              =    -568.7732750551375602 [Eh]

	 ================> DF-SCS-MP2 Energies <==================
	-----------------------------------------------------------
	 SCS Same-Spin Scale       =       0.3333333333333333 [-]
	 SCS Opposite-Spin Scale   =       1.2000000000000000 [-]
	 SCS Same-Spin Energy      =      -0.1977827203258694 [Eh]
	 SCS Opposite-Spin Energy  =      -2.1393221723936398 [Eh]
	 SCS Correlation Energy    =      -2.3371048927195091 [Eh]
	 SCS Total Energy          =    -568.7342633098846818 [Eh]
	-----------------------------------------------------------

  Dipole Moment: [D]
     X:     1.3777      Y:    -2.7606      Z:     2.0730     Total:     3.7170

*** Psi4 exiting successfully. Buy a developer a beer!
