                               Psi4 1.4a3.dev225

  ==> Input File <==

--------------------------------------------------------------------------
#psi4
#
memory 32 gb

molecule  {
0 1
  O       -0.4387840     2.7607480     0.8353900
  O       -2.1331470    -1.1223190    -0.8372800
  N       -1.8213880     1.6463300    -0.5966440
  N       -1.3631050    -2.2953590     0.9499780
  C        0.3530890     0.6863100    -0.0267190
  C        0.1273570    -0.7062790    -0.0589400
  C        1.6757520     1.1521170    -0.0434370
  C        1.2227880    -1.5827320    -0.1454420
  C        2.7536970     0.2775120    -0.1531960
  C        2.5274700    -1.0985820    -0.2079210
  C       -0.6853200     1.7746360     0.1326930
  C       -1.2296110    -1.3487220    -0.0223170
  H        1.8057466     2.0261373     0.0219997
  H        1.0390000    -2.6541090    -0.1799310
  H        3.7675570     0.6687350    -0.1864300
  H        3.3600860    -1.7923230    -0.2949860
  H       -2.0668670     0.7647910    -1.0387640
  H       -2.5394600     2.3415160    -0.4355780
  H       -0.7232160    -2.3232030     1.7312060
  H       -2.2766340    -2.7186030     1.0611610
units angstrom
no_reorient  #important for SAPT in psi4, default
symmetry c1  #important for SAPT in psi4, default
}

set PROPERTIES_ORIGIN ["COM"]
properties('MP2/aug-cc-pvtz', properties = ['dipole'])
--------------------------------------------------------------------------

    Molecular point group: c1
  Charge       = 0
  Multiplicity = 1
  Basis Set: AUG-CC-PVTZ
    Blend: AUG-CC-PVTZ
  Basis Set: (AUG-CC-PVTZ AUX)
    Blend: AUG-CC-PVTZ-JKFIT

    Orbital Energies [Eh]
    ---------------------

    Doubly Occupied:

       1A    -20.546961     2A    -20.515814     3A    -15.608880
       4A    -15.571894     5A    -11.386046     6A    -11.357724
       7A    -11.279992     8A    -11.272725     9A    -11.265814
      10A    -11.261682    11A    -11.258101    12A    -11.234152
      13A     -1.401357    14A     -1.369902    15A     -1.236788
      16A     -1.203762    17A     -1.176566    18A     -1.058278
      19A     -1.053167    20A     -0.909209    21A     -0.879873
      22A     -0.831829    23A     -0.787489    24A     -0.768198
      25A     -0.724067    26A     -0.712126    27A     -0.686836
      28A     -0.662633    29A     -0.657377    30A     -0.636281
      31A     -0.619482    32A     -0.592813    33A     -0.581031
      34A     -0.567541    35A     -0.538933    36A     -0.534273
      37A     -0.517147    38A     -0.455761    39A     -0.440958
      40A     -0.429258    41A     -0.402799    42A     -0.362713
      43A     -0.356565

  @DF-RHF Final Energy:  -566.43709715768591

   => Energetics <=

    Nuclear Repulsion Energy =            670.9734544498364812
    One-Electron Energy =               -2103.3915083937417876
    Two-Electron Energy =                 865.9809567862193944
    Total Energy =                       -566.4370971576859120
  Basis Set: (AUG-CC-PVTZ AUX)
    Blend: AUG-CC-PVTZ-RI
    Molecular point group: c1

    Geometry (in Angstrom), charge = 0, multiplicity = 1:

       Center              X                  Y                   Z               Mass
    ------------   -----------------  -----------------  -----------------  -----------------
         O           -0.424136087988     2.740917639140     0.839667910208    15.994914619570
         O           -2.118499087988    -1.142149360860    -0.833002089792    15.994914619570
         N           -1.806740087988     1.626499639140    -0.592366089792    14.003074004430
         N           -1.348457087988    -2.315189360860     0.954255910208    14.003074004430
         C            0.367736912012     0.666479639140    -0.022441089792    12.000000000000
         C            0.142004912012    -0.726109360860    -0.054662089792    12.000000000000
         C            1.690399912012     1.132286639140    -0.039159089792    12.000000000000
         C            1.237435912012    -1.602562360860    -0.141164089792    12.000000000000
         C            2.768344912012     0.257681639140    -0.148918089792    12.000000000000
         C            2.542117912012    -1.118412360860    -0.203643089792    12.000000000000
         C           -0.670672087988     1.754805639140     0.136970910208    12.000000000000
         C           -1.214963087988    -1.368552360860    -0.018039089792    12.000000000000
         H            1.820394512012     2.006306939140     0.026277610208     1.007825032230
         H            1.053647912012    -2.673939360860    -0.175653089792     1.007825032230
         H            3.782204912012     0.648904639140    -0.182152089792     1.007825032230
         H            3.374733912012    -1.812153360860    -0.290708089792     1.007825032230
         H           -2.052219087988     0.744960639140    -1.034486089792     1.007825032230
         H           -2.524812087988     2.321685639140    -0.431300089792     1.007825032230
         H           -0.708568087988    -2.343033360860     1.735483910208     1.007825032230
         H           -2.261986087988    -2.738433360860     1.065438910208     1.007825032230

  Basis Set: AUG-CC-PVTZ
    Blend: AUG-CC-PVTZ
  Basis Set: (AUG-CC-PVTZ AUX)
    Blend: AUG-CC-PVTZ-JKFIT
	 Reference Energy          =    -566.4370971576859120 [Eh]
	 Singles Energy            =      -0.0000000000000000 [Eh]
	 Same-Spin Energy          =      -0.5963587657454650 [Eh]
	 Opposite-Spin Energy      =      -1.7889916862880231 [Eh]
	 Correlation Energy        =      -2.3853504520334878 [Eh]
	 Total Energy              =    -568.8224476097193474 [Eh]

	 ================> DF-SCS-MP2 Energies <==================
	-----------------------------------------------------------
	 SCS Same-Spin Scale       =       0.3333333333333333 [-]
	 SCS Opposite-Spin Scale   =       1.2000000000000000 [-]
	 SCS Same-Spin Energy      =      -0.1987862552484883 [Eh]
	 SCS Opposite-Spin Energy  =      -2.1467900235456274 [Eh]
	 SCS Correlation Energy    =      -2.3455762787941157 [Eh]
	 SCS Total Energy          =    -568.7826734364800814 [Eh]
	-----------------------------------------------------------

  Dipole Moment: [D]
     X:     0.9403      Y:    -4.0685      Z:     1.0000     Total:     4.2938

*** Psi4 exiting successfully. Buy a developer a beer!
