                               Psi4 1.4a3.dev225

  ==> Input File <==

--------------------------------------------------------------------------
#psi4
#
memory 32 gb

molecule  {
0 1
  O       -0.4387840     2.7607480     0.8353900
  O       -2.1331470    -1.1223190    -0.8372800
  N       -1.8213880     1.6463300    -0.5966440
  N       -1.3631050    -2.2953590     0.9499780
  C        0.4086841     0.5511012    -0.0399581
  C        0.1273570    -0.7062790    -0.0589400
  C        1.6757520     1.1521170    -0.0434370
  C        1.2227880    -1.5827320    -0.1454420
  C        2.7536970     0.2775120    -0.1531960
  C        2.5274700    -1.0985820    -0.2079210
  C       -0.6853200     1.7746360     0.1326930
  C       -1.2296110    -1.3487220    -0.0223170
  H        1.8350890     2.2234210     0.0367700
  H        1.0390000    -2.6541090    -0.1799310
  H        3.7675570     0.6687350    -0.1864300
  H        3.3600860    -1.7923230    -0.2949860
  H       -2.0668670     0.7647910    -1.0387640
  H       -2.5394600     2.3415160    -0.4355780
  H       -0.7232160    -2.3232030     1.7312060
  H       -2.2766340    -2.7186030     1.0611610
units angstrom
no_reorient  #important for SAPT in psi4, default
symmetry c1  #important for SAPT in psi4, default
}

set PROPERTIES_ORIGIN ["COM"]
properties('MP2/aug-cc-pvtz', properties = ['dipole'])
--------------------------------------------------------------------------

    Molecular point group: c1
  Charge       = 0
  Multiplicity = 1
  Basis Set: AUG-CC-PVTZ
    Blend: AUG-CC-PVTZ
  Basis Set: (AUG-CC-PVTZ AUX)
    Blend: AUG-CC-PVTZ-JKFIT

    Orbital Energies [Eh]
    ---------------------

    Doubly Occupied:

       1A    -20.548775     2A    -20.518221     3A    -15.610622
       4A    -15.571667     5A    -11.388934     6A    -11.362214
       7A    -11.268077     8A    -11.264627     9A    -11.263258
      10A    -11.258105    11A    -11.256128    12A    -11.253310
      13A     -1.403131    14A     -1.367037    15A     -1.239083
      16A     -1.203354    17A     -1.186891    18A     -1.065549
      19A     -1.038629    20A     -0.899335    21A     -0.864101
      22A     -0.831993    23A     -0.784749    24A     -0.766141
      25A     -0.721935    26A     -0.703013    27A     -0.680547
      28A     -0.669131    29A     -0.643858    30A     -0.631650
      31A     -0.613102    32A     -0.586471    33A     -0.585977
      34A     -0.563013    35A     -0.539026    36A     -0.527980
      37A     -0.519080    38A     -0.457489    39A     -0.442054
      40A     -0.414367    41A     -0.402906    42A     -0.375758
      43A     -0.351915

  @DF-RHF Final Energy:  -566.44802048273891

   => Energetics <=

    Nuclear Repulsion Energy =            670.5954858917509682
    One-Electron Energy =               -2102.8006081399234972
    Two-Electron Energy =                 865.7571017654336174
    Total Energy =                       -566.4480204827389116
  Basis Set: (AUG-CC-PVTZ AUX)
    Blend: AUG-CC-PVTZ-RI
    Molecular point group: c1

    Geometry (in Angstrom), charge = 0, multiplicity = 1:

       Center              X                  Y                   Z               Mass
    ------------   -----------------  -----------------  -----------------  -----------------
         O           -0.428382822391     2.749595503903     0.840545543820    15.994914619570
         O           -2.122745822391    -1.133471496097    -0.832124456180    15.994914619570
         N           -1.810986822391     1.635177503903    -0.591488456180    14.003074004430
         N           -1.352703822391    -2.306511496097     0.955133543820    14.003074004430
         C            0.419085277609     0.539948703903    -0.034802556180    12.000000000000
         C            0.137758177609    -0.717431496097    -0.053784456180    12.000000000000
         C            1.686153177609     1.140964503903    -0.038281456180    12.000000000000
         C            1.233189177609    -1.593884496097    -0.140286456180    12.000000000000
         C            2.764098177609     0.266359503903    -0.148040456180    12.000000000000
         C            2.537871177609    -1.109734496097    -0.202765456180    12.000000000000
         C           -0.674918822391     1.763483503903     0.137848543820    12.000000000000
         C           -1.219209822391    -1.359874496097    -0.017161456180    12.000000000000
         H            1.845490177609     2.212268503903     0.041925543820     1.007825032230
         H            1.049401177609    -2.665261496097    -0.174775456180     1.007825032230
         H            3.777958177609     0.657582503903    -0.181274456180     1.007825032230
         H            3.370487177609    -1.803475496097    -0.289830456180     1.007825032230
         H           -2.056465822391     0.753638503903    -1.033608456180     1.007825032230
         H           -2.529058822391     2.330363503903    -0.430422456180     1.007825032230
         H           -0.712814822391    -2.334355496097     1.736361543820     1.007825032230
         H           -2.266232822391    -2.729755496097     1.066316543820     1.007825032230

  Basis Set: AUG-CC-PVTZ
    Blend: AUG-CC-PVTZ
  Basis Set: (AUG-CC-PVTZ AUX)
    Blend: AUG-CC-PVTZ-JKFIT
	 Reference Energy          =    -566.4480204827389116 [Eh]
	 Singles Energy            =      -0.0000000000000000 [Eh]
	 Same-Spin Energy          =      -0.5966002311883238 [Eh]
	 Opposite-Spin Energy      =      -1.7898512269819262 [Eh]
	 Correlation Energy        =      -2.3864514581702503 [Eh]
	 Total Energy              =    -568.8344719409091113 [Eh]

	 ================> DF-SCS-MP2 Energies <==================
	-----------------------------------------------------------
	 SCS Same-Spin Scale       =       0.3333333333333333 [-]
	 SCS Opposite-Spin Scale   =       1.2000000000000000 [-]
	 SCS Same-Spin Energy      =      -0.1988667437294413 [Eh]
	 SCS Opposite-Spin Energy  =      -2.1478214723783116 [Eh]
	 SCS Correlation Energy    =      -2.3466882161077529 [Eh]
	 SCS Total Energy          =    -568.7947086988466481 [Eh]
	-----------------------------------------------------------

  Dipole Moment: [D]
     X:     0.7794      Y:    -3.9341      Z:     1.0548     Total:     4.1469

*** Psi4 exiting successfully. Buy a developer a beer!
