                               Psi4 1.4a3.dev225

  ==> Input File <==

--------------------------------------------------------------------------
#psi4
#
memory 32 gb

molecule  {
0 1
  O       -0.4387840     2.7607480     0.8353900
  O       -2.1331470    -1.1223190    -0.8372800
  N       -1.8213880     1.6463300    -0.5966440
  N       -1.3631050    -2.2953590     0.9499780
  C        0.3530890     0.6863100    -0.0267190
  C        0.1273570    -0.7062790    -0.0589400
  C        1.6757520     1.1521170    -0.0434370
  C        1.2227880    -1.5827320    -0.1454420
  C        2.7536970     0.2775120    -0.1531960
  C        2.5274700    -1.0985820    -0.2079210
  C       -0.6853200     1.7746360     0.1326930
  C       -1.1931092    -1.3578684     0.0106066
  H        1.8350890     2.2234210     0.0367700
  H        1.0390000    -2.6541090    -0.1799310
  H        3.7675570     0.6687350    -0.1864300
  H        3.3600860    -1.7923230    -0.2949860
  H       -2.0668670     0.7647910    -1.0387640
  H       -2.5394600     2.3415160    -0.4355780
  H       -0.7232160    -2.3232030     1.7312060
  H       -2.2766340    -2.7186030     1.0611610
units angstrom
no_reorient  #important for SAPT in psi4, default
symmetry c1  #important for SAPT in psi4, default
}

set PROPERTIES_ORIGIN ["COM"]
properties('MP2/aug-cc-pvtz', properties = ['dipole'])
--------------------------------------------------------------------------

    Molecular point group: c1
  Charge       = 0
  Multiplicity = 1
  Basis Set: AUG-CC-PVTZ
    Blend: AUG-CC-PVTZ
  Basis Set: (AUG-CC-PVTZ AUX)
    Blend: AUG-CC-PVTZ-JKFIT

    Orbital Energies [Eh]
    ---------------------

    Doubly Occupied:

       1A    -20.536973     2A    -20.514699     3A    -15.616652
       4A    -15.569655     5A    -11.386814     6A    -11.357035
       7A    -11.281466     8A    -11.275512     9A    -11.267631
      10A    -11.263394    11A    -11.260272    12A    -11.257034
      13A     -1.375036    14A     -1.368042    15A     -1.241928
      16A     -1.201861    17A     -1.177414    18A     -1.059586
      19A     -1.048831    20A     -0.914125    21A     -0.870707
      22A     -0.826698    23A     -0.789389    24A     -0.765551
      25A     -0.726511    26A     -0.707093    27A     -0.685506
      28A     -0.661002    29A     -0.645581    30A     -0.626954
      31A     -0.606831    32A     -0.588629    33A     -0.577270
      34A     -0.564504    35A     -0.536584    36A     -0.524969
      37A     -0.518320    38A     -0.450888    39A     -0.437170
      40A     -0.428048    41A     -0.400168    42A     -0.363953
      43A     -0.357683

  @DF-RHF Final Energy:  -566.46406592484493

   => Energetics <=

    Nuclear Repulsion Energy =            669.8040245732879612
    One-Electron Energy =               -2101.2682448001219200
    Two-Electron Energy =                 865.0001543019890278
    Total Energy =                       -566.4640659248449310
  Basis Set: (AUG-CC-PVTZ AUX)
    Blend: AUG-CC-PVTZ-RI
    Molecular point group: c1

    Geometry (in Angstrom), charge = 0, multiplicity = 1:

       Center              X                  Y                   Z               Mass
    ------------   -----------------  -----------------  -----------------  -----------------
         O           -0.426986250487     2.740374719333     0.837168991320    15.994914619570
         O           -2.121349250487    -1.142692280667    -0.835501008680    15.994914619570
         N           -1.809590250487     1.625956719333    -0.594865008680    14.003074004430
         N           -1.351307250487    -2.315732280667     0.951756991320    14.003074004430
         C            0.364886749513     0.665936719333    -0.024940008680    12.000000000000
         C            0.139154749513    -0.726652280667    -0.057161008680    12.000000000000
         C            1.687549749513     1.131743719333    -0.041658008680    12.000000000000
         C            1.234585749513    -1.603105280667    -0.143663008680    12.000000000000
         C            2.765494749513     0.257138719333    -0.151417008680    12.000000000000
         C            2.539267749513    -1.118955280667    -0.206142008680    12.000000000000
         C           -0.673522250487     1.754262719333     0.134471991320    12.000000000000
         C           -1.181311450487    -1.378241680667     0.012385591320    12.000000000000
         H            1.846886749513     2.203047719333     0.038548991320     1.007825032230
         H            1.050797749513    -2.674482280667    -0.178152008680     1.007825032230
         H            3.779354749513     0.648361719333    -0.184651008680     1.007825032230
         H            3.371883749513    -1.812696280667    -0.293207008680     1.007825032230
         H           -2.055069250487     0.744417719333    -1.036985008680     1.007825032230
         H           -2.527662250487     2.321142719333    -0.433799008680     1.007825032230
         H           -0.711418250487    -2.343576280667     1.732984991320     1.007825032230
         H           -2.264836250487    -2.738976280667     1.062939991320     1.007825032230

  Basis Set: AUG-CC-PVTZ
    Blend: AUG-CC-PVTZ
  Basis Set: (AUG-CC-PVTZ AUX)
    Blend: AUG-CC-PVTZ-JKFIT
	 Reference Energy          =    -566.4640659248449310 [Eh]
	 Singles Energy            =      -0.0000000000000000 [Eh]
	 Same-Spin Energy          =      -0.5980355229285613 [Eh]
	 Opposite-Spin Energy      =      -1.7919278530177321 [Eh]
	 Correlation Energy        =      -2.3899633759462935 [Eh]
	 Total Energy              =    -568.8540293007912396 [Eh]

	 ================> DF-SCS-MP2 Energies <==================
	-----------------------------------------------------------
	 SCS Same-Spin Scale       =       0.3333333333333333 [-]
	 SCS Opposite-Spin Scale   =       1.2000000000000000 [-]
	 SCS Same-Spin Energy      =      -0.1993451743095204 [Eh]
	 SCS Opposite-Spin Energy  =      -2.1503134236212782 [Eh]
	 SCS Correlation Energy    =      -2.3496585979307985 [Eh]
	 SCS Total Energy          =    -568.8137245227757148 [Eh]
	-----------------------------------------------------------

  Dipole Moment: [D]
     X:     1.1415      Y:    -4.1614      Z:     1.2656     Total:     4.4969

*** Psi4 exiting successfully. Buy a developer a beer!
