                               Psi4 1.4a3.dev225

  ==> Input File <==

--------------------------------------------------------------------------
#psi4
#
memory 32 gb

molecule  {
0 1
  O       -0.4387840     2.7607480     0.8353900
  O       -2.1331470    -1.1223190    -0.8372800
  N       -1.8213880     1.6463300    -0.5966440
  N       -1.3631050    -2.2953590     0.9499780
  C        0.3530890     0.6863100    -0.0267190
  C        0.1273570    -0.7062790    -0.0589400
  C        1.6757520     1.1521170    -0.0434370
  C        1.2227880    -1.5827320    -0.1454420
  C        2.7536970     0.2775120    -0.1531960
  C        2.5274700    -1.0985820    -0.2079210
  C       -0.6853200     1.7746360     0.1326930
  C       -1.2296110    -1.3487220    -0.0223170
  H        1.8350890     2.2234210     0.0367700
  H        1.0390000    -2.6541090    -0.1799310
  H        3.7675570     0.6687350    -0.1864300
  H        3.3600860    -1.7923230    -0.2949860
  H       -2.0668670     0.7647910    -1.0387640
  H       -2.5394600     2.3415160    -0.4355780
  H       -0.7232160    -2.3232030     1.7312060
  H       -2.1864474    -2.6768190     1.0501847
units angstrom
no_reorient  #important for SAPT in psi4, default
symmetry c1  #important for SAPT in psi4, default
}

set PROPERTIES_ORIGIN ["COM"]
properties('MP2/aug-cc-pvtz', properties = ['dipole'])
--------------------------------------------------------------------------

    Molecular point group: c1
  Charge       = 0
  Multiplicity = 1
  Basis Set: AUG-CC-PVTZ
    Blend: AUG-CC-PVTZ
  Basis Set: (AUG-CC-PVTZ AUX)
    Blend: AUG-CC-PVTZ-JKFIT

    Orbital Energies [Eh]
    ---------------------

    Doubly Occupied:

       1A    -20.548370     2A    -20.515610     3A    -15.599803
       4A    -15.572180     5A    -11.387103     6A    -11.357850
       7A    -11.280663     8A    -11.273556     9A    -11.265932
      10A    -11.262385    11A    -11.258722    12A    -11.255919
      13A     -1.403735    14A     -1.369871    15A     -1.250383
      16A     -1.203950    17A     -1.176238    18A     -1.057067
      19A     -1.047422    20A     -0.913729    21A     -0.870352
      22A     -0.827770    23A     -0.788303    24A     -0.770264
      25A     -0.733600    26A     -0.709571    27A     -0.686913
      28A     -0.660792    29A     -0.650217    30A     -0.633105
      31A     -0.612330    32A     -0.593384    33A     -0.582570
      34A     -0.566876    35A     -0.539375    36A     -0.523576
      37A     -0.517777    38A     -0.456814    39A     -0.443072
      40A     -0.429481    41A     -0.402874    42A     -0.363284
      43A     -0.356641

  @DF-RHF Final Energy:  -566.46509304665972

   => Energetics <=

    Nuclear Repulsion Energy =            670.4380850924459310
    One-Electron Energy =               -2102.3675001407532363
    Two-Electron Energy =                 865.4643220016477017
    Total Energy =                       -566.4650930466597174
  Basis Set: (AUG-CC-PVTZ AUX)
    Blend: AUG-CC-PVTZ-RI
    Molecular point group: c1

    Geometry (in Angstrom), charge = 0, multiplicity = 1:

       Center              X                  Y                   Z               Mass
    ------------   -----------------  -----------------  -----------------  -----------------
         O           -0.424870364245     2.739449027038     0.839644603361    15.994914619570
         O           -2.119233364245    -1.143617972962    -0.833025396639    15.994914619570
         N           -1.807474364245     1.625031027038    -0.592389396639    14.003074004430
         N           -1.349191364245    -2.316657972962     0.954232603361    14.003074004430
         C            0.367002635755     0.665011027038    -0.022464396639    12.000000000000
         C            0.141270635755    -0.727577972962    -0.054685396639    12.000000000000
         C            1.689665635755     1.130818027038    -0.039182396639    12.000000000000
         C            1.236701635755    -1.604030972962    -0.141187396639    12.000000000000
         C            2.767610635755     0.256213027038    -0.148941396639    12.000000000000
         C            2.541383635755    -1.119880972962    -0.203666396639    12.000000000000
         C           -0.671406364245     1.753337027038     0.136947603361    12.000000000000
         C           -1.215697364245    -1.370020972962    -0.018062396639    12.000000000000
         H            1.849002635755     2.202122027038     0.041024603361     1.007825032230
         H            1.052913635755    -2.675407972962    -0.175676396639     1.007825032230
         H            3.781470635755     0.647436027038    -0.182175396639     1.007825032230
         H            3.373999635755    -1.813621972962    -0.290731396639     1.007825032230
         H           -2.052953364245     0.743492027038    -1.034509396639     1.007825032230
         H           -2.525546364245     2.320217027038    -0.431323396639     1.007825032230
         H           -0.709302364245    -2.344501972962     1.735460603361     1.007825032230
         H           -2.172533764245    -2.698117972962     1.054439303361     1.007825032230

  Basis Set: AUG-CC-PVTZ
    Blend: AUG-CC-PVTZ
  Basis Set: (AUG-CC-PVTZ AUX)
    Blend: AUG-CC-PVTZ-JKFIT
	 Reference Energy          =    -566.4650930466597174 [Eh]
	 Singles Energy            =      -0.0000000000000000 [Eh]
	 Same-Spin Energy          =      -0.5961835754303448 [Eh]
	 Opposite-Spin Energy      =      -1.7882562632646060 [Eh]
	 Correlation Energy        =      -2.3844398386949508 [Eh]
	 Total Energy              =    -568.8495328853546198 [Eh]

	 ================> DF-SCS-MP2 Energies <==================
	-----------------------------------------------------------
	 SCS Same-Spin Scale       =       0.3333333333333333 [-]
	 SCS Opposite-Spin Scale   =       1.2000000000000000 [-]
	 SCS Same-Spin Energy      =      -0.1987278584767816 [Eh]
	 SCS Opposite-Spin Energy  =      -2.1459075159175272 [Eh]
	 SCS Correlation Energy    =      -2.3446353743943087 [Eh]
	 SCS Total Energy          =    -568.8097284210540465 [Eh]
	-----------------------------------------------------------

  Dipole Moment: [D]
     X:     1.0210      Y:    -3.9705      Z:     0.9930     Total:     4.2182

*** Psi4 exiting successfully. Buy a developer a beer!
