                               Psi4 1.4a3.dev225

  ==> Input File <==

--------------------------------------------------------------------------
#psi4
#
memory 32 gb

molecule  {
0 1
  O       -0.4387840     2.7607480     0.8353900
  O       -2.1331470    -1.1223190    -0.8372800
  N       -1.8213880     1.6463300    -0.5966440
  N       -1.3631050    -2.2953590     0.9499780
  C        0.3530890     0.6863100    -0.0267190
  C        0.1273570    -0.7062790    -0.0589400
  C        1.6757520     1.1521170    -0.0434370
  C        1.2227880    -1.5827320    -0.1454420
  C        2.7536970     0.2775120    -0.1531960
  C        2.5274700    -1.0985820    -0.2079210
  C       -0.6853200     1.7746360     0.1326930
  C       -1.2296110    -1.3487220    -0.0223170
  H        1.8350890     2.2234210     0.0367700
  H        1.0390000    -2.6541090    -0.1799310
  H        3.7675570     0.6687350    -0.1864300
  H        3.3983761    -1.8242266    -0.2989899
  H       -2.0668670     0.7647910    -1.0387640
  H       -2.5394600     2.3415160    -0.4355780
  H       -0.7232160    -2.3232030     1.7312060
  H       -2.2766340    -2.7186030     1.0611610
units angstrom
no_reorient  #important for SAPT in psi4, default
symmetry c1  #important for SAPT in psi4, default
}

set PROPERTIES_ORIGIN ["COM"]
properties('MP2/aug-cc-pvtz', properties = ['dipole'])
--------------------------------------------------------------------------

    Molecular point group: c1
  Charge       = 0
  Multiplicity = 1
  Basis Set: AUG-CC-PVTZ
    Blend: AUG-CC-PVTZ
  Basis Set: (AUG-CC-PVTZ AUX)
    Blend: AUG-CC-PVTZ-JKFIT

    Orbital Energies [Eh]
    ---------------------

    Doubly Occupied:

       1A    -20.547246     2A    -20.515439     3A    -15.609108
       4A    -15.571948     5A    -11.386472     6A    -11.357680
       7A    -11.280871     8A    -11.273438     9A    -11.267929
      10A    -11.265710    11A    -11.258940    12A    -11.255985
      13A     -1.401632    14A     -1.369686    15A     -1.237020
      16A     -1.203719    17A     -1.174998    18A     -1.054845
      19A     -1.046279    20A     -0.907959    21A     -0.867730
      22A     -0.822475    23A     -0.786697    24A     -0.762832
      25A     -0.724100    26A     -0.700866    27A     -0.686532
      28A     -0.658737    29A     -0.646522    30A     -0.631961
      31A     -0.611145    32A     -0.591483    33A     -0.580576
      34A     -0.566097    35A     -0.537505    36A     -0.521824
      37A     -0.517479    38A     -0.455892    39A     -0.441096
      40A     -0.429133    41A     -0.402614    42A     -0.363148
      43A     -0.356553

  @DF-RHF Final Energy:  -566.46935540723621

   => Energetics <=

    Nuclear Repulsion Energy =            669.5411656516247376
    One-Electron Energy =               -2100.7212428970829023
    Two-Electron Energy =                 864.7107218382218434
    Total Energy =                       -566.4693554072362076
  Basis Set: (AUG-CC-PVTZ AUX)
    Blend: AUG-CC-PVTZ-RI
    Molecular point group: c1

    Geometry (in Angstrom), charge = 0, multiplicity = 1:

       Center              X                  Y                   Z               Mass
    ------------   -----------------  -----------------  -----------------  -----------------
         O           -0.424551559873     2.739901695889     0.839601771347    15.994914619570
         O           -2.118914559873    -1.143165304111    -0.833068228653    15.994914619570
         N           -1.807155559873     1.625483695889    -0.592432228653    14.003074004430
         N           -1.348872559873    -2.316205304111     0.954189771347    14.003074004430
         C            0.367321440127     0.665463695889    -0.022507228653    12.000000000000
         C            0.141589440127    -0.727125304111    -0.054728228653    12.000000000000
         C            1.689984440127     1.131270695889    -0.039225228653    12.000000000000
         C            1.237020440127    -1.603578304111    -0.141230228653    12.000000000000
         C            2.767929440127     0.256665695889    -0.148984228653    12.000000000000
         C            2.541702440127    -1.119428304111    -0.203709228653    12.000000000000
         C           -0.671087559873     1.753789695889     0.136904771347    12.000000000000
         C           -1.215378559873    -1.369568304111    -0.018105228653    12.000000000000
         H            1.849321440127     2.202574695889     0.040981771347     1.007825032230
         H            1.053232440127    -2.674955304111    -0.175719228653     1.007825032230
         H            3.781789440127     0.647888695889    -0.182218228653     1.007825032230
         H            3.412608540127    -1.845072904111    -0.294778128653     1.007825032230
         H           -2.052634559873     0.743944695889    -1.034552228653     1.007825032230
         H           -2.525227559873     2.320669695889    -0.431366228653     1.007825032230
         H           -0.708983559873    -2.344049304111     1.735417771347     1.007825032230
         H           -2.262401559873    -2.739449304111     1.065372771347     1.007825032230

  Basis Set: AUG-CC-PVTZ
    Blend: AUG-CC-PVTZ
  Basis Set: (AUG-CC-PVTZ AUX)
    Blend: AUG-CC-PVTZ-JKFIT
	 Reference Energy          =    -566.4693554072362076 [Eh]
	 Singles Energy            =      -0.0000000000000000 [Eh]
	 Same-Spin Energy          =      -0.5969201459307476 [Eh]
	 Opposite-Spin Energy      =      -1.7901345325505587 [Eh]
	 Correlation Energy        =      -2.3870546784813063 [Eh]
	 Total Energy              =    -568.8564100857174708 [Eh]

	 ================> DF-SCS-MP2 Energies <==================
	-----------------------------------------------------------
	 SCS Same-Spin Scale       =       0.3333333333333333 [-]
	 SCS Opposite-Spin Scale   =       1.2000000000000000 [-]
	 SCS Same-Spin Energy      =      -0.1989733819769159 [Eh]
	 SCS Opposite-Spin Energy  =      -2.1481614390606705 [Eh]
	 SCS Correlation Energy    =      -2.3471348210375864 [Eh]
	 SCS Total Energy          =    -568.8164902282737785 [Eh]
	-----------------------------------------------------------

  Dipole Moment: [D]
     X:     0.9140      Y:    -4.0206      Z:     1.0156     Total:     4.2465

*** Psi4 exiting successfully. Buy a developer a beer!
