                               Psi4 1.4a3.dev225

  ==> Input File <==

--------------------------------------------------------------------------
#psi4
#
memory 32 gb

molecule  {
0 1
  O       -0.4387840     2.7607480     0.8353900
  O       -2.1331470    -1.1223190    -0.8372800
  N       -1.8213880     1.6463300    -0.5966440
  N       -1.3631050    -2.2953590     0.9499780
  C        0.3530890     0.6863100    -0.0267190
  C        0.1353553    -0.6569361    -0.0577983
  C        1.6757520     1.1521170    -0.0434370
  C        1.2227880    -1.5827320    -0.1454420
  C        2.7536970     0.2775120    -0.1531960
  C        2.5274700    -1.0985820    -0.2079210
  C       -0.6853200     1.7746360     0.1326930
  C       -1.2296110    -1.3487220    -0.0223170
  H        1.8350890     2.2234210     0.0367700
  H        1.0390000    -2.6541090    -0.1799310
  H        3.7675570     0.6687350    -0.1864300
  H        3.3600860    -1.7923230    -0.2949860
  H       -2.0668670     0.7647910    -1.0387640
  H       -2.5394600     2.3415160    -0.4355780
  H       -0.7232160    -2.3232030     1.7312060
  H       -2.2766340    -2.7186030     1.0611610
units angstrom
no_reorient  #important for SAPT in psi4, default
symmetry c1  #important for SAPT in psi4, default
}

set PROPERTIES_ORIGIN ["COM"]
properties('MP2/aug-cc-pvtz', properties = ['dipole'])
--------------------------------------------------------------------------

    Molecular point group: c1
  Charge       = 0
  Multiplicity = 1
  Basis Set: AUG-CC-PVTZ
    Blend: AUG-CC-PVTZ
  Basis Set: (AUG-CC-PVTZ AUX)
    Blend: AUG-CC-PVTZ-JKFIT

    Orbital Energies [Eh]
    ---------------------

    Doubly Occupied:

       1A    -20.546895     2A    -20.515861     3A    -15.609604
       4A    -15.572234     5A    -11.387697     6A    -11.357809
       7A    -11.280144     8A    -11.267981     9A    -11.266473
      10A    -11.261712    11A    -11.257066    12A    -11.255196
      13A     -1.400864    14A     -1.370095    15A     -1.236115
      16A     -1.204577    17A     -1.177122    18A     -1.058514
      19A     -1.042810    20A     -0.903667    21A     -0.868002
      22A     -0.828083    23A     -0.786954    24A     -0.763519
      25A     -0.723891    26A     -0.701209    27A     -0.684593
      28A     -0.664639    29A     -0.648423    30A     -0.631832
      31A     -0.607604    32A     -0.592557    33A     -0.581916
      34A     -0.566514    35A     -0.537394    36A     -0.526763
      37A     -0.518188    38A     -0.452899    39A     -0.441015
      40A     -0.428606    41A     -0.402897    42A     -0.367519
      43A     -0.353411

  @DF-RHF Final Energy:  -566.46968701661069

   => Energetics <=

    Nuclear Repulsion Energy =            670.0709372002893360
    One-Electron Energy =               -2101.7795203310874967
    Two-Electron Energy =                 865.2388961141874688
    Total Energy =                       -566.4696870166106919
  Basis Set: (AUG-CC-PVTZ AUX)
    Blend: AUG-CC-PVTZ-RI
    Molecular point group: c1

    Geometry (in Angstrom), charge = 0, multiplicity = 1:

       Center              X                  Y                   Z               Mass
    ------------   -----------------  -----------------  -----------------  -----------------
         O           -0.424901373212     2.736096542534     0.839493665871    15.994914619570
         O           -2.119264373212    -1.146970457466    -0.833176334129    15.994914619570
         N           -1.807505373212     1.621678542534    -0.592540334129    14.003074004430
         N           -1.349222373212    -2.320010457466     0.954081665871    14.003074004430
         C            0.366971626788     0.661658542534    -0.022615334129    12.000000000000
         C            0.149237926788    -0.681587557466    -0.053694634129    12.000000000000
         C            1.689634626788     1.127465542534    -0.039333334129    12.000000000000
         C            1.236670626788    -1.607383457466    -0.141338334129    12.000000000000
         C            2.767579626788     0.252860542534    -0.149092334129    12.000000000000
         C            2.541352626788    -1.123233457466    -0.203817334129    12.000000000000
         C           -0.671437373212     1.749984542534     0.136796665871    12.000000000000
         C           -1.215728373212    -1.373373457466    -0.018213334129    12.000000000000
         H            1.848971626788     2.198769542534     0.040873665871     1.007825032230
         H            1.052882626788    -2.678760457466    -0.175827334129     1.007825032230
         H            3.781439626788     0.644083542534    -0.182326334129     1.007825032230
         H            3.373968626788    -1.816974457466    -0.290882334129     1.007825032230
         H           -2.052984373212     0.740139542534    -1.034660334129     1.007825032230
         H           -2.525577373212     2.316864542534    -0.431474334129     1.007825032230
         H           -0.709333373212    -2.347854457466     1.735309665871     1.007825032230
         H           -2.262751373212    -2.743254457466     1.065264665871     1.007825032230

  Basis Set: AUG-CC-PVTZ
    Blend: AUG-CC-PVTZ
  Basis Set: (AUG-CC-PVTZ AUX)
    Blend: AUG-CC-PVTZ-JKFIT
	 Reference Energy          =    -566.4696870166106919 [Eh]
	 Singles Energy            =      -0.0000000000000000 [Eh]
	 Same-Spin Energy          =      -0.5964529510757547 [Eh]
	 Opposite-Spin Energy      =      -1.7893549975649754 [Eh]
	 Correlation Energy        =      -2.3858079486407302 [Eh]
	 Total Energy              =    -568.8554949652514097 [Eh]

	 ================> DF-SCS-MP2 Energies <==================
	-----------------------------------------------------------
	 SCS Same-Spin Scale       =       0.3333333333333333 [-]
	 SCS Opposite-Spin Scale   =       1.2000000000000000 [-]
	 SCS Same-Spin Energy      =      -0.1988176503585849 [Eh]
	 SCS Opposite-Spin Energy  =      -2.1472259970779706 [Eh]
	 SCS Correlation Energy    =      -2.3460436474365554 [Eh]
	 SCS Total Energy          =    -568.8157306640472370 [Eh]
	-----------------------------------------------------------

  Dipole Moment: [D]
     X:     0.8855      Y:    -4.0332      Z:     1.0210     Total:     4.2536

*** Psi4 exiting successfully. Buy a developer a beer!
