                               Psi4 1.4a3.dev225

  ==> Input File <==

--------------------------------------------------------------------------
#psi4
#
memory 32 gb

molecule  {
0 1
  O       -0.5526403     2.8083422     0.7966415
  O       -2.1331470    -1.1223190    -0.8372800
  N       -1.8213880     1.6463300    -0.5966440
  N       -1.3631050    -2.2953590     0.9499780
  C        0.3530890     0.6863100    -0.0267190
  C        0.1273570    -0.7062790    -0.0589400
  C        1.6757520     1.1521170    -0.0434370
  C        1.2227880    -1.5827320    -0.1454420
  C        2.7536970     0.2775120    -0.1531960
  C        2.5274700    -1.0985820    -0.2079210
  C       -0.6853200     1.7746360     0.1326930
  C       -1.2296110    -1.3487220    -0.0223170
  H        1.8350890     2.2234210     0.0367700
  H        1.0390000    -2.6541090    -0.1799310
  H        3.7675570     0.6687350    -0.1864300
  H        3.3600860    -1.7923230    -0.2949860
  H       -2.0668670     0.7647910    -1.0387640
  H       -2.5394600     2.3415160    -0.4355780
  H       -0.7232160    -2.3232030     1.7312060
  H       -2.2766340    -2.7186030     1.0611610
units angstrom
no_reorient  #important for SAPT in psi4, default
symmetry c1  #important for SAPT in psi4, default
}

set PROPERTIES_ORIGIN ["COM"]
properties('MP2/aug-cc-pvtz', properties = ['dipole'])
--------------------------------------------------------------------------

    Molecular point group: c1
  Charge       = 0
  Multiplicity = 1
  Basis Set: AUG-CC-PVTZ
    Blend: AUG-CC-PVTZ
  Basis Set: (AUG-CC-PVTZ AUX)
    Blend: AUG-CC-PVTZ-JKFIT

    Orbital Energies [Eh]
    ---------------------

    Doubly Occupied:

       1A    -20.547404     2A    -20.512031     3A    -15.609714
       4A    -15.564025     5A    -11.387118     6A    -11.355718
       7A    -11.284296     8A    -11.278097     9A    -11.268434
      10A    -11.265293    11A    -11.261467    12A    -11.259599
      13A     -1.401779    14A     -1.369078    15A     -1.237660
      16A     -1.195808    17A     -1.176551    18A     -1.058271
      19A     -1.050511    20A     -0.911017    21A     -0.871068
      22A     -0.824448    23A     -0.787096    24A     -0.763343
      25A     -0.722772    26A     -0.703409    27A     -0.685321
      28A     -0.661412    29A     -0.648936    30A     -0.631437
      31A     -0.612718    32A     -0.593107    33A     -0.581309
      34A     -0.565777    35A     -0.540833    36A     -0.526340
      37A     -0.519664    38A     -0.456288    39A     -0.441079
      40A     -0.426725    41A     -0.395515    42A     -0.365783
      43A     -0.360671

  @DF-RHF Final Energy:  -566.46879577274865

   => Energetics <=

    Nuclear Repulsion Energy =            669.0832747809554348
    One-Electron Energy =               -2099.7462940155442084
    Two-Electron Energy =                 864.1942234618401244
    Total Energy =                       -566.4687957727486491
  Basis Set: (AUG-CC-PVTZ AUX)
    Blend: AUG-CC-PVTZ-RI
    Molecular point group: c1

    Geometry (in Angstrom), charge = 0, multiplicity = 1:

       Center              X                  Y                   Z               Mass
    ------------   -----------------  -----------------  -----------------  -----------------
         O           -0.527072204359     2.782659706132     0.804606465651    15.994914619570
         O           -2.107578904359    -1.148001493868    -0.829315034349    15.994914619570
         N           -1.795819904359     1.620647506132    -0.588679034349    14.003074004430
         N           -1.337536904359    -2.321041493868     0.957942965651    14.003074004430
         C            0.378657095641     0.660627506132    -0.018754034349    12.000000000000
         C            0.152925095641    -0.731961493868    -0.050975034349    12.000000000000
         C            1.701320095641     1.126434506132    -0.035472034349    12.000000000000
         C            1.248356095641    -1.608414493868    -0.137477034349    12.000000000000
         C            2.779265095641     0.251829506132    -0.145231034349    12.000000000000
         C            2.553038095641    -1.124264493868    -0.199956034349    12.000000000000
         C           -0.659751904359     1.748953506132     0.140657965651    12.000000000000
         C           -1.204042904359    -1.374404493868    -0.014352034349    12.000000000000
         H            1.860657095641     2.197738506132     0.044734965651     1.007825032230
         H            1.064568095641    -2.679791493868    -0.171966034349     1.007825032230
         H            3.793125095641     0.643052506132    -0.178465034349     1.007825032230
         H            3.385654095641    -1.818005493868    -0.287021034349     1.007825032230
         H           -2.041298904359     0.739108506132    -1.030799034349     1.007825032230
         H           -2.513891904359     2.315833506132    -0.427613034349     1.007825032230
         H           -0.697647904359    -2.348885493868     1.739170965651     1.007825032230
         H           -2.251065904359    -2.744285493868     1.069125965651     1.007825032230

  Basis Set: AUG-CC-PVTZ
    Blend: AUG-CC-PVTZ
  Basis Set: (AUG-CC-PVTZ AUX)
    Blend: AUG-CC-PVTZ-JKFIT
	 Reference Energy          =    -566.4687957727486491 [Eh]
	 Singles Energy            =      -0.0000000000000000 [Eh]
	 Same-Spin Energy          =      -0.5967804305066726 [Eh]
	 Opposite-Spin Energy      =      -1.7898504835008731 [Eh]
	 Correlation Energy        =      -2.3866309140075455 [Eh]
	 Total Energy              =    -568.8554266867562319 [Eh]

	 ================> DF-SCS-MP2 Energies <==================
	-----------------------------------------------------------
	 SCS Same-Spin Scale       =       0.3333333333333333 [-]
	 SCS Opposite-Spin Scale   =       1.2000000000000000 [-]
	 SCS Same-Spin Energy      =      -0.1989268101688909 [Eh]
	 SCS Opposite-Spin Energy  =      -2.1478205802010475 [Eh]
	 SCS Correlation Energy    =      -2.3467473903699383 [Eh]
	 SCS Total Energy          =    -568.8155431631186048 [Eh]
	-----------------------------------------------------------

  Dipole Moment: [D]
     X:     1.2905      Y:    -4.2781      Z:     1.0724     Total:     4.5954

*** Psi4 exiting successfully. Buy a developer a beer!
