                               Psi4 1.4a3.dev225

  ==> Input File <==

--------------------------------------------------------------------------
#psi4
#
memory 32 gb

molecule  {
0 1
  O       -0.4387840     2.7607480     0.8353900
  O       -2.1331470    -1.1223190    -0.8372800
  N       -1.8213880     1.6463300    -0.5966440
  N       -1.3631050    -2.2953590     0.9499780
  C        0.3530890     0.6863100    -0.0267190
  C        0.1193587    -0.7556219    -0.0600817
  C        1.6757520     1.1521170    -0.0434370
  C        1.2227880    -1.5827320    -0.1454420
  C        2.7536970     0.2775120    -0.1531960
  C        2.5274700    -1.0985820    -0.2079210
  C       -0.6853200     1.7746360     0.1326930
  C       -1.2296110    -1.3487220    -0.0223170
  H        1.8350890     2.2234210     0.0367700
  H        1.0390000    -2.6541090    -0.1799310
  H        3.7675570     0.6687350    -0.1864300
  H        3.3600860    -1.7923230    -0.2949860
  H       -2.0668670     0.7647910    -1.0387640
  H       -2.5394600     2.3415160    -0.4355780
  H       -0.7232160    -2.3232030     1.7312060
  H       -2.2766340    -2.7186030     1.0611610
units angstrom
no_reorient  #important for SAPT in psi4, default
symmetry c1  #important for SAPT in psi4, default
}

set PROPERTIES_ORIGIN ["COM"]
properties('MP2/aug-cc-pvtz', properties = ['dipole'])
--------------------------------------------------------------------------

    Molecular point group: c1
  Charge       = 0
  Multiplicity = 1
  Basis Set: AUG-CC-PVTZ
    Blend: AUG-CC-PVTZ
  Basis Set: (AUG-CC-PVTZ AUX)
    Blend: AUG-CC-PVTZ-JKFIT

    Orbital Energies [Eh]
    ---------------------

    Doubly Occupied:

       1A    -20.547317     2A    -20.514814     3A    -15.608396
       4A    -15.571464     5A    -11.384859     6A    -11.357297
       7A    -11.280559     8A    -11.277798     9A    -11.264712
      10A    -11.262382    11A    -11.259867    12A    -11.256061
      13A     -1.402126    14A     -1.369069    15A     -1.237856
      16A     -1.202808    17A     -1.173410    18A     -1.057073
      19A     -1.046241    20A     -0.912975    21A     -0.870686
      22A     -0.817007    23A     -0.788121    24A     -0.764134
      25A     -0.724483    26A     -0.704234    27A     -0.688395
      28A     -0.654503    29A     -0.649520    30A     -0.631825
      31A     -0.614208    32A     -0.593164    33A     -0.579940
      34A     -0.566551    35A     -0.540359    36A     -0.518372
      37A     -0.516454    38A     -0.458559    39A     -0.440961
      40A     -0.428845    41A     -0.402133    42A     -0.364417
      43A     -0.353968

  @DF-RHF Final Energy:  -566.46802400884974

   => Energetics <=

    Nuclear Repulsion Energy =            669.5678959122577680
    One-Electron Energy =               -2100.7559910888553532
    Two-Electron Energy =                 864.7200711677477329
    Total Energy =                       -566.4680240088497385
  Basis Set: (AUG-CC-PVTZ AUX)
    Blend: AUG-CC-PVTZ-RI
    Molecular point group: c1

    Geometry (in Angstrom), charge = 0, multiplicity = 1:

       Center              X                  Y                   Z               Mass
    ------------   -----------------  -----------------  -----------------  -----------------
         O           -0.423731308209     2.743314876485     0.839660684264    15.994914619570
         O           -2.118094308209    -1.139752123515    -0.833009315736    15.994914619570
         N           -1.806335308209     1.628896876485    -0.592373315736    14.003074004430
         N           -1.348052308209    -2.312792123515     0.954248684264    14.003074004430
         C            0.368141691791     0.668876876485    -0.022448315736    12.000000000000
         C            0.134411391791    -0.773055023515    -0.055811015736    12.000000000000
         C            1.690804691791     1.134683876485    -0.039166315736    12.000000000000
         C            1.237840691791    -1.600165123515    -0.141171315736    12.000000000000
         C            2.768749691791     0.260078876485    -0.148925315736    12.000000000000
         C            2.542522691791    -1.116015123515    -0.203650315736    12.000000000000
         C           -0.670267308209     1.757202876485     0.136963684264    12.000000000000
         C           -1.214558308209    -1.366155123515    -0.018046315736    12.000000000000
         H            1.850141691791     2.205987876485     0.041040684264     1.007825032230
         H            1.054052691791    -2.671542123515    -0.175660315736     1.007825032230
         H            3.782609691791     0.651301876485    -0.182159315736     1.007825032230
         H            3.375138691791    -1.809756123515    -0.290715315736     1.007825032230
         H           -2.051814308209     0.747357876485    -1.034493315736     1.007825032230
         H           -2.524407308209     2.324082876485    -0.431307315736     1.007825032230
         H           -0.708163308209    -2.340636123515     1.735476684264     1.007825032230
         H           -2.261581308209    -2.736036123515     1.065431684264     1.007825032230

  Basis Set: AUG-CC-PVTZ
    Blend: AUG-CC-PVTZ
  Basis Set: (AUG-CC-PVTZ AUX)
    Blend: AUG-CC-PVTZ-JKFIT
	 Reference Energy          =    -566.4680240088497385 [Eh]
	 Singles Energy            =      -0.0000000000000000 [Eh]
	 Same-Spin Energy          =      -0.5971326873329719 [Eh]
	 Opposite-Spin Energy      =      -1.7903507845549995 [Eh]
	 Correlation Energy        =      -2.3874834718879714 [Eh]
	 Total Energy              =    -568.8555074807377423 [Eh]

	 ================> DF-SCS-MP2 Energies <==================
	-----------------------------------------------------------
	 SCS Same-Spin Scale       =       0.3333333333333333 [-]
	 SCS Opposite-Spin Scale   =       1.2000000000000000 [-]
	 SCS Same-Spin Energy      =      -0.1990442291109906 [Eh]
	 SCS Opposite-Spin Energy  =      -2.1484209414659992 [Eh]
	 SCS Correlation Energy    =      -2.3474651705769896 [Eh]
	 SCS Total Energy          =    -568.8154891794267769 [Eh]
	-----------------------------------------------------------

  Dipole Moment: [D]
     X:     0.9710      Y:    -4.0272      Z:     1.0077     Total:     4.2634

*** Psi4 exiting successfully. Buy a developer a beer!
