                               Psi4 1.4a3.dev225

  ==> Input File <==

--------------------------------------------------------------------------
#psi4
#
memory 32 gb

molecule  {
0 1
  O       -0.4387840     2.7607480     0.8353900
  O       -2.1331470    -1.1223190    -0.8372800
  N       -1.8213880     1.6463300    -0.5966440
  N       -1.3631050    -2.2953590     0.9499780
  C        0.3530890     0.6863100    -0.0267190
  C        0.1273570    -0.7062790    -0.0589400
  C        1.6285945     1.1355094    -0.0428409
  C        1.2227880    -1.5827320    -0.1454420
  C        2.7536970     0.2775120    -0.1531960
  C        2.5274700    -1.0985820    -0.2079210
  C       -0.6853200     1.7746360     0.1326930
  C       -1.2296110    -1.3487220    -0.0223170
  H        1.8350890     2.2234210     0.0367700
  H        1.0390000    -2.6541090    -0.1799310
  H        3.7675570     0.6687350    -0.1864300
  H        3.3600860    -1.7923230    -0.2949860
  H       -2.0668670     0.7647910    -1.0387640
  H       -2.5394600     2.3415160    -0.4355780
  H       -0.7232160    -2.3232030     1.7312060
  H       -2.2766340    -2.7186030     1.0611610
units angstrom
no_reorient  #important for SAPT in psi4, default
symmetry c1  #important for SAPT in psi4, default
}

set PROPERTIES_ORIGIN ["COM"]
properties('MP2/aug-cc-pvtz', properties = ['dipole'])
--------------------------------------------------------------------------

    Molecular point group: c1
  Charge       = 0
  Multiplicity = 1
  Basis Set: AUG-CC-PVTZ
    Blend: AUG-CC-PVTZ
  Basis Set: (AUG-CC-PVTZ AUX)
    Blend: AUG-CC-PVTZ-JKFIT

    Orbital Energies [Eh]
    ---------------------

    Doubly Occupied:

       1A    -20.546752     2A    -20.514734     3A    -15.608738
       4A    -15.571598     5A    -11.385969     6A    -11.356970
       7A    -11.280235     8A    -11.267196     9A    -11.265908
      10A    -11.262180    11A    -11.260931    12A    -11.254536
      13A     -1.401217    14A     -1.369236    15A     -1.236645
      16A     -1.203643    17A     -1.177457    18A     -1.056304
      19A     -1.048372    20A     -0.907381    21A     -0.868397
      22A     -0.822200    23A     -0.788554    24A     -0.763743
      25A     -0.724797    26A     -0.701335    27A     -0.687161
      28A     -0.658911    29A     -0.647268    30A     -0.633712
      31A     -0.607543    32A     -0.593938    33A     -0.580798
      34A     -0.567221    35A     -0.542731    36A     -0.518695
      37A     -0.515267    38A     -0.456068    39A     -0.440705
      40A     -0.428797    41A     -0.402096    42A     -0.363859
      43A     -0.357357

  @DF-RHF Final Energy:  -566.46881405032002

   => Energetics <=

    Nuclear Repulsion Energy =            670.6386243111334124
    One-Electron Energy =               -2102.9205646947743844
    Two-Electron Energy =                 865.8131263333210654
    Total Energy =                       -566.4688140503200202
  Basis Set: (AUG-CC-PVTZ AUX)
    Blend: AUG-CC-PVTZ-RI
    Molecular point group: c1

    Geometry (in Angstrom), charge = 0, multiplicity = 1:

       Center              X                  Y                   Z               Mass
    ------------   -----------------  -----------------  -----------------  -----------------
         O           -0.420867023956     2.740920465867     0.839533573568    15.994914619570
         O           -2.115230023956    -1.142146534133    -0.833136426432    15.994914619570
         N           -1.803471023956     1.626502465867    -0.592500426432    14.003074004430
         N           -1.345188023956    -2.315186534133     0.954121573568    14.003074004430
         C            0.371005976044     0.666482465867    -0.022575426432    12.000000000000
         C            0.145273976044    -0.726106534133    -0.054796426432    12.000000000000
         C            1.646511476044     1.115681865867    -0.038697326432    12.000000000000
         C            1.240704976044    -1.602559534133    -0.141298426432    12.000000000000
         C            2.771613976044     0.257684465867    -0.149052426432    12.000000000000
         C            2.545386976044    -1.118409534133    -0.203777426432    12.000000000000
         C           -0.667403023956     1.754808465867     0.136836573568    12.000000000000
         C           -1.211694023956    -1.368549534133    -0.018173426432    12.000000000000
         H            1.853005976044     2.203593465867     0.040913573568     1.007825032230
         H            1.056916976044    -2.673936534133    -0.175787426432     1.007825032230
         H            3.785473976044     0.648907465867    -0.182286426432     1.007825032230
         H            3.378002976044    -1.812150534133    -0.290842426432     1.007825032230
         H           -2.048950023956     0.744963465867    -1.034620426432     1.007825032230
         H           -2.521543023956     2.321688465867    -0.431434426432     1.007825032230
         H           -0.705299023956    -2.343030534133     1.735349573568     1.007825032230
         H           -2.258717023956    -2.738430534133     1.065304573568     1.007825032230

  Basis Set: AUG-CC-PVTZ
    Blend: AUG-CC-PVTZ
  Basis Set: (AUG-CC-PVTZ AUX)
    Blend: AUG-CC-PVTZ-JKFIT
	 Reference Energy          =    -566.4688140503200202 [Eh]
	 Singles Energy            =      -0.0000000000000000 [Eh]
	 Same-Spin Energy          =      -0.5968247261025849 [Eh]
	 Opposite-Spin Energy      =      -1.7898262189359082 [Eh]
	 Correlation Energy        =      -2.3866509450384932 [Eh]
	 Total Energy              =    -568.8554649953584885 [Eh]

	 ================> DF-SCS-MP2 Energies <==================
	-----------------------------------------------------------
	 SCS Same-Spin Scale       =       0.3333333333333333 [-]
	 SCS Opposite-Spin Scale   =       1.2000000000000000 [-]
	 SCS Same-Spin Energy      =      -0.1989415753675283 [Eh]
	 SCS Opposite-Spin Energy  =      -2.1477914627230899 [Eh]
	 SCS Correlation Energy    =      -2.3467330380906182 [Eh]
	 SCS Total Energy          =    -568.8155470884106535 [Eh]
	-----------------------------------------------------------

  Dipole Moment: [D]
     X:     0.9502      Y:    -4.0348      Z:     1.0143     Total:     4.2675

*** Psi4 exiting successfully. Buy a developer a beer!
