                               Psi4 1.4a3.dev225

  ==> Input File <==

--------------------------------------------------------------------------
#psi4
#
memory 32 gb

molecule  {
0 1
  O       -0.4387840     2.7607480     0.8353900
  O       -2.1331470    -1.1223190    -0.8372800
  N       -1.8213880     1.6463300    -0.5966440
  N       -1.3631050    -2.2953590     0.9499780
  C        0.3530890     0.6863100    -0.0267190
  C        0.1273570    -0.7062790    -0.0589400
  C        1.6757520     1.1521170    -0.0434370
  C        1.2227880    -1.5827320    -0.1454420
  C        2.7536970     0.2775120    -0.1531960
  C        2.5274700    -1.0985820    -0.2079210
  C       -0.6853200     1.7746360     0.1326930
  C       -1.2296110    -1.3487220    -0.0223170
  H        1.8350890     2.2234210     0.0367700
  H        1.0390000    -2.6541090    -0.1799310
  H        3.7675570     0.6687350    -0.1864300
  H        3.3600860    -1.7923230    -0.2949860
  H       -2.0668670     0.7647910    -1.0387640
  H       -2.5749256     2.3758512    -0.4276229
  H       -0.7232160    -2.3232030     1.7312060
  H       -2.2766340    -2.7186030     1.0611610
units angstrom
no_reorient  #important for SAPT in psi4, default
symmetry c1  #important for SAPT in psi4, default
}

set PROPERTIES_ORIGIN ["COM"]
properties('MP2/aug-cc-pvtz', properties = ['dipole'])
--------------------------------------------------------------------------

    Molecular point group: c1
  Charge       = 0
  Multiplicity = 1
  Basis Set: AUG-CC-PVTZ
    Blend: AUG-CC-PVTZ
  Basis Set: (AUG-CC-PVTZ AUX)
    Blend: AUG-CC-PVTZ-JKFIT

    Orbital Energies [Eh]
    ---------------------

    Doubly Occupied:

       1A    -20.546965     2A    -20.514700     3A    -15.608863
       4A    -15.576055     5A    -11.386145     6A    -11.357208
       7A    -11.280431     8A    -11.273299     9A    -11.265458
      10A    -11.261943    11A    -11.258328    12A    -11.255530
      13A     -1.401327    14A     -1.368630    15A     -1.236746
      16A     -1.198782    17A     -1.174096    18A     -1.054986
      19A     -1.046366    20A     -0.907607    21A     -0.867549
      22A     -0.821954    23A     -0.784824    24A     -0.763636
      25A     -0.722421    26A     -0.701518    27A     -0.680767
      28A     -0.659369    29A     -0.646968    30A     -0.631110
      31A     -0.610820    32A     -0.590835    33A     -0.580660
      34A     -0.565999    35A     -0.538503    36A     -0.522855
      37A     -0.516975    38A     -0.455550    39A     -0.440788
      40A     -0.428630    41A     -0.401478    42A     -0.362758
      43A     -0.356153

  @DF-RHF Final Energy:  -566.46813548243540

   => Energetics <=

    Nuclear Repulsion Energy =            669.5032933029428932
    One-Electron Energy =               -2100.6916848324322018
    Two-Electron Energy =                 864.7202560470539083
    Total Energy =                       -566.4681354824354003
  Basis Set: (AUG-CC-PVTZ AUX)
    Blend: AUG-CC-PVTZ-RI
    Molecular point group: c1

    Geometry (in Angstrom), charge = 0, multiplicity = 1:

       Center              X                  Y                   Z               Mass
    ------------   -----------------  -----------------  -----------------  -----------------
         O           -0.424098472678     2.739494785615     0.839528306249    15.994914619570
         O           -2.118461472678    -1.143572214385    -0.833141693751    15.994914619570
         N           -1.806702472678     1.625076785615    -0.592505693751    14.003074004430
         N           -1.348419472678    -2.316612214385     0.954116306249    14.003074004430
         C            0.367774527322     0.665056785615    -0.022580693751    12.000000000000
         C            0.142042527322    -0.727532214385    -0.054801693751    12.000000000000
         C            1.690437527322     1.130863785615    -0.039298693751    12.000000000000
         C            1.237473527322    -1.603985214385    -0.141303693751    12.000000000000
         C            2.768382527322     0.256258785615    -0.149057693751    12.000000000000
         C            2.542155527322    -1.119835214385    -0.203782693751    12.000000000000
         C           -0.670634472678     1.753382785615     0.136831306249    12.000000000000
         C           -1.214925472678    -1.369975214385    -0.018178693751    12.000000000000
         H            1.849774527322     2.202167785615     0.040908306249     1.007825032230
         H            1.053685527322    -2.675362214385    -0.175792693751     1.007825032230
         H            3.782242527322     0.647481785615    -0.182291693751     1.007825032230
         H            3.374771527322    -1.813576214385    -0.290847693751     1.007825032230
         H           -2.052181472678     0.743537785615    -1.034625693751     1.007825032230
         H           -2.560240072678     2.354597985615    -0.423484593751     1.007825032230
         H           -0.708530472678    -2.344456214385     1.735344306249     1.007825032230
         H           -2.261948472678    -2.739856214385     1.065299306249     1.007825032230

  Basis Set: AUG-CC-PVTZ
    Blend: AUG-CC-PVTZ
  Basis Set: (AUG-CC-PVTZ AUX)
    Blend: AUG-CC-PVTZ-JKFIT
	 Reference Energy          =    -566.4681354824354003 [Eh]
	 Singles Energy            =      -0.0000000000000000 [Eh]
	 Same-Spin Energy          =      -0.5971640525705140 [Eh]
	 Opposite-Spin Energy      =      -1.7905979606611482 [Eh]
	 Correlation Energy        =      -2.3877620132316624 [Eh]
	 Total Energy              =    -568.8558974956670227 [Eh]

	 ================> DF-SCS-MP2 Energies <==================
	-----------------------------------------------------------
	 SCS Same-Spin Scale       =       0.3333333333333333 [-]
	 SCS Opposite-Spin Scale   =       1.2000000000000000 [-]
	 SCS Same-Spin Energy      =      -0.1990546841901713 [Eh]
	 SCS Opposite-Spin Energy  =      -2.1487175527933777 [Eh]
	 SCS Correlation Energy    =      -2.3477722369835492 [Eh]
	 SCS Total Energy          =    -568.8159077194189877 [Eh]
	-----------------------------------------------------------

  Dipole Moment: [D]
     X:     0.8903      Y:    -4.0000      Z:     1.0162     Total:     4.2220

*** Psi4 exiting successfully. Buy a developer a beer!
