                               Psi4 1.4a3.dev225

  ==> Input File <==

--------------------------------------------------------------------------
#psi4
#
memory 32 gb

molecule  {
0 1
  O       -0.4387840     2.7607480     0.8353900
  O       -2.1331470    -1.1223190    -0.8372800
  N       -1.8213880     1.6463300    -0.5966440
  N       -1.3631050    -2.2953590     0.9499780
  C        0.3530890     0.6863100    -0.0267190
  C        0.1273570    -0.7062790    -0.0589400
  C        1.6757520     1.1521170    -0.0434370
  C        1.2227880    -1.5827320    -0.1454420
  C        2.7536970     0.2775120    -0.1531960
  C        2.5274700    -1.0985820    -0.2079210
  C       -0.6853200     1.7746360     0.1326930
  C       -1.2296110    -1.3487220    -0.0223170
  H        1.8350890     2.2234210     0.0367700
  H        1.0390000    -2.6541090    -0.1799310
  H        3.7675570     0.6687350    -0.1864300
  H        3.3600860    -1.7923230    -0.2949860
  H       -2.0668670     0.7647910    -1.0387640
  H       -2.5394600     2.3415160    -0.4355780
  H       -0.7232160    -2.3232030     1.7312060
  H       -2.0962609    -2.6350349     1.0392083
units angstrom
no_reorient  #important for SAPT in psi4, default
symmetry c1  #important for SAPT in psi4, default
}

set PROPERTIES_ORIGIN ["COM"]
properties('MP2/aug-cc-pvtz', properties = ['dipole'])
--------------------------------------------------------------------------

    Molecular point group: c1
  Charge       = 0
  Multiplicity = 1
  Basis Set: AUG-CC-PVTZ
    Blend: AUG-CC-PVTZ
  Basis Set: (AUG-CC-PVTZ AUX)
    Blend: AUG-CC-PVTZ-JKFIT

    Orbital Energies [Eh]
    ---------------------

    Doubly Occupied:

       1A    -20.549672     2A    -20.515916     3A    -15.589383
       4A    -15.572531     5A    -11.387983     6A    -11.358165
       7A    -11.280849     8A    -11.273885     9A    -11.266324
      10A    -11.262735    11A    -11.259040    12A    -11.256225
      13A     -1.406663    14A     -1.370196    15A     -1.269051
      16A     -1.204306    17A     -1.177480    18A     -1.059318
      19A     -1.048139    20A     -0.921670    21A     -0.871975
      22A     -0.834909    23A     -0.789251    24A     -0.778869
      25A     -0.741664    26A     -0.712469    27A     -0.687336
      28A     -0.661735    29A     -0.651152    30A     -0.634167
      31A     -0.613395    32A     -0.593937    33A     -0.584006
      34A     -0.567302    35A     -0.539841    36A     -0.524072
      37A     -0.518257    38A     -0.457786    39A     -0.445382
      40A     -0.429925    41A     -0.403251    42A     -0.363706
      43A     -0.356986

  @DF-RHF Final Energy:  -566.42658778913415

   => Energetics <=

    Nuclear Repulsion Energy =            671.1808786883369748
    One-Electron Energy =               -2103.6331352875881748
    Two-Electron Energy =                 866.0256688101169402
    Total Energy =                       -566.4265877891341461
  Basis Set: (AUG-CC-PVTZ AUX)
    Blend: AUG-CC-PVTZ-RI
    Molecular point group: c1

    Geometry (in Angstrom), charge = 0, multiplicity = 1:

       Center              X                  Y                   Z               Mass
    ------------   -----------------  -----------------  -----------------  -----------------
         O           -0.425424387166     2.739192343952     0.839712032269    15.994914619570
         O           -2.119787387166    -1.143874656048    -0.832957967731    15.994914619570
         N           -1.808028387166     1.624774343952    -0.592321967731    14.003074004430
         N           -1.349745387166    -2.316914656048     0.954300032269    14.003074004430
         C            0.366448612834     0.664754343952    -0.022396967731    12.000000000000
         C            0.140716612834    -0.727834656048    -0.054617967731    12.000000000000
         C            1.689111612834     1.130561343952    -0.039114967731    12.000000000000
         C            1.236147612834    -1.604287656048    -0.141119967731    12.000000000000
         C            2.767056612834     0.255956343952    -0.148873967731    12.000000000000
         C            2.540829612834    -1.120137656048    -0.203598967731    12.000000000000
         C           -0.671960387166     1.753080343952     0.137015032269    12.000000000000
         C           -1.216251387166    -1.370277656048    -0.017994967731    12.000000000000
         H            1.848448612834     2.201865343952     0.041092032269     1.007825032230
         H            1.052359612834    -2.675664656048    -0.175608967731     1.007825032230
         H            3.780916612834     0.647179343952    -0.182107967731     1.007825032230
         H            3.373445612834    -1.813878656048    -0.290663967731     1.007825032230
         H           -2.053507387166     0.743235343952    -1.034441967731     1.007825032230
         H           -2.526100387166     2.319960343952    -0.431255967731     1.007825032230
         H           -0.709856387166    -2.344758656048     1.735528032269     1.007825032230
         H           -2.082901287166    -2.656590556048     1.043530332269     1.007825032230

  Basis Set: AUG-CC-PVTZ
    Blend: AUG-CC-PVTZ
  Basis Set: (AUG-CC-PVTZ AUX)
    Blend: AUG-CC-PVTZ-JKFIT
	 Reference Energy          =    -566.4265877891341461 [Eh]
	 Singles Energy            =      -0.0000000000000000 [Eh]
	 Same-Spin Energy          =      -0.5956885726958964 [Eh]
	 Opposite-Spin Energy      =      -1.7872663661979460 [Eh]
	 Correlation Energy        =      -2.3829549388938425 [Eh]
	 Total Energy              =    -568.8095427280279637 [Eh]

	 ================> DF-SCS-MP2 Energies <==================
	-----------------------------------------------------------
	 SCS Same-Spin Scale       =       0.3333333333333333 [-]
	 SCS Opposite-Spin Scale   =       1.2000000000000000 [-]
	 SCS Same-Spin Energy      =      -0.1985628575652988 [Eh]
	 SCS Opposite-Spin Energy  =      -2.1447196394375352 [Eh]
	 SCS Correlation Energy    =      -2.3432824970028339 [Eh]
	 SCS Total Energy          =    -568.7698702861370066 [Eh]
	-----------------------------------------------------------

  Dipole Moment: [D]
     X:     1.1101      Y:    -3.9078      Z:     0.9698     Total:     4.1765

*** Psi4 exiting successfully. Buy a developer a beer!
