                               Psi4 1.4a3.dev225

  ==> Input File <==

--------------------------------------------------------------------------
#psi4
#
memory 32 gb

molecule  {
0 1
  O       -0.4013713     2.7424532     0.8466139
  O       -2.1331470    -1.1223190    -0.8372800
  N       -1.8213880     1.6463300    -0.5966440
  N       -1.3631050    -2.2953590     0.9499780
  C        0.3530890     0.6863100    -0.0267190
  C        0.1273570    -0.7062790    -0.0589400
  C        1.6757520     1.1521170    -0.0434370
  C        1.2227880    -1.5827320    -0.1454420
  C        2.7536970     0.2775120    -0.1531960
  C        2.5274700    -1.0985820    -0.2079210
  C       -0.6853200     1.7746360     0.1326930
  C       -1.2296110    -1.3487220    -0.0223170
  H        1.8350890     2.2234210     0.0367700
  H        1.0390000    -2.6541090    -0.1799310
  H        3.7675570     0.6687350    -0.1864300
  H        3.3600860    -1.7923230    -0.2949860
  H       -2.0668670     0.7647910    -1.0387640
  H       -2.5394600     2.3415160    -0.4355780
  H       -0.7232160    -2.3232030     1.7312060
  H       -2.2766340    -2.7186030     1.0611610
units angstrom
no_reorient  #important for SAPT in psi4, default
symmetry c1  #important for SAPT in psi4, default
}

set PROPERTIES_ORIGIN ["COM"]
properties('MP2/aug-cc-pvtz', properties = ['dipole'])
--------------------------------------------------------------------------

    Molecular point group: c1
  Charge       = 0
  Multiplicity = 1
  Basis Set: AUG-CC-PVTZ
    Blend: AUG-CC-PVTZ
  Basis Set: (AUG-CC-PVTZ AUX)
    Blend: AUG-CC-PVTZ-JKFIT

    Orbital Energies [Eh]
    ---------------------

    Doubly Occupied:

       1A    -20.546933     2A    -20.516316     3A    -15.608701
       4A    -15.574370     5A    -11.385952     6A    -11.358251
       7A    -11.279227     8A    -11.271672     9A    -11.264566
      10A    -11.260912    11A    -11.257381    12A    -11.254248
      13A     -1.401332    14A     -1.370065    15A     -1.236591
      16A     -1.206292    17A     -1.174078    18A     -1.054330
      19A     -1.045351    20A     -0.907435    21A     -0.868442
      22A     -0.821677    23A     -0.787659    24A     -0.764077
      25A     -0.724525    26A     -0.702437    27A     -0.686887
      28A     -0.658944    29A     -0.649158    30A     -0.631704
      31A     -0.610354    32A     -0.592711    33A     -0.580861
      34A     -0.566795    35A     -0.538196    36A     -0.521936
      37A     -0.516461    38A     -0.455687    39A     -0.440878
      40A     -0.429349    41A     -0.404692    42A     -0.361885
      43A     -0.354700

  @DF-RHF Final Energy:  -566.47139314717879

   => Energetics <=

    Nuclear Repulsion Energy =            670.1000710701154048
    One-Electron Energy =               -2101.8548950003687423
    Two-Electron Energy =                 865.2834307830744365
    Total Energy =                       -566.4713931471787873
  Basis Set: (AUG-CC-PVTZ AUX)
    Blend: AUG-CC-PVTZ-RI
    Molecular point group: c1

    Geometry (in Angstrom), charge = 0, multiplicity = 1:

       Center              X                  Y                   Z               Mass
    ------------   -----------------  -----------------  -----------------  -----------------
         O           -0.390551197280     2.723194563668     0.849706799322    15.994914619570
         O           -2.122326897280    -1.141577636332    -0.834187100678    15.994914619570
         N           -1.810567897280     1.627071363668    -0.593551100678    14.003074004430
         N           -1.352284897280    -2.314617636332     0.953070899322    14.003074004430
         C            0.363909102720     0.667051363668    -0.023626100678    12.000000000000
         C            0.138177102720    -0.725537636332    -0.055847100678    12.000000000000
         C            1.686572102720     1.132858363668    -0.040344100678    12.000000000000
         C            1.233608102720    -1.601990636332    -0.142349100678    12.000000000000
         C            2.764517102720     0.258253363668    -0.150103100678    12.000000000000
         C            2.538290102720    -1.117840636332    -0.204828100678    12.000000000000
         C           -0.674499897280     1.755377363668     0.135785899322    12.000000000000
         C           -1.218790897280    -1.367980636332    -0.019224100678    12.000000000000
         H            1.845909102720     2.204162363668     0.039862899322     1.007825032230
         H            1.049820102720    -2.673367636332    -0.176838100678     1.007825032230
         H            3.778377102720     0.649476363668    -0.183337100678     1.007825032230
         H            3.370906102720    -1.811581636332    -0.291893100678     1.007825032230
         H           -2.056046897280     0.745532363668    -1.035671100678     1.007825032230
         H           -2.528639897280     2.322257363668    -0.432485100678     1.007825032230
         H           -0.712395897280    -2.342461636332     1.734298899322     1.007825032230
         H           -2.265813897280    -2.737861636332     1.064253899322     1.007825032230

  Basis Set: AUG-CC-PVTZ
    Blend: AUG-CC-PVTZ
  Basis Set: (AUG-CC-PVTZ AUX)
    Blend: AUG-CC-PVTZ-JKFIT
	 Reference Energy          =    -566.4713931471787873 [Eh]
	 Singles Energy            =      -0.0000000000000000 [Eh]
	 Same-Spin Energy          =      -0.5968859565035627 [Eh]
	 Opposite-Spin Energy      =      -1.7897670330205213 [Eh]
	 Correlation Energy        =      -2.3866529895240838 [Eh]
	 Total Energy              =    -568.8580461367029102 [Eh]

	 ================> DF-SCS-MP2 Energies <==================
	-----------------------------------------------------------
	 SCS Same-Spin Scale       =       0.3333333333333333 [-]
	 SCS Opposite-Spin Scale   =       1.2000000000000000 [-]
	 SCS Same-Spin Energy      =      -0.1989619855011875 [Eh]
	 SCS Opposite-Spin Energy  =      -2.1477204396246257 [Eh]
	 SCS Correlation Energy    =      -2.3466824251258132 [Eh]
	 SCS Total Energy          =    -568.8180755723045650 [Eh]
	-----------------------------------------------------------

  Dipole Moment: [D]
     X:     0.8096      Y:    -3.9385      Z:     1.0001     Total:     4.1434

*** Psi4 exiting successfully. Buy a developer a beer!
