                               Psi4 1.4a3.dev225

  ==> Input File <==

--------------------------------------------------------------------------
#psi4
#
memory 32 gb

molecule  {
0 1
  O       -0.4387840     2.7607480     0.8353900
  O       -2.1331470    -1.1223190    -0.8372800
  N       -1.8213880     1.6463300    -0.5966440
  N       -1.3631050    -2.2953590     0.9499780
  C        0.3530890     0.6863100    -0.0267190
  C        0.1273570    -0.7062790    -0.0589400
  C        1.6757520     1.1521170    -0.0434370
  C        1.2227880    -1.5827320    -0.1454420
  C        2.7536970     0.2775120    -0.1531960
  C        2.5274700    -1.0985820    -0.2079210
  C       -0.6853200     1.7746360     0.1326930
  C       -1.2296110    -1.3487220    -0.0223170
  H        1.8350890     2.2234210     0.0367700
  H        1.0390000    -2.6541090    -0.1799310
  H        3.7675570     0.6687350    -0.1864300
  H        3.3600860    -1.7923230    -0.2949860
  H       -2.0668670     0.7647910    -1.0387640
  H       -2.6813224     2.4788570    -0.4037578
  H       -0.7232160    -2.3232030     1.7312060
  H       -2.2766340    -2.7186030     1.0611610
units angstrom
no_reorient  #important for SAPT in psi4, default
symmetry c1  #important for SAPT in psi4, default
}

set PROPERTIES_ORIGIN ["COM"]
properties('MP2/aug-cc-pvtz', properties = ['dipole'])
--------------------------------------------------------------------------

    Molecular point group: c1
  Charge       = 0
  Multiplicity = 1
  Basis Set: AUG-CC-PVTZ
    Blend: AUG-CC-PVTZ
  Basis Set: (AUG-CC-PVTZ AUX)
    Blend: AUG-CC-PVTZ-JKFIT

    Orbital Energies [Eh]
    ---------------------

    Doubly Occupied:

       1A    -20.546635     2A    -20.512998     3A    -15.608524
       4A    -15.586274     5A    -11.385770     6A    -11.356317
       7A    -11.280141     8A    -11.273521     9A    -11.265166
      10A    -11.261671    11A    -11.258064    12A    -11.255279
      13A     -1.400907    14A     -1.366275    15A     -1.236375
      16A     -1.189632    17A     -1.170785    18A     -1.054146
      19A     -1.045524    20A     -0.906078    21A     -0.864322
      22A     -0.821027    23A     -0.779285    24A     -0.762899
      25A     -0.719576    26A     -0.699759    27A     -0.667432
      28A     -0.658916    29A     -0.638575    30A     -0.626500
      31A     -0.610444    32A     -0.583572    33A     -0.577517
      34A     -0.564752    35A     -0.537051    36A     -0.522158
      37A     -0.515761    38A     -0.454505    39A     -0.440275
      40A     -0.427472    41A     -0.398757    42A     -0.362421
      43A     -0.355721

  @DF-RHF Final Energy:  -566.44181177150051

   => Energetics <=

    Nuclear Repulsion Energy =            668.7064589216900004
    One-Electron Energy =               -2099.1989824011429846
    Two-Electron Energy =                 864.0507117079524733
    Total Energy =                       -566.4418117715005110
  Basis Set: (AUG-CC-PVTZ AUX)
    Blend: AUG-CC-PVTZ-RI
    Molecular point group: c1

    Geometry (in Angstrom), charge = 0, multiplicity = 1:

       Center              X                  Y                   Z               Mass
    ------------   -----------------  -----------------  -----------------  -----------------
         O           -0.423444868581     2.738862012704     0.839381701021    15.994914619570
         O           -2.117807868581    -1.144204987296    -0.833288298979    15.994914619570
         N           -1.806048868581     1.624444012704    -0.592652298979    14.003074004430
         N           -1.347765868581    -2.317244987296     0.953969701021    14.003074004430
         C            0.368428131419     0.664424012704    -0.022727298979    12.000000000000
         C            0.142696131419    -0.728164987296    -0.054948298979    12.000000000000
         C            1.691091131419     1.130231012704    -0.039445298979    12.000000000000
         C            1.238127131419    -1.604617987296    -0.141450298979    12.000000000000
         C            2.769036131419     0.255626012704    -0.149204298979    12.000000000000
         C            2.542809131419    -1.120467987296    -0.203929298979    12.000000000000
         C           -0.669980868581     1.752750012704     0.136684701021    12.000000000000
         C           -1.214271868581    -1.370607987296    -0.018325298979    12.000000000000
         H            1.850428131419     2.201535012704     0.040761701021     1.007825032230
         H            1.054339131419    -2.675994987296    -0.175939298979     1.007825032230
         H            3.782896131419     0.646849012704    -0.182438298979     1.007825032230
         H            3.375425131419    -1.814208987296    -0.290994298979     1.007825032230
         H           -2.051527868581     0.742905012704    -1.034772298979     1.007825032230
         H           -2.665983268581     2.456971012704    -0.399766098979     1.007825032230
         H           -0.707876868581    -2.345088987296     1.735197701021     1.007825032230
         H           -2.261294868581    -2.740488987296     1.065152701021     1.007825032230

  Basis Set: AUG-CC-PVTZ
    Blend: AUG-CC-PVTZ
  Basis Set: (AUG-CC-PVTZ AUX)
    Blend: AUG-CC-PVTZ-JKFIT
	 Reference Energy          =    -566.4418117715005110 [Eh]
	 Singles Energy            =      -0.0000000000000000 [Eh]
	 Same-Spin Energy          =      -0.5982657381294596 [Eh]
	 Opposite-Spin Energy      =      -1.7937235328151395 [Eh]
	 Correlation Energy        =      -2.3919892709445989 [Eh]
	 Total Energy              =    -568.8338010424450886 [Eh]

	 ================> DF-SCS-MP2 Energies <==================
	-----------------------------------------------------------
	 SCS Same-Spin Scale       =       0.3333333333333333 [-]
	 SCS Opposite-Spin Scale   =       1.2000000000000000 [-]
	 SCS Same-Spin Energy      =      -0.1994219127098198 [Eh]
	 SCS Opposite-Spin Energy  =      -2.1524682393781673 [Eh]
	 SCS Correlation Energy    =      -2.3518901520879871 [Eh]
	 SCS Total Energy          =    -568.7937019235885145 [Eh]
	-----------------------------------------------------------

  Dipole Moment: [D]
     X:     0.7813      Y:    -3.9119      Z:     1.0273     Total:     4.1193

*** Psi4 exiting successfully. Buy a developer a beer!
