                               Psi4 1.4a3.dev225

  ==> Input File <==

--------------------------------------------------------------------------
#psi4
#
memory 32 gb

molecule  {
0 1
  O       -0.4387840     2.7607480     0.8353900
  O       -2.1331470    -1.1223190    -0.8372800
  N       -1.8213880     1.6463300    -0.5966440
  N       -1.3631050    -2.2953590     0.9499780
  C        0.3530890     0.6863100    -0.0267190
  C        0.1273570    -0.7062790    -0.0589400
  C        1.6757520     1.1521170    -0.0434370
  C        1.2227880    -1.5827320    -0.1454420
  C        2.7536970     0.2775120    -0.1531960
  C        2.5274700    -1.0985820    -0.2079210
  C       -0.6853200     1.7746360     0.1326930
  C       -1.2296110    -1.3487220    -0.0223170
  H        1.8350890     2.2234210     0.0367700
  H        1.0390000    -2.6541090    -0.1799310
  H        3.7675570     0.6687350    -0.1864300
  H        3.2069256    -1.6647088    -0.2789703
  H       -2.0668670     0.7647910    -1.0387640
  H       -2.5394600     2.3415160    -0.4355780
  H       -0.7232160    -2.3232030     1.7312060
  H       -2.2766340    -2.7186030     1.0611610
units angstrom
no_reorient  #important for SAPT in psi4, default
symmetry c1  #important for SAPT in psi4, default
}

set PROPERTIES_ORIGIN ["COM"]
properties('MP2/aug-cc-pvtz', properties = ['dipole'])
--------------------------------------------------------------------------

    Molecular point group: c1
  Charge       = 0
  Multiplicity = 1
  Basis Set: AUG-CC-PVTZ
    Blend: AUG-CC-PVTZ
  Basis Set: (AUG-CC-PVTZ AUX)
    Blend: AUG-CC-PVTZ-JKFIT

    Orbital Energies [Eh]
    ---------------------

    Doubly Occupied:

       1A    -20.546691     2A    -20.515098     3A    -15.608686
       4A    -15.571633     5A    -11.385787     6A    -11.357317
       7A    -11.279668     8A    -11.273043     9A    -11.264495
      10A    -11.257495    11A    -11.254691    12A    -11.238472
      13A     -1.401105    14A     -1.369337    15A     -1.236572
      16A     -1.203410    17A     -1.176094    18A     -1.062225
      19A     -1.048114    20A     -0.913113    21A     -0.877877
      22A     -0.822582    23A     -0.794538    24A     -0.769285
      25A     -0.725266    26A     -0.712868    27A     -0.686592
      28A     -0.667244    29A     -0.653787    30A     -0.631330
      31A     -0.610548    32A     -0.598055    33A     -0.581978
      34A     -0.567522    35A     -0.543673    36A     -0.525023
      37A     -0.516726    38A     -0.455798    39A     -0.440666
      40A     -0.428834    41A     -0.402285    42A     -0.362319
      43A     -0.355865

  @DF-RHF Final Energy:  -566.43718186015099

   => Energetics <=

    Nuclear Repulsion Energy =            671.0190245500583615
    One-Electron Energy =               -2103.5249998067029082
    Two-Electron Energy =                 866.0687933964934473
    Total Energy =                       -566.4371818601509858
  Basis Set: (AUG-CC-PVTZ AUX)
    Blend: AUG-CC-PVTZ-RI
    Molecular point group: c1

    Geometry (in Angstrom), charge = 0, multiplicity = 1:

       Center              X                  Y                   Z               Mass
    ------------   -----------------  -----------------  -----------------  -----------------
         O           -0.423375464059     2.738921765218     0.839478789335    15.994914619570
         O           -2.117738464059    -1.144145234782    -0.833191210665    15.994914619570
         N           -1.805979464059     1.624503765218    -0.592555210665    14.003074004430
         N           -1.347696464059    -2.317185234782     0.954066789335    14.003074004430
         C            0.368497535941     0.664483765218    -0.022630210665    12.000000000000
         C            0.142765535941    -0.728105234782    -0.054851210665    12.000000000000
         C            1.691160535941     1.130290765218    -0.039348210665    12.000000000000
         C            1.238196535941    -1.604558234782    -0.141353210665    12.000000000000
         C            2.769105535941     0.255685765218    -0.149107210665    12.000000000000
         C            2.542878535941    -1.120408234782    -0.203832210665    12.000000000000
         C           -0.669911464059     1.752809765218     0.136781789335    12.000000000000
         C           -1.214202464059    -1.370548234782    -0.018228210665    12.000000000000
         H            1.850497535941     2.201594765218     0.040858789335     1.007825032230
         H            1.054408535941    -2.675935234782    -0.175842210665     1.007825032230
         H            3.782965535941     0.646908765218    -0.182341210665     1.007825032230
         H            3.222334135941    -1.686535034782    -0.274881510665     1.007825032230
         H           -2.051458464059     0.742964765218    -1.034675210665     1.007825032230
         H           -2.524051464059     2.319689765218    -0.431489210665     1.007825032230
         H           -0.707807464059    -2.345029234782     1.735294789335     1.007825032230
         H           -2.261225464059    -2.740429234782     1.065249789335     1.007825032230

  Basis Set: AUG-CC-PVTZ
    Blend: AUG-CC-PVTZ
  Basis Set: (AUG-CC-PVTZ AUX)
    Blend: AUG-CC-PVTZ-JKFIT
	 Reference Energy          =    -566.4371818601509858 [Eh]
	 Singles Energy            =      -0.0000000000000000 [Eh]
	 Same-Spin Energy          =      -0.5966374733939410 [Eh]
	 Opposite-Spin Energy      =      -1.7892140825757434 [Eh]
	 Correlation Energy        =      -2.3858515559696842 [Eh]
	 Total Energy              =    -568.8230334161206656 [Eh]

	 ================> DF-SCS-MP2 Energies <==================
	-----------------------------------------------------------
	 SCS Same-Spin Scale       =       0.3333333333333333 [-]
	 SCS Opposite-Spin Scale   =       1.2000000000000000 [-]
	 SCS Same-Spin Energy      =      -0.1988791577979803 [Eh]
	 SCS Opposite-Spin Energy  =      -2.1470568990908920 [Eh]
	 SCS Correlation Energy    =      -2.3459360568888723 [Eh]
	 SCS Total Energy          =    -568.7831179170398173 [Eh]
	-----------------------------------------------------------

  Dipole Moment: [D]
     X:     0.9567      Y:    -4.0452      Z:     1.0120     Total:     4.2783

*** Psi4 exiting successfully. Buy a developer a beer!
