                               Psi4 1.4a3.dev225

  ==> Input File <==

--------------------------------------------------------------------------
#psi4
#
memory 32 gb

molecule  {
0 1
  O       -0.4387840     2.7607480     0.8353900
  O       -2.1331470    -1.1223190    -0.8372800
  N       -1.8213880     1.6463300    -0.5966440
  N       -1.3631050    -2.2953590     0.9499780
  C        0.3530890     0.6863100    -0.0267190
  C        0.1273570    -0.7062790    -0.0589400
  C        1.6757520     1.1521170    -0.0434370
  C        1.2227880    -1.5827320    -0.1454420
  C        2.7536970     0.2775120    -0.1531960
  C        2.5274700    -1.0985820    -0.2079210
  C       -0.6893102     1.7586758     0.1213198
  C       -1.2296110    -1.3487220    -0.0223170
  H        1.8350890     2.2234210     0.0367700
  H        1.0390000    -2.6541090    -0.1799310
  H        3.7675570     0.6687350    -0.1864300
  H        3.3600860    -1.7923230    -0.2949860
  H       -2.0668670     0.7647910    -1.0387640
  H       -2.5394600     2.3415160    -0.4355780
  H       -0.7232160    -2.3232030     1.7312060
  H       -2.2766340    -2.7186030     1.0611610
units angstrom
no_reorient  #important for SAPT in psi4, default
symmetry c1  #important for SAPT in psi4, default
}

set PROPERTIES_ORIGIN ["COM"]
properties('MP2/aug-cc-pvtz', properties = ['dipole'])
--------------------------------------------------------------------------

    Molecular point group: c1
  Charge       = 0
  Multiplicity = 1
  Basis Set: AUG-CC-PVTZ
    Blend: AUG-CC-PVTZ
  Basis Set: (AUG-CC-PVTZ AUX)
    Blend: AUG-CC-PVTZ-JKFIT

    Orbital Energies [Eh]
    ---------------------

    Doubly Occupied:

       1A    -20.547947     2A    -20.511080     3A    -15.609571
       4A    -15.574769     5A    -11.387064     6A    -11.357541
       7A    -11.281129     8A    -11.273835     9A    -11.265939
      10A    -11.262667    11A    -11.258816    12A    -11.256304
      13A     -1.402322    14A     -1.357463    15A     -1.237529
      16A     -1.206007    17A     -1.175973    18A     -1.056375
      19A     -1.047428    20A     -0.909625    21A     -0.870907
      22A     -0.823016    23A     -0.789312    24A     -0.764836
      25A     -0.725357    26A     -0.703626    27A     -0.688574
      28A     -0.659570    29A     -0.650352    30A     -0.630294
      31A     -0.611056    32A     -0.590141    33A     -0.579794
      34A     -0.564063    35A     -0.538656    36A     -0.522372
      37A     -0.517377    38A     -0.456584    39A     -0.441287
      40A     -0.427190    41A     -0.400514    42A     -0.363361
      43A     -0.356386

  @DF-RHF Final Energy:  -566.46976328967764

   => Energetics <=

    Nuclear Repulsion Energy =            669.8718159540317174
    One-Electron Energy =               -2101.3751372697101942
    Two-Electron Energy =                 865.0335580260008328
    Total Energy =                       -566.4697632896776440
  Basis Set: (AUG-CC-PVTZ AUX)
    Blend: AUG-CC-PVTZ-RI
    Molecular point group: c1

    Geometry (in Angstrom), charge = 0, multiplicity = 1:

       Center              X                  Y                   Z               Mass
    ------------   -----------------  -----------------  -----------------  -----------------
         O           -0.424024479104     2.740873112049     0.840409063300    15.994914619570
         O           -2.118387479104    -1.142193887951    -0.832260936700    15.994914619570
         N           -1.806628479104     1.626455112049    -0.591624936700    14.003074004430
         N           -1.348345479104    -2.315233887951     0.954997063300    14.003074004430
         C            0.367848520896     0.666435112049    -0.021699936700    12.000000000000
         C            0.142116520896    -0.726153887951    -0.053920936700    12.000000000000
         C            1.690511520896     1.132242112049    -0.038417936700    12.000000000000
         C            1.237547520896    -1.602606887951    -0.140422936700    12.000000000000
         C            2.768456520896     0.257637112049    -0.148176936700    12.000000000000
         C            2.542229520896    -1.118456887951    -0.202901936700    12.000000000000
         C           -0.674550679104     1.738800912049     0.126338863300    12.000000000000
         C           -1.214851479104    -1.368596887951    -0.017297936700    12.000000000000
         H            1.849848520896     2.203546112049     0.041789063300     1.007825032230
         H            1.053759520896    -2.673983887951    -0.174911936700     1.007825032230
         H            3.782316520896     0.648860112049    -0.181410936700     1.007825032230
         H            3.374845520896    -1.812197887951    -0.289966936700     1.007825032230
         H           -2.052107479104     0.744916112049    -1.033744936700     1.007825032230
         H           -2.524700479104     2.321641112049    -0.430558936700     1.007825032230
         H           -0.708456479104    -2.343077887951     1.736225063300     1.007825032230
         H           -2.261874479104    -2.738477887951     1.066180063300     1.007825032230

  Basis Set: AUG-CC-PVTZ
    Blend: AUG-CC-PVTZ
  Basis Set: (AUG-CC-PVTZ AUX)
    Blend: AUG-CC-PVTZ-JKFIT
	 Reference Energy          =    -566.4697632896776440 [Eh]
	 Singles Energy            =      -0.0000000000000000 [Eh]
	 Same-Spin Energy          =      -0.5972344438772295 [Eh]
	 Opposite-Spin Energy      =      -1.7905235887827537 [Eh]
	 Correlation Energy        =      -2.3877580326599830 [Eh]
	 Total Energy              =    -568.8575213223376750 [Eh]

	 ================> DF-SCS-MP2 Energies <==================
	-----------------------------------------------------------
	 SCS Same-Spin Scale       =       0.3333333333333333 [-]
	 SCS Opposite-Spin Scale   =       1.2000000000000000 [-]
	 SCS Same-Spin Energy      =      -0.1990781479590765 [Eh]
	 SCS Opposite-Spin Energy  =      -2.1486283065393046 [Eh]
	 SCS Correlation Energy    =      -2.3477064544983812 [Eh]
	 SCS Total Energy          =    -568.8174697441760372 [Eh]
	-----------------------------------------------------------

  Dipole Moment: [D]
     X:     0.8871      Y:    -4.1332      Z:     0.9230     Total:     4.3269

*** Psi4 exiting successfully. Buy a developer a beer!
