                               Psi4 1.4a3.dev225

  ==> Input File <==

--------------------------------------------------------------------------
#psi4
#
memory 32 gb

molecule  {
0 1
  O       -0.4387840     2.7607480     0.8353900
  O       -2.1331470    -1.1223190    -0.8372800
  N       -1.8213880     1.6463300    -0.5966440
  N       -1.3631050    -2.2953590     0.9499780
  C        0.3530890     0.6863100    -0.0267190
  C        0.1273570    -0.7062790    -0.0589400
  C        1.6912420     1.1708421    -0.0432096
  C        1.2227880    -1.5827320    -0.1454420
  C        2.7536970     0.2775120    -0.1531960
  C        2.5274700    -1.0985820    -0.2079210
  C       -0.6853200     1.7746360     0.1326930
  C       -1.2296110    -1.3487220    -0.0223170
  H        1.8350890     2.2234210     0.0367700
  H        1.0390000    -2.6541090    -0.1799310
  H        3.7675570     0.6687350    -0.1864300
  H        3.3600860    -1.7923230    -0.2949860
  H       -2.0668670     0.7647910    -1.0387640
  H       -2.5394600     2.3415160    -0.4355780
  H       -0.7232160    -2.3232030     1.7312060
  H       -2.2766340    -2.7186030     1.0611610
units angstrom
no_reorient  #important for SAPT in psi4, default
symmetry c1  #important for SAPT in psi4, default
}

set PROPERTIES_ORIGIN ["COM"]
properties('MP2/aug-cc-pvtz', properties = ['dipole'])
--------------------------------------------------------------------------

    Molecular point group: c1
  Charge       = 0
  Multiplicity = 1
  Basis Set: AUG-CC-PVTZ
    Blend: AUG-CC-PVTZ
  Basis Set: (AUG-CC-PVTZ AUX)
    Blend: AUG-CC-PVTZ-JKFIT

    Orbital Energies [Eh]
    ---------------------

    Doubly Occupied:

       1A    -20.547183     2A    -20.515356     3A    -15.609080
       4A    -15.571754     5A    -11.386461     6A    -11.357472
       7A    -11.280648     8A    -11.275606     9A    -11.265804
      10A    -11.262235    11A    -11.258549    12A    -11.256524
      13A     -1.401562    14A     -1.369587    15A     -1.236966
      16A     -1.203422    17A     -1.173218    18A     -1.055334
      19A     -1.045200    20A     -0.908153    21A     -0.869617
      22A     -0.823181    23A     -0.786504    24A     -0.764196
      25A     -0.723570    26A     -0.703730    27A     -0.685741
      28A     -0.659866    29A     -0.650585    30A     -0.631120
      31A     -0.613155    32A     -0.592132    33A     -0.581021
      34A     -0.566158    35A     -0.536567    36A     -0.526855
      37A     -0.516210    38A     -0.455704    39A     -0.441066
      40A     -0.428890    41A     -0.402565    42A     -0.363571
      43A     -0.354263

  @DF-RHF Final Energy:  -566.47091535068387

   => Energetics <=

    Nuclear Repulsion Energy =            669.3390632951180805
    One-Electron Energy =               -2100.3071916073763532
    Two-Electron Energy =                 864.4972129615742915
    Total Energy =                       -566.4709153506838675
  Basis Set: (AUG-CC-PVTZ AUX)
    Blend: AUG-CC-PVTZ-RI
    Molecular point group: c1

    Geometry (in Angstrom), charge = 0, multiplicity = 1:

       Center              X                  Y                   Z               Mass
    ------------   -----------------  -----------------  -----------------  -----------------
         O           -0.425449350656     2.738336069449     0.839560541984    15.994914619570
         O           -2.119812350656    -1.144730930551    -0.833109458016    15.994914619570
         N           -1.808053350656     1.623918069449    -0.592473458016    14.003074004430
         N           -1.349770350656    -2.317770930551     0.954148541984    14.003074004430
         C            0.366423649344     0.663898069449    -0.022548458016    12.000000000000
         C            0.140691649344    -0.728690930551    -0.054769458016    12.000000000000
         C            1.704576649344     1.148430169449    -0.039039058016    12.000000000000
         C            1.236122649344    -1.605143930551    -0.141271458016    12.000000000000
         C            2.767031649344     0.255100069449    -0.149025458016    12.000000000000
         C            2.540804649344    -1.120993930551    -0.203750458016    12.000000000000
         C           -0.671985350656     1.752224069449     0.136863541984    12.000000000000
         C           -1.216276350656    -1.371133930551    -0.018146458016    12.000000000000
         H            1.848423649344     2.201009069449     0.040940541984     1.007825032230
         H            1.052334649344    -2.676520930551    -0.175760458016     1.007825032230
         H            3.780891649344     0.646323069449    -0.182259458016     1.007825032230
         H            3.373420649344    -1.814734930551    -0.290815458016     1.007825032230
         H           -2.053532350656     0.742379069449    -1.034593458016     1.007825032230
         H           -2.526125350656     2.319104069449    -0.431407458016     1.007825032230
         H           -0.709881350656    -2.345614930551     1.735376541984     1.007825032230
         H           -2.263299350656    -2.741014930551     1.065331541984     1.007825032230

  Basis Set: AUG-CC-PVTZ
    Blend: AUG-CC-PVTZ
  Basis Set: (AUG-CC-PVTZ AUX)
    Blend: AUG-CC-PVTZ-JKFIT
	 Reference Energy          =    -566.4709153506838675 [Eh]
	 Singles Energy            =      -0.0000000000000000 [Eh]
	 Same-Spin Energy          =      -0.5967811362869910 [Eh]
	 Opposite-Spin Energy      =      -1.7897870370822817 [Eh]
	 Correlation Energy        =      -2.3865681733692727 [Eh]
	 Total Energy              =    -568.8574835240531229 [Eh]

	 ================> DF-SCS-MP2 Energies <==================
	-----------------------------------------------------------
	 SCS Same-Spin Scale       =       0.3333333333333333 [-]
	 SCS Opposite-Spin Scale   =       1.2000000000000000 [-]
	 SCS Same-Spin Energy      =      -0.1989270454289970 [Eh]
	 SCS Opposite-Spin Energy  =      -2.1477444444987381 [Eh]
	 SCS Correlation Energy    =      -2.3466714899277350 [Eh]
	 SCS Total Energy          =    -568.8175868406116251 [Eh]
	-----------------------------------------------------------

  Dipole Moment: [D]
     X:     0.9256      Y:    -4.0307      Z:     1.0145     Total:     4.2583

*** Psi4 exiting successfully. Buy a developer a beer!
