                               Psi4 1.4a3.dev225

  ==> Input File <==

--------------------------------------------------------------------------
#psi4
#
memory 32 gb

molecule  {
0 1
  O       -0.4387840     2.7607480     0.8353900
  O       -2.1331470    -1.1223190    -0.8372800
  N       -1.8213880     1.6463300    -0.5966440
  N       -1.3631050    -2.2953590     0.9499780
  C        0.3530890     0.6863100    -0.0267190
  C        0.1273570    -0.7062790    -0.0589400
  C        1.6757520     1.1521170    -0.0434370
  C        1.2227880    -1.5827320    -0.1454420
  C        2.7536970     0.2775120    -0.1531960
  C        2.5274700    -1.0985820    -0.2079210
  C       -0.6853200     1.7746360     0.1326930
  C       -1.2296110    -1.3487220    -0.0223170
  H        1.8350890     2.2234210     0.0367700
  H        1.0390000    -2.6541090    -0.1799310
  H        3.7675570     0.6687350    -0.1864300
  H        3.5132464    -1.9199372    -0.3110017
  H       -2.0668670     0.7647910    -1.0387640
  H       -2.5394600     2.3415160    -0.4355780
  H       -0.7232160    -2.3232030     1.7312060
  H       -2.2766340    -2.7186030     1.0611610
units angstrom
no_reorient  #important for SAPT in psi4, default
symmetry c1  #important for SAPT in psi4, default
}

set PROPERTIES_ORIGIN ["COM"]
properties('MP2/aug-cc-pvtz', properties = ['dipole'])
--------------------------------------------------------------------------

    Molecular point group: c1
  Charge       = 0
  Multiplicity = 1
  Basis Set: AUG-CC-PVTZ
    Blend: AUG-CC-PVTZ
  Basis Set: (AUG-CC-PVTZ AUX)
    Blend: AUG-CC-PVTZ-JKFIT

    Orbital Energies [Eh]
    ---------------------

    Doubly Occupied:

       1A    -20.547839     2A    -20.515961     3A    -15.609585
       4A    -15.572419     5A    -11.387177     6A    -11.358231
       7A    -11.283228     8A    -11.282041     9A    -11.274206
      10A    -11.267524    11A    -11.260676    12A    -11.257240
      13A     -1.402205    14A     -1.370207    15A     -1.237540
      16A     -1.204229    17A     -1.175618    18A     -1.054720
      19A     -1.045455    20A     -0.907665    21A     -0.865242
      22A     -0.822978    23A     -0.785654    24A     -0.760606
      25A     -0.724430    26A     -0.697518    27A     -0.686786
      28A     -0.658335    29A     -0.638790    30A     -0.632591
      31A     -0.611859    32A     -0.588771    33A     -0.578805
      34A     -0.564774    35A     -0.534542    36A     -0.519215
      37A     -0.511931    38A     -0.455912    39A     -0.441596
      40A     -0.429605    41A     -0.403078    42A     -0.364185
      43A     -0.357537

  @DF-RHF Final Energy:  -566.44953198634119

   => Energetics <=

    Nuclear Repulsion Energy =            668.8373858592618717
    One-Electron Energy =               -2099.2768279757142409
    Two-Electron Energy =                 863.9899101301112978
    Total Energy =                       -566.4495319863411851
  Basis Set: (AUG-CC-PVTZ AUX)
    Blend: AUG-CC-PVTZ-RI
    Molecular point group: c1

    Geometry (in Angstrom), charge = 0, multiplicity = 1:

       Center              X                  Y                   Z               Mass
    ------------   -----------------  -----------------  -----------------  -----------------
         O           -0.425257217362     2.740489653800     0.839675560801    15.994914619570
         O           -2.119620217362    -1.142577346200    -0.832994439199    15.994914619570
         N           -1.807861217362     1.626071653800    -0.592358439199    14.003074004430
         N           -1.349578217362    -2.315617346200     0.954263560801    14.003074004430
         C            0.366615782638     0.666051653800    -0.022433439199    12.000000000000
         C            0.140883782638    -0.726537346200    -0.054654439199    12.000000000000
         C            1.689278782638     1.131858653800    -0.039151439199    12.000000000000
         C            1.236314782638    -1.602990346200    -0.141156439199    12.000000000000
         C            2.767223782638     0.257253653800    -0.148910439199    12.000000000000
         C            2.540996782638    -1.118840346200    -0.203635439199    12.000000000000
         C           -0.671793217362     1.754377653800     0.136978560801    12.000000000000
         C           -1.216084217362    -1.368980346200    -0.018031439199    12.000000000000
         H            1.848615782638     2.203162653800     0.041055560801     1.007825032230
         H            1.052526782638    -2.674367346200    -0.175645439199     1.007825032230
         H            3.781083782638     0.648476653800    -0.182144439199     1.007825032230
         H            3.526773182638    -1.940195546200    -0.306716139199     1.007825032230
         H           -2.053340217362     0.744532653800    -1.034478439199     1.007825032230
         H           -2.525933217362     2.321257653800    -0.431292439199     1.007825032230
         H           -0.709689217362    -2.343461346200     1.735491560801     1.007825032230
         H           -2.263107217362    -2.738861346200     1.065446560801     1.007825032230

  Basis Set: AUG-CC-PVTZ
    Blend: AUG-CC-PVTZ
  Basis Set: (AUG-CC-PVTZ AUX)
    Blend: AUG-CC-PVTZ-JKFIT
	 Reference Energy          =    -566.4495319863411851 [Eh]
	 Singles Energy            =      -0.0000000000000000 [Eh]
	 Same-Spin Energy          =      -0.5973194994748003 [Eh]
	 Opposite-Spin Energy      =      -1.7919526371772354 [Eh]
	 Correlation Energy        =      -2.3892721366520355 [Eh]
	 Total Energy              =    -568.8388041229932242 [Eh]

	 ================> DF-SCS-MP2 Energies <==================
	-----------------------------------------------------------
	 SCS Same-Spin Scale       =       0.3333333333333333 [-]
	 SCS Opposite-Spin Scale   =       1.2000000000000000 [-]
	 SCS Same-Spin Energy      =      -0.1991064998249334 [Eh]
	 SCS Opposite-Spin Energy  =      -2.1503431646126825 [Eh]
	 SCS Correlation Energy    =      -2.3494496644376159 [Eh]
	 SCS Total Energy          =    -568.7989816507788419 [Eh]
	-----------------------------------------------------------

  Dipole Moment: [D]
     X:     0.8451      Y:    -3.9757      Z:     1.0221     Total:     4.1911

*** Psi4 exiting successfully. Buy a developer a beer!
