                               Psi4 1.4a3.dev225

  ==> Input File <==

--------------------------------------------------------------------------
#psi4
#
memory 32 gb

molecule  {
0 1
  O       -0.4387840     2.7607480     0.8353900
  O       -2.1331470    -1.1223190    -0.8372800
  N       -1.8213880     1.6463300    -0.5966440
  N       -1.3631050    -2.2953590     0.9499780
  C        0.3530890     0.6863100    -0.0267190
  C        0.1273570    -0.7062790    -0.0589400
  C        1.6757520     1.1521170    -0.0434370
  C        1.2227880    -1.5827320    -0.1454420
  C        2.7536970     0.2775120    -0.1531960
  C        2.5274700    -1.0985820    -0.2079210
  C       -0.6853200     1.7746360     0.1326930
  C       -1.2296110    -1.3487220    -0.0223170
  H        1.8350890     2.2234210     0.0367700
  H        1.0390000    -2.6541090    -0.1799310
  H        3.7675570     0.6687350    -0.1864300
  H        3.3600860    -1.7923230    -0.2949860
  H       -2.0668670     0.7647910    -1.0387640
  H       -2.5394600     2.3415160    -0.4355780
  H       -0.7232160    -2.3232030     1.7312060
  H       -2.3217273    -2.7394950     1.0666492
units angstrom
no_reorient  #important for SAPT in psi4, default
symmetry c1  #important for SAPT in psi4, default
}

set PROPERTIES_ORIGIN ["COM"]
properties('MP2/aug-cc-pvtz', properties = ['dipole'])
--------------------------------------------------------------------------

    Molecular point group: c1
  Charge       = 0
  Multiplicity = 1
  Basis Set: AUG-CC-PVTZ
    Blend: AUG-CC-PVTZ
  Basis Set: (AUG-CC-PVTZ AUX)
    Blend: AUG-CC-PVTZ-JKFIT

    Orbital Energies [Eh]
    ---------------------

    Doubly Occupied:

       1A    -20.546471     2A    -20.515180     3A    -15.612970
       4A    -15.571673     5A    -11.385900     6A    -11.357412
       7A    -11.280534     8A    -11.273147     9A    -11.265417
      10A    -11.261908    11A    -11.258313    12A    -11.255521
      13A     -1.400518    14A     -1.369420    15A     -1.231695
      16A     -1.203434    17A     -1.174342    18A     -1.054680
      19A     -1.046351    20A     -0.906393    21A     -0.868581
      22A     -0.820346    23A     -0.787098    24A     -0.761779
      25A     -0.720770    26A     -0.696818    27A     -0.686294
      28A     -0.658709    29A     -0.648447    30A     -0.630958
      31A     -0.610091    32A     -0.592526    33A     -0.580148
      34A     -0.566256    35A     -0.538702    36A     -0.522827
      37A     -0.517075    38A     -0.455385    39A     -0.440002
      40A     -0.428789    41A     -0.402323    42A     -0.362706
      43A     -0.356172

  @DF-RHF Final Energy:  -566.46815297064018

   => Energetics <=

    Nuclear Repulsion Energy =            669.5144303168511897
    One-Electron Energy =               -2100.7170093034651472
    Two-Electron Energy =                 864.7344260159736677
    Total Energy =                       -566.4681529706401761
  Basis Set: (AUG-CC-PVTZ AUX)
    Blend: AUG-CC-PVTZ-RI
    Molecular point group: c1

    Geometry (in Angstrom), charge = 0, multiplicity = 1:

       Center              X                  Y                   Z               Mass
    ------------   -----------------  -----------------  -----------------  -----------------
         O           -0.424039328943     2.739834050745     0.839543460614    15.994914619570
         O           -2.118402328943    -1.143232949255    -0.833126539386    15.994914619570
         N           -1.806643328943     1.625416050745    -0.592490539386    14.003074004430
         N           -1.348360328943    -2.316272949255     0.954131460614    14.003074004430
         C            0.367833671057     0.665396050745    -0.022565539386    12.000000000000
         C            0.142101671057    -0.727192949255    -0.054786539386    12.000000000000
         C            1.690496671057     1.131203050745    -0.039283539386    12.000000000000
         C            1.237532671057    -1.603645949255    -0.141288539386    12.000000000000
         C            2.768441671057     0.256598050745    -0.149042539386    12.000000000000
         C            2.542214671057    -1.119495949255    -0.203767539386    12.000000000000
         C           -0.670575328943     1.753722050745     0.136846460614    12.000000000000
         C           -1.214866328943    -1.369635949255    -0.018163539386    12.000000000000
         H            1.849833671057     2.202507050745     0.040923460614     1.007825032230
         H            1.053744671057    -2.675022949255    -0.175777539386     1.007825032230
         H            3.782301671057     0.647821050745    -0.182276539386     1.007825032230
         H            3.374830671057    -1.813236949255    -0.290832539386     1.007825032230
         H           -2.052122328943     0.743877050745    -1.034610539386     1.007825032230
         H           -2.524715328943     2.320602050745    -0.431424539386     1.007825032230
         H           -0.708471328943    -2.344116949255     1.735359460614     1.007825032230
         H           -2.306982628943    -2.760408949255     1.070802660614     1.007825032230

  Basis Set: AUG-CC-PVTZ
    Blend: AUG-CC-PVTZ
  Basis Set: (AUG-CC-PVTZ AUX)
    Blend: AUG-CC-PVTZ-JKFIT
	 Reference Energy          =    -566.4681529706401761 [Eh]
	 Singles Energy            =      -0.0000000000000000 [Eh]
	 Same-Spin Energy          =      -0.5971613406598252 [Eh]
	 Opposite-Spin Energy      =      -1.7905705758068060 [Eh]
	 Correlation Energy        =      -2.3877319164666311 [Eh]
	 Total Energy              =    -568.8558848871067539 [Eh]

	 ================> DF-SCS-MP2 Energies <==================
	-----------------------------------------------------------
	 SCS Same-Spin Scale       =       0.3333333333333333 [-]
	 SCS Opposite-Spin Scale   =       1.2000000000000000 [-]
	 SCS Same-Spin Energy      =      -0.1990537802199417 [Eh]
	 SCS Opposite-Spin Energy  =      -2.1486846909681669 [Eh]
	 SCS Correlation Energy    =      -2.3477384711881086 [Eh]
	 SCS Total Energy          =    -568.8158914418282848 [Eh]
	-----------------------------------------------------------

  Dipole Moment: [D]
     X:     0.8840      Y:    -4.0593      Z:     1.0238     Total:     4.2787

*** Psi4 exiting successfully. Buy a developer a beer!
