                               Psi4 1.4a3.dev225

  ==> Input File <==

--------------------------------------------------------------------------
#psi4
#
memory 32 gb

molecule  {
0 1
  O       -0.4387840     2.7607480     0.8353900
  O       -2.1331470    -1.1223190    -0.8372800
  N       -1.8213880     1.6463300    -0.5966440
  N       -1.3631050    -2.2953590     0.9499780
  C        0.3530890     0.6863100    -0.0267190
  C        0.0953640    -0.9036507    -0.0635067
  C        1.6757520     1.1521170    -0.0434370
  C        1.2227880    -1.5827320    -0.1454420
  C        2.7536970     0.2775120    -0.1531960
  C        2.5274700    -1.0985820    -0.2079210
  C       -0.6853200     1.7746360     0.1326930
  C       -1.2296110    -1.3487220    -0.0223170
  H        1.8350890     2.2234210     0.0367700
  H        1.0390000    -2.6541090    -0.1799310
  H        3.7675570     0.6687350    -0.1864300
  H        3.3600860    -1.7923230    -0.2949860
  H       -2.0668670     0.7647910    -1.0387640
  H       -2.5394600     2.3415160    -0.4355780
  H       -0.7232160    -2.3232030     1.7312060
  H       -2.2766340    -2.7186030     1.0611610
units angstrom
no_reorient  #important for SAPT in psi4, default
symmetry c1  #important for SAPT in psi4, default
}

set PROPERTIES_ORIGIN ["COM"]
properties('MP2/aug-cc-pvtz', properties = ['dipole'])
--------------------------------------------------------------------------

    Molecular point group: c1
  Charge       = 0
  Multiplicity = 1
  Basis Set: AUG-CC-PVTZ
    Blend: AUG-CC-PVTZ
  Basis Set: (AUG-CC-PVTZ AUX)
    Blend: AUG-CC-PVTZ-JKFIT

    Orbital Energies [Eh]
    ---------------------

    Doubly Occupied:

       1A    -20.548167     2A    -20.513448     3A    -15.607066
       4A    -15.570410     5A    -11.381155     6A    -11.356361
       7A    -11.287297     8A    -11.279518     9A    -11.264797
      10A    -11.263355    11A    -11.262116    12A    -11.257039
      13A     -1.404296    14A     -1.367688    15A     -1.242313
      16A     -1.200943    17A     -1.171220    18A     -1.071045
      19A     -1.038578    20A     -0.926914    21A     -0.877851
      22A     -0.805786    23A     -0.790221    24A     -0.762932
      25A     -0.726575    26A     -0.708478    27A     -0.693312
      28A     -0.651136    29A     -0.641526    30A     -0.633243
      31A     -0.620372    32A     -0.594830    33A     -0.576074
      34A     -0.567158    35A     -0.543438    36A     -0.515981
      37A     -0.496222    38A     -0.464060    39A     -0.441257
      40A     -0.425722    41A     -0.401106    42A     -0.377989
      43A     -0.342211

  @DF-RHF Final Energy:  -566.42756444202359

   => Energetics <=

    Nuclear Repulsion Energy =            669.0152740502479674
    One-Electron Energy =               -2099.5432562163473449
    Two-Electron Energy =                 864.1004177240756690
    Total Energy =                       -566.4275644420235949
  Basis Set: (AUG-CC-PVTZ AUX)
    Blend: AUG-CC-PVTZ-RI
    Molecular point group: c1

    Geometry (in Angstrom), charge = 0, multiplicity = 1:

       Center              X                  Y                   Z               Mass
    ------------   -----------------  -----------------  -----------------  -----------------
         O           -0.421976225333     2.754142384726     0.839911204540    15.994914619570
         O           -2.116339225333    -1.128924615274    -0.832758795460    15.994914619570
         N           -1.804580225333     1.639724384726    -0.592122795460    14.003074004430
         N           -1.346297225333    -2.301964615274     0.954499204540    14.003074004430
         C            0.369896774667     0.679704384726    -0.022197795460    12.000000000000
         C            0.112171774667    -0.910256315274    -0.058985495460    12.000000000000
         C            1.692559774667     1.145511384726    -0.038915795460    12.000000000000
         C            1.239595774667    -1.589337615274    -0.140920795460    12.000000000000
         C            2.770504774667     0.270906384726    -0.148674795460    12.000000000000
         C            2.544277774667    -1.105187615274    -0.203399795460    12.000000000000
         C           -0.668512225333     1.768030384726     0.137214204540    12.000000000000
         C           -1.212803225333    -1.355327615274    -0.017795795460    12.000000000000
         H            1.851896774667     2.216815384726     0.041291204540     1.007825032230
         H            1.055807774667    -2.660714615274    -0.175409795460     1.007825032230
         H            3.784364774667     0.662129384726    -0.181908795460     1.007825032230
         H            3.376893774667    -1.798928615274    -0.290464795460     1.007825032230
         H           -2.050059225333     0.758185384726    -1.034242795460     1.007825032230
         H           -2.522652225333     2.334910384726    -0.431056795460     1.007825032230
         H           -0.706408225333    -2.329808615274     1.735727204540     1.007825032230
         H           -2.259826225333    -2.725208615274     1.065682204540     1.007825032230

  Basis Set: AUG-CC-PVTZ
    Blend: AUG-CC-PVTZ
  Basis Set: (AUG-CC-PVTZ AUX)
    Blend: AUG-CC-PVTZ-JKFIT
	 Reference Energy          =    -566.4275644420235949 [Eh]
	 Singles Energy            =      -0.0000000000000000 [Eh]
	 Same-Spin Energy          =      -0.5981626701849871 [Eh]
	 Opposite-Spin Energy      =      -1.7939989525260835 [Eh]
	 Correlation Energy        =      -2.3921616227110709 [Eh]
	 Total Energy              =    -568.8197260647347093 [Eh]

	 ================> DF-SCS-MP2 Energies <==================
	-----------------------------------------------------------
	 SCS Same-Spin Scale       =       0.3333333333333333 [-]
	 SCS Opposite-Spin Scale   =       1.2000000000000000 [-]
	 SCS Same-Spin Energy      =      -0.1993875567283290 [Eh]
	 SCS Opposite-Spin Energy  =      -2.1527987430313003 [Eh]
	 SCS Correlation Energy    =      -2.3521862997596292 [Eh]
	 SCS Total Energy          =    -568.7797507417832321 [Eh]
	-----------------------------------------------------------

  Dipole Moment: [D]
     X:     1.0825      Y:    -4.0209      Z:     0.9921     Total:     4.2806

*** Psi4 exiting successfully. Buy a developer a beer!
