                               Psi4 1.4a3.dev225

  ==> Input File <==

--------------------------------------------------------------------------
#psi4
#
memory 32 gb

molecule  {
0 1
  O       -0.4387840     2.7607480     0.8353900
  O       -2.1331470    -1.1223190    -0.8372800
  N       -1.8213880     1.6463300    -0.5966440
  N       -1.3631050    -2.2953590     0.9499780
  C        0.3530890     0.6863100    -0.0267190
  C        0.1273570    -0.7062790    -0.0589400
  C        1.6757520     1.1521170    -0.0434370
  C        1.2227880    -1.5827320    -0.1454420
  C        2.7536970     0.2775120    -0.1531960
  C        2.5274700    -1.0985820    -0.2079210
  C       -0.6853200     1.7746360     0.1326930
  C       -1.2442117    -1.3450634    -0.0354864
  H        1.8350890     2.2234210     0.0367700
  H        1.0390000    -2.6541090    -0.1799310
  H        3.7675570     0.6687350    -0.1864300
  H        3.3600860    -1.7923230    -0.2949860
  H       -2.0668670     0.7647910    -1.0387640
  H       -2.5394600     2.3415160    -0.4355780
  H       -0.7232160    -2.3232030     1.7312060
  H       -2.2766340    -2.7186030     1.0611610
units angstrom
no_reorient  #important for SAPT in psi4, default
symmetry c1  #important for SAPT in psi4, default
}

set PROPERTIES_ORIGIN ["COM"]
properties('MP2/aug-cc-pvtz', properties = ['dipole'])
--------------------------------------------------------------------------

    Molecular point group: c1
  Charge       = 0
  Multiplicity = 1
  Basis Set: AUG-CC-PVTZ
    Blend: AUG-CC-PVTZ
  Basis Set: (AUG-CC-PVTZ AUX)
    Blend: AUG-CC-PVTZ-JKFIT

    Orbital Energies [Eh]
    ---------------------

    Doubly Occupied:

       1A    -20.551142     2A    -20.515564     3A    -15.605894
       4A    -15.572735     5A    -11.385929     6A    -11.357754
       7A    -11.280112     8A    -11.272349     9A    -11.264732
      10A    -11.261504    11A    -11.257685    12A    -11.255070
      13A     -1.414480    14A     -1.369860    15A     -1.233702
      16A     -1.204312    17A     -1.173949    18A     -1.053813
      19A     -1.045720    20A     -0.906060    21A     -0.868376
      22A     -0.820777    23A     -0.786783    24A     -0.763551
      25A     -0.723358    26A     -0.701301    27A     -0.687094
      28A     -0.660202    29A     -0.650696    30A     -0.633591
      31A     -0.612070    32A     -0.594347    33A     -0.583234
      34A     -0.567048    35A     -0.539890    36A     -0.522441
      37A     -0.516873    38A     -0.457061    39A     -0.441813
      40A     -0.429253    41A     -0.403386    42A     -0.362330
      43A     -0.355752

  @DF-RHF Final Energy:  -566.47284154477939

   => Energetics <=

    Nuclear Repulsion Energy =            669.8166049799048096
    One-Electron Energy =               -2101.2517056932892956
    Two-Electron Energy =                 864.9622591686052147
    Total Energy =                       -566.4728415447793850
  Basis Set: (AUG-CC-PVTZ AUX)
    Blend: AUG-CC-PVTZ-RI
    Molecular point group: c1

    Geometry (in Angstrom), charge = 0, multiplicity = 1:

       Center              X                  Y                   Z               Mass
    ------------   -----------------  -----------------  -----------------  -----------------
         O           -0.423248378262     2.739438102654     0.840540445641    15.994914619570
         O           -2.117611378262    -1.143628897346    -0.832129554359    15.994914619570
         N           -1.805852378262     1.625020102654    -0.591493554359    14.003074004430
         N           -1.347569378262    -2.316668897346     0.955128445641    14.003074004430
         C            0.368624621738     0.665000102654    -0.021568554359    12.000000000000
         C            0.142892621738    -0.727588897346    -0.053789554359    12.000000000000
         C            1.691287621738     1.130807102654    -0.038286554359    12.000000000000
         C            1.238323621738    -1.604041897346    -0.140291554359    12.000000000000
         C            2.769232621738     0.256202102654    -0.148045554359    12.000000000000
         C            2.543005621738    -1.119891897346    -0.202770554359    12.000000000000
         C           -0.669784378262     1.753326102654     0.137843445641    12.000000000000
         C           -1.228676078262    -1.366373297346    -0.030335954359    12.000000000000
         H            1.850624621738     2.202111102654     0.041920445641     1.007825032230
         H            1.054535621738    -2.675418897346    -0.174780554359     1.007825032230
         H            3.783092621738     0.647425102654    -0.181279554359     1.007825032230
         H            3.375621621738    -1.813632897346    -0.289835554359     1.007825032230
         H           -2.051331378262     0.743481102654    -1.033613554359     1.007825032230
         H           -2.523924378262     2.320206102654    -0.430427554359     1.007825032230
         H           -0.707680378262    -2.344512897346     1.736356445641     1.007825032230
         H           -2.261098378262    -2.739912897346     1.066311445641     1.007825032230

  Basis Set: AUG-CC-PVTZ
    Blend: AUG-CC-PVTZ
  Basis Set: (AUG-CC-PVTZ AUX)
    Blend: AUG-CC-PVTZ-JKFIT
	 Reference Energy          =    -566.4728415447793850 [Eh]
	 Singles Energy            =      -0.0000000000000000 [Eh]
	 Same-Spin Energy          =      -0.5963418304747152 [Eh]
	 Opposite-Spin Energy      =      -1.7888419803557161 [Eh]
	 Correlation Energy        =      -2.3851838108304313 [Eh]
	 Total Energy              =    -568.8580253556098114 [Eh]

	 ================> DF-SCS-MP2 Energies <==================
	-----------------------------------------------------------
	 SCS Same-Spin Scale       =       0.3333333333333333 [-]
	 SCS Opposite-Spin Scale   =       1.2000000000000000 [-]
	 SCS Same-Spin Energy      =      -0.1987806101582384 [Eh]
	 SCS Opposite-Spin Energy  =      -2.1466103764268594 [Eh]
	 SCS Correlation Energy    =      -2.3453909865850977 [Eh]
	 SCS Total Energy          =    -568.8182325313645151 [Eh]
	-----------------------------------------------------------

  Dipole Moment: [D]
     X:     0.8406      Y:    -3.9760      Z:     0.9086     Total:     4.1642

*** Psi4 exiting successfully. Buy a developer a beer!
