                               Psi4 1.4a3.dev225

  ==> Input File <==

--------------------------------------------------------------------------
#psi4
#
memory 32 gb

molecule  {
0 1
  O       -0.4387840     2.7607480     0.8353900
  O       -2.1331470    -1.1223190    -0.8372800
  N       -1.8213880     1.6463300    -0.5966440
  N       -1.3631050    -2.2953590     0.9499780
  C        0.3530890     0.6863100    -0.0267190
  C        0.1273570    -0.7062790    -0.0589400
  C        1.6757520     1.1521170    -0.0434370
  C        1.2227880    -1.5827320    -0.1454420
  C        2.7536970     0.2775120    -0.1531960
  C        2.5274700    -1.0985820    -0.2079210
  C       -0.6853200     1.7746360     0.1326930
  C       -1.2296110    -1.3487220    -0.0223170
  H        1.8350890     2.2234210     0.0367700
  H        1.0390000    -2.6541090    -0.1799310
  H        3.7675570     0.6687350    -0.1864300
  H        3.3600860    -1.7923230    -0.2949860
  H       -2.0789442     0.7214205    -1.0605157
  H       -2.5394600     2.3415160    -0.4355780
  H       -0.7232160    -2.3232030     1.7312060
  H       -2.2766340    -2.7186030     1.0611610
units angstrom
no_reorient  #important for SAPT in psi4, default
symmetry c1  #important for SAPT in psi4, default
}

set PROPERTIES_ORIGIN ["COM"]
properties('MP2/aug-cc-pvtz', properties = ['dipole'])
--------------------------------------------------------------------------

    Molecular point group: c1
  Charge       = 0
  Multiplicity = 1
  Basis Set: AUG-CC-PVTZ
    Blend: AUG-CC-PVTZ
  Basis Set: (AUG-CC-PVTZ AUX)
    Blend: AUG-CC-PVTZ-JKFIT

    Orbital Energies [Eh]
    ---------------------

    Doubly Occupied:

       1A    -20.548888     2A    -20.514001     3A    -15.610053
       4A    -15.573341     5A    -11.387736     6A    -11.356267
       7A    -11.280636     8A    -11.273081     9A    -11.265750
      10A    -11.261984    11A    -11.258432    12A    -11.255393
      13A     -1.403427    14A     -1.368094    15A     -1.238029
      16A     -1.197076    17A     -1.174180    18A     -1.055314
      19A     -1.046515    20A     -0.908345    21A     -0.868499
      22A     -0.822399    23A     -0.785855    24A     -0.761899
      25A     -0.718317    26A     -0.701470    27A     -0.684765
      28A     -0.659226    29A     -0.649258    30A     -0.631943
      31A     -0.611400    32A     -0.591067    33A     -0.580073
      34A     -0.565606    35A     -0.538848    36A     -0.522732
      37A     -0.517052    38A     -0.456632    39A     -0.442201
      40A     -0.427755    41A     -0.400089    42A     -0.362981
      43A     -0.356120

  @DF-RHF Final Energy:  -566.46811257400395

   => Energetics <=

    Nuclear Repulsion Energy =            669.6314914570510837
    One-Electron Energy =               -2100.9337516247624080
    Two-Electron Energy =                 864.8341475937072573
    Total Energy =                       -566.4681125740039533
  Basis Set: (AUG-CC-PVTZ AUX)
    Blend: AUG-CC-PVTZ-RI
    Molecular point group: c1

    Geometry (in Angstrom), charge = 0, multiplicity = 1:

       Center              X                  Y                   Z               Mass
    ------------   -----------------  -----------------  -----------------  -----------------
         O           -0.424242149500     2.739972137978     0.839710797510    15.994914619570
         O           -2.118605149500    -1.143094862022    -0.832959202490    15.994914619570
         N           -1.806846149500     1.625554137978    -0.592323202490    14.003074004430
         N           -1.348563149500    -2.316134862022     0.954298797510    14.003074004430
         C            0.367630850500     0.665534137978    -0.022398202490    12.000000000000
         C            0.141898850500    -0.727054862022    -0.054619202490    12.000000000000
         C            1.690293850500     1.131341137978    -0.039116202490    12.000000000000
         C            1.237329850500    -1.603507862022    -0.141121202490    12.000000000000
         C            2.768238850500     0.256736137978    -0.148875202490    12.000000000000
         C            2.542011850500    -1.119357862022    -0.203600202490    12.000000000000
         C           -0.670778149500     1.753860137978     0.137013797510    12.000000000000
         C           -1.215069149500    -1.369497862022    -0.017996202490    12.000000000000
         H            1.849630850500     2.202645137978     0.041090797510     1.007825032230
         H            1.053541850500    -2.674884862022    -0.175610202490     1.007825032230
         H            3.782098850500     0.647959137978    -0.182109202490     1.007825032230
         H            3.374627850500    -1.813098862022    -0.290665202490     1.007825032230
         H           -2.064402349500     0.700644637978    -1.056194902490     1.007825032230
         H           -2.524918149500     2.320740137978    -0.431257202490     1.007825032230
         H           -0.708674149500    -2.343978862022     1.735526797510     1.007825032230
         H           -2.262092149500    -2.739378862022     1.065481797510     1.007825032230

  Basis Set: AUG-CC-PVTZ
    Blend: AUG-CC-PVTZ
  Basis Set: (AUG-CC-PVTZ AUX)
    Blend: AUG-CC-PVTZ-JKFIT
	 Reference Energy          =    -566.4681125740039533 [Eh]
	 Singles Energy            =      -0.0000000000000000 [Eh]
	 Same-Spin Energy          =      -0.5973713739176689 [Eh]
	 Opposite-Spin Energy      =      -1.7906175492787169 [Eh]
	 Correlation Energy        =      -2.3879889231963860 [Eh]
	 Total Energy              =    -568.8561014972003704 [Eh]

	 ================> DF-SCS-MP2 Energies <==================
	-----------------------------------------------------------
	 SCS Same-Spin Scale       =       0.3333333333333333 [-]
	 SCS Opposite-Spin Scale   =       1.2000000000000000 [-]
	 SCS Same-Spin Energy      =      -0.1991237913058896 [Eh]
	 SCS Opposite-Spin Energy  =      -2.1487410591344602 [Eh]
	 SCS Correlation Energy    =      -2.3478648504403496 [Eh]
	 SCS Total Energy          =    -568.8159774244443270 [Eh]
	-----------------------------------------------------------

  Dipole Moment: [D]
     X:     0.9116      Y:    -4.1529      Z:     0.9958     Total:     4.3668

*** Psi4 exiting successfully. Buy a developer a beer!
