                               Psi4 1.4a3.dev225

  ==> Input File <==

--------------------------------------------------------------------------
#psi4
#
memory 32 gb

molecule  {
0 1
  O       -0.4387840     2.7607480     0.8353900
  O       -2.1331470    -1.1223190    -0.8372800
  N       -1.8213880     1.6463300    -0.5966440
  N       -1.3631050    -2.2953590     0.9499780
  C        0.3530890     0.6863100    -0.0267190
  C        0.1273570    -0.7062790    -0.0589400
  C        1.6757520     1.1521170    -0.0434370
  C        1.2227880    -1.5827320    -0.1454420
  C        2.7536970     0.2775120    -0.1531960
  C        2.5274700    -1.0985820    -0.2079210
  C       -0.6853200     1.7746360     0.1326930
  C       -1.0836038    -1.3853077     0.1093772
  H        1.8350890     2.2234210     0.0367700
  H        1.0390000    -2.6541090    -0.1799310
  H        3.7675570     0.6687350    -0.1864300
  H        3.3600860    -1.7923230    -0.2949860
  H       -2.0668670     0.7647910    -1.0387640
  H       -2.5394600     2.3415160    -0.4355780
  H       -0.7232160    -2.3232030     1.7312060
  H       -2.2766340    -2.7186030     1.0611610
units angstrom
no_reorient  #important for SAPT in psi4, default
symmetry c1  #important for SAPT in psi4, default
}

set PROPERTIES_ORIGIN ["COM"]
properties('MP2/aug-cc-pvtz', properties = ['dipole'])
--------------------------------------------------------------------------

    Molecular point group: c1
  Charge       = 0
  Multiplicity = 1
  Basis Set: AUG-CC-PVTZ
    Blend: AUG-CC-PVTZ
  Basis Set: (AUG-CC-PVTZ AUX)
    Blend: AUG-CC-PVTZ-JKFIT

    Orbital Energies [Eh]
    ---------------------

    Doubly Occupied:

       1A    -20.512864     2A    -20.507759     3A    -15.638826
       4A    -15.563715     5A    -11.384774     6A    -11.355436
       7A    -11.283312     8A    -11.281455     9A    -11.273180
      10A    -11.267033    11A    -11.265129    12A    -11.260816
      13A     -1.367735    14A     -1.349182    15A     -1.220428
      16A     -1.195187    17A     -1.183550    18A     -1.073739
      19A     -1.053589    20A     -0.929963    21A     -0.874473
      22A     -0.841820    23A     -0.796675    24A     -0.773451
      25A     -0.741728    26A     -0.715699    27A     -0.684689
      28A     -0.669708    29A     -0.644186    30A     -0.625166
      31A     -0.597377    32A     -0.579501    33A     -0.572057
      34A     -0.546763    35A     -0.532066    36A     -0.529649
      37A     -0.513055    38A     -0.430204    39A     -0.426444
      40A     -0.414595    41A     -0.391048    42A     -0.363010
      43A     -0.361297

  @DF-RHF Final Energy:  -566.40695122318186

   => Energetics <=

    Nuclear Repulsion Energy =            670.0616092747220591
    One-Electron Energy =               -2101.7524582753076174
    Two-Electron Energy =                 865.2838977774036948
    Total Energy =                       -566.4069512231818635
  Basis Set: (AUG-CC-PVTZ AUX)
    Blend: AUG-CC-PVTZ-RI
    Molecular point group: c1

    Geometry (in Angstrom), charge = 0, multiplicity = 1:

       Center              X                  Y                   Z               Mass
    ------------   -----------------  -----------------  -----------------  -----------------
         O           -0.434995979816     2.742381756118     0.829944454706    15.994914619570
         O           -2.129358979816    -1.140685243882    -0.842725545294    15.994914619570
         N           -1.817599979816     1.627963756118    -0.602089545294    14.003074004430
         N           -1.359316979816    -2.313725243882     0.944532454706    14.003074004430
         C            0.356877020184     0.667943756118    -0.032164545294    12.000000000000
         C            0.131145020184    -0.724645243882    -0.064385545294    12.000000000000
         C            1.679540020184     1.133750756118    -0.048882545294    12.000000000000
         C            1.226576020184    -1.601098243882    -0.150887545294    12.000000000000
         C            2.757485020184     0.259145756118    -0.158641545294    12.000000000000
         C            2.531258020184    -1.116948243882    -0.213366545294    12.000000000000
         C           -0.681531979816     1.756269756118     0.127247454706    12.000000000000
         C           -1.079815779816    -1.403673943882     0.103931654706    12.000000000000
         H            1.838877020184     2.205054756118     0.031324454706     1.007825032230
         H            1.042788020184    -2.672475243882    -0.185376545294     1.007825032230
         H            3.771345020184     0.650368756118    -0.191875545294     1.007825032230
         H            3.363874020184    -1.810689243882    -0.300431545294     1.007825032230
         H           -2.063078979816     0.746424756118    -1.044209545294     1.007825032230
         H           -2.535671979816     2.323149756118    -0.441023545294     1.007825032230
         H           -0.719427979816    -2.341569243882     1.725760454706     1.007825032230
         H           -2.272845979816    -2.736969243882     1.055715454706     1.007825032230

  Basis Set: AUG-CC-PVTZ
    Blend: AUG-CC-PVTZ
  Basis Set: (AUG-CC-PVTZ AUX)
    Blend: AUG-CC-PVTZ-JKFIT
	 Reference Energy          =    -566.4069512231818635 [Eh]
	 Singles Energy            =      -0.0000000000000000 [Eh]
	 Same-Spin Energy          =      -0.6016147201085112 [Eh]
	 Opposite-Spin Energy      =      -1.7985461713877098 [Eh]
	 Correlation Energy        =      -2.4001608914962209 [Eh]
	 Total Energy              =    -568.8071121146780342 [Eh]

	 ================> DF-SCS-MP2 Energies <==================
	-----------------------------------------------------------
	 SCS Same-Spin Scale       =       0.3333333333333333 [-]
	 SCS Opposite-Spin Scale   =       1.2000000000000000 [-]
	 SCS Same-Spin Energy      =      -0.2005382400361704 [Eh]
	 SCS Opposite-Spin Energy  =      -2.1582554056652516 [Eh]
	 SCS Correlation Energy    =      -2.3587936457014220 [Eh]
	 SCS Total Energy          =    -568.7657448688833028 [Eh]
	-----------------------------------------------------------

  Dipole Moment: [D]
     X:     1.7467      Y:    -4.5119      Z:     1.9597     Total:     5.2200

*** Psi4 exiting successfully. Buy a developer a beer!
