                               Psi4 1.4a3.dev225

  ==> Input File <==

--------------------------------------------------------------------------
#psi4
#
memory 32 gb

molecule  {
0 1
  O       -0.4387840     2.7607480     0.8353900
  O       -2.1331470    -1.1223190    -0.8372800
  N       -1.8213880     1.6463300    -0.5966440
  N       -1.3631050    -2.2953590     0.9499780
  C        0.3530890     0.6863100    -0.0267190
  C        0.1273570    -0.7062790    -0.0589400
  C        1.6757520     1.1521170    -0.0434370
  C        1.2227880    -1.5827320    -0.1454420
  C        2.8015252     0.2689235    -0.1566312
  C        2.5274700    -1.0985820    -0.2079210
  C       -0.6853200     1.7746360     0.1326930
  C       -1.2296110    -1.3487220    -0.0223170
  H        1.8350890     2.2234210     0.0367700
  H        1.0390000    -2.6541090    -0.1799310
  H        3.7675570     0.6687350    -0.1864300
  H        3.3600860    -1.7923230    -0.2949860
  H       -2.0668670     0.7647910    -1.0387640
  H       -2.5394600     2.3415160    -0.4355780
  H       -0.7232160    -2.3232030     1.7312060
  H       -2.2766340    -2.7186030     1.0611610
units angstrom
no_reorient  #important for SAPT in psi4, default
symmetry c1  #important for SAPT in psi4, default
}

set PROPERTIES_ORIGIN ["COM"]
properties('MP2/aug-cc-pvtz', properties = ['dipole'])
--------------------------------------------------------------------------

    Molecular point group: c1
  Charge       = 0
  Multiplicity = 1
  Basis Set: AUG-CC-PVTZ
    Blend: AUG-CC-PVTZ
  Basis Set: (AUG-CC-PVTZ AUX)
    Blend: AUG-CC-PVTZ-JKFIT

    Orbital Energies [Eh]
    ---------------------

    Doubly Occupied:

       1A    -20.547215     2A    -20.514843     3A    -15.609102
       4A    -15.571653     5A    -11.386428     6A    -11.357394
       7A    -11.281318     8A    -11.272668     9A    -11.265870
      10A    -11.262575    11A    -11.261254    12A    -11.259834
      13A     -1.401610    14A     -1.369175    15A     -1.236942
      16A     -1.203284    17A     -1.171699    18A     -1.055342
      19A     -1.043599    20A     -0.908102    21A     -0.868848
      22A     -0.822436    23A     -0.788800    24A     -0.763450
      25A     -0.726001    26A     -0.701987    27A     -0.688340
      28A     -0.660503    29A     -0.648984    30A     -0.632226
      31A     -0.609618    32A     -0.592731    33A     -0.580564
      34A     -0.567769    35A     -0.543324    36A     -0.519728
      37A     -0.514794    38A     -0.456082    39A     -0.441013
      40A     -0.428825    41A     -0.402259    42A     -0.362490
      43A     -0.353615

  @DF-RHF Final Energy:  -566.46830416238197

   => Energetics <=

    Nuclear Repulsion Energy =            668.8633248930976833
    One-Electron Energy =               -2099.3546687767625372
    Two-Electron Energy =                 864.0230397212827711
    Total Energy =                       -566.4683041623819690
  Basis Set: (AUG-CC-PVTZ AUX)
    Blend: AUG-CC-PVTZ-RI
    Molecular point group: c1

    Geometry (in Angstrom), charge = 0, multiplicity = 1:

       Center              X                  Y                   Z               Mass
    ------------   -----------------  -----------------  -----------------  -----------------
         O           -0.427814715551     2.740333911957     0.839828441418    15.994914619570
         O           -2.122177715551    -1.142733088043    -0.832841558582    15.994914619570
         N           -1.810418715551     1.625915911957    -0.592205558582    14.003074004430
         N           -1.352135715551    -2.315773088043     0.954416441418    14.003074004430
         C            0.364058284449     0.665895911957    -0.022280558582    12.000000000000
         C            0.138326284449    -0.726693088043    -0.054501558582    12.000000000000
         C            1.686721284449     1.131702911957    -0.038998558582    12.000000000000
         C            1.233757284449    -1.603146088043    -0.141003558582    12.000000000000
         C            2.812494484449     0.248509411957    -0.152192758582    12.000000000000
         C            2.538439284449    -1.118996088043    -0.203482558582    12.000000000000
         C           -0.674350715551     1.754221911957     0.137131441418    12.000000000000
         C           -1.218641715551    -1.369136088043    -0.017878558582    12.000000000000
         H            1.846058284449     2.203006911957     0.041208441418     1.007825032230
         H            1.049969284449    -2.674523088043    -0.175492558582     1.007825032230
         H            3.778526284449     0.648320911957    -0.181991558582     1.007825032230
         H            3.371055284449    -1.812737088043    -0.290547558582     1.007825032230
         H           -2.055897715551     0.744376911957    -1.034325558582     1.007825032230
         H           -2.528490715551     2.321101911957    -0.431139558582     1.007825032230
         H           -0.712246715551    -2.343617088043     1.735644441418     1.007825032230
         H           -2.265664715551    -2.739017088043     1.065599441418     1.007825032230

  Basis Set: AUG-CC-PVTZ
    Blend: AUG-CC-PVTZ
  Basis Set: (AUG-CC-PVTZ AUX)
    Blend: AUG-CC-PVTZ-JKFIT
	 Reference Energy          =    -566.4683041623819690 [Eh]
	 Singles Energy            =      -0.0000000000000000 [Eh]
	 Same-Spin Energy          =      -0.5967866561021007 [Eh]
	 Opposite-Spin Energy      =      -1.7900724607030036 [Eh]
	 Correlation Energy        =      -2.3868591168051045 [Eh]
	 Total Energy              =    -568.8551632791870816 [Eh]

	 ================> DF-SCS-MP2 Energies <==================
	-----------------------------------------------------------
	 SCS Same-Spin Scale       =       0.3333333333333333 [-]
	 SCS Opposite-Spin Scale   =       1.2000000000000000 [-]
	 SCS Same-Spin Energy      =      -0.1989288853673669 [Eh]
	 SCS Opposite-Spin Energy  =      -2.1480869528436042 [Eh]
	 SCS Correlation Energy    =      -2.3470158382109712 [Eh]
	 SCS Total Energy          =    -568.8153200005929193 [Eh]
	-----------------------------------------------------------

  Dipole Moment: [D]
     X:     0.9466      Y:    -4.0120      Z:     1.0166     Total:     4.2457

*** Psi4 exiting successfully. Buy a developer a beer!
