                               Psi4 1.4a3.dev225

  ==> Input File <==

--------------------------------------------------------------------------
#psi4
#
memory 32 gb

molecule  {
0 1
  O       -0.4387840     2.7607480     0.8353900
  O       -2.1331470    -1.1223190    -0.8372800
  N       -1.8213880     1.6463300    -0.5966440
  N       -1.3631050    -2.2953590     0.9499780
  C        0.3530890     0.6863100    -0.0267190
  C        0.1273570    -0.7062790    -0.0589400
  C        1.6757520     1.1521170    -0.0434370
  C        1.2227880    -1.5827320    -0.1454420
  C        2.7536970     0.2775120    -0.1531960
  C        2.5274700    -1.0985820    -0.2079210
  C       -0.7252219     1.6150335     0.0189613
  C       -1.2296110    -1.3487220    -0.0223170
  H        1.8350890     2.2234210     0.0367700
  H        1.0390000    -2.6541090    -0.1799310
  H        3.7675570     0.6687350    -0.1864300
  H        3.3600860    -1.7923230    -0.2949860
  H       -2.0668670     0.7647910    -1.0387640
  H       -2.5394600     2.3415160    -0.4355780
  H       -0.7232160    -2.3232030     1.7312060
  H       -2.2766340    -2.7186030     1.0611610
units angstrom
no_reorient  #important for SAPT in psi4, default
symmetry c1  #important for SAPT in psi4, default
}

set PROPERTIES_ORIGIN ["COM"]
properties('MP2/aug-cc-pvtz', properties = ['dipole'])
--------------------------------------------------------------------------

    Molecular point group: c1
  Charge       = 0
  Multiplicity = 1
  Basis Set: AUG-CC-PVTZ
    Blend: AUG-CC-PVTZ
  Basis Set: (AUG-CC-PVTZ AUX)
    Blend: AUG-CC-PVTZ-JKFIT

    Orbital Energies [Eh]
    ---------------------

    Doubly Occupied:

       1A    -20.555136     2A    -20.474921     3A    -15.614299
       4A    -15.600637     5A    -11.393356     6A    -11.353276
       7A    -11.284894     8A    -11.277244     9A    -11.268556
      10A    -11.267201    11A    -11.262312    12A    -11.260915
      13A     -1.409615    14A     -1.317252    15A     -1.242681
      16A     -1.189944    17A     -1.176419    18A     -1.066294
      19A     -1.051496    20A     -0.921395    21A     -0.884890
      22A     -0.828549    23A     -0.805995    24A     -0.773576
      25A     -0.738155    26A     -0.717288    27A     -0.705881
      28A     -0.663680    29A     -0.661672    30A     -0.631722
      31A     -0.613409    32A     -0.593577    33A     -0.567322
      34A     -0.546054    35A     -0.539701    36A     -0.520855
      37A     -0.488934    38A     -0.462367    39A     -0.445514
      40A     -0.398766    41A     -0.375779    42A     -0.364773
      43A     -0.350061

  @DF-RHF Final Energy:  -566.40900741827750

   => Energetics <=

    Nuclear Repulsion Energy =            670.8497014010181374
    One-Electron Energy =               -2103.1846945255788341
    Two-Electron Energy =                 865.9259857062831998
    Total Energy =                       -566.4090074182774970
  Basis Set: (AUG-CC-PVTZ AUX)
    Blend: AUG-CC-PVTZ-RI
    Molecular point group: c1

    Geometry (in Angstrom), charge = 0, multiplicity = 1:

       Center              X                  Y                   Z               Mass
    ------------   -----------------  -----------------  -----------------  -----------------
         O           -0.421397731959     2.751379771476     0.847896035445    15.994914619570
         O           -2.115760731959    -1.131687228524    -0.824773964555    15.994914619570
         N           -1.804001731959     1.636961771476    -0.584137964555    14.003074004430
         N           -1.345718731959    -2.304727228524     0.962484035445    14.003074004430
         C            0.370475268041     0.676941771476    -0.014212964555    12.000000000000
         C            0.144743268041    -0.715647228524    -0.046433964555    12.000000000000
         C            1.693138268041     1.142748771476    -0.030930964555    12.000000000000
         C            1.240174268041    -1.592100228524    -0.132935964555    12.000000000000
         C            2.771083268041     0.268143771476    -0.140689964555    12.000000000000
         C            2.544856268041    -1.107950228524    -0.195414964555    12.000000000000
         C           -0.707835631959     1.605665271476     0.031467335445    12.000000000000
         C           -1.212224731959    -1.358090228524    -0.009810964555    12.000000000000
         H            1.852475268041     2.214052771476     0.049276035445     1.007825032230
         H            1.056386268041    -2.663477228524    -0.167424964555     1.007825032230
         H            3.784943268041     0.659366771476    -0.173923964555     1.007825032230
         H            3.377472268041    -1.801691228524    -0.282479964555     1.007825032230
         H           -2.049480731959     0.755422771476    -1.026257964555     1.007825032230
         H           -2.522073731959     2.332147771476    -0.423071964555     1.007825032230
         H           -0.705829731959    -2.332571228524     1.743712035445     1.007825032230
         H           -2.259247731959    -2.727971228524     1.073667035445     1.007825032230

  Basis Set: AUG-CC-PVTZ
    Blend: AUG-CC-PVTZ
  Basis Set: (AUG-CC-PVTZ AUX)
    Blend: AUG-CC-PVTZ-JKFIT
	 Reference Energy          =    -566.4090074182774970 [Eh]
	 Singles Energy            =      -0.0000000000000000 [Eh]
	 Same-Spin Energy          =      -0.6009905258430414 [Eh]
	 Opposite-Spin Energy      =      -1.7978799131293264 [Eh]
	 Correlation Energy        =      -2.3988704389723678 [Eh]
	 Total Energy              =    -568.8078778572498777 [Eh]

	 ================> DF-SCS-MP2 Energies <==================
	-----------------------------------------------------------
	 SCS Same-Spin Scale       =       0.3333333333333333 [-]
	 SCS Opposite-Spin Scale   =       1.2000000000000000 [-]
	 SCS Same-Spin Energy      =      -0.2003301752810138 [Eh]
	 SCS Opposite-Spin Energy  =      -2.1574558957551915 [Eh]
	 SCS Correlation Energy    =      -2.3577860710362053 [Eh]
	 SCS Total Energy          =    -568.7667934893137272 [Eh]
	-----------------------------------------------------------

  Dipole Moment: [D]
     X:     0.5245      Y:    -4.9488      Z:     0.1759     Total:     4.9796

*** Psi4 exiting successfully. Buy a developer a beer!
