                               Psi4 1.4a3.dev225

  ==> Input File <==

--------------------------------------------------------------------------
#psi4
#
memory 32 gb

molecule  {
0 1
  O       -0.4387840     2.7607480     0.8353900
  O       -2.1331470    -1.1223190    -0.8372800
  N       -1.8213880     1.6463300    -0.5966440
  N       -1.3631050    -2.2953590     0.9499780
  C        0.3530890     0.6863100    -0.0267190
  C        0.1273570    -0.7062790    -0.0589400
  C        1.6171777     1.0745584    -0.0437092
  C        1.2227880    -1.5827320    -0.1454420
  C        2.7536970     0.2775120    -0.1531960
  C        2.5274700    -1.0985820    -0.2079210
  C       -0.6853200     1.7746360     0.1326930
  C       -1.2296110    -1.3487220    -0.0223170
  H        1.8350890     2.2234210     0.0367700
  H        1.0390000    -2.6541090    -0.1799310
  H        3.7675570     0.6687350    -0.1864300
  H        3.3600860    -1.7923230    -0.2949860
  H       -2.0668670     0.7647910    -1.0387640
  H       -2.5394600     2.3415160    -0.4355780
  H       -0.7232160    -2.3232030     1.7312060
  H       -2.2766340    -2.7186030     1.0611610
units angstrom
no_reorient  #important for SAPT in psi4, default
symmetry c1  #important for SAPT in psi4, default
}

set PROPERTIES_ORIGIN ["COM"]
properties('MP2/aug-cc-pvtz', properties = ['dipole'])
--------------------------------------------------------------------------

    Molecular point group: c1
  Charge       = 0
  Multiplicity = 1
  Basis Set: AUG-CC-PVTZ
    Blend: AUG-CC-PVTZ
  Basis Set: (AUG-CC-PVTZ AUX)
    Blend: AUG-CC-PVTZ-JKFIT

    Orbital Energies [Eh]
    ---------------------

    Doubly Occupied:

       1A    -20.546813     2A    -20.515295     3A    -15.608693
       4A    -15.572342     5A    -11.385623     6A    -11.358071
       7A    -11.280465     8A    -11.264874     9A    -11.263644
      10A    -11.261640    11A    -11.258957    12A    -11.252269
      13A     -1.401253    14A     -1.369526    15A     -1.236719
      16A     -1.204812    17A     -1.183106    18A     -1.059456
      19A     -1.049845    20A     -0.909693    21A     -0.868160
      22A     -0.819480    23A     -0.791591    24A     -0.763331
      25A     -0.726259    26A     -0.700067    27A     -0.689662
      28A     -0.658061    29A     -0.648890    30A     -0.632786
      31A     -0.601327    32A     -0.595918    33A     -0.580960
      34A     -0.568149    35A     -0.548566    36A     -0.522353
      37A     -0.500276    38A     -0.456147    39A     -0.440496
      40A     -0.429557    41A     -0.402279    42A     -0.366118
      43A     -0.359681

  @DF-RHF Final Energy:  -566.45992991644744

   => Energetics <=

    Nuclear Repulsion Energy =            671.6903991181138736
    One-Electron Energy =               -2104.9942286508216966
    Two-Electron Energy =                 866.8438996162603871
    Total Energy =                       -566.4599299164474360
  Basis Set: (AUG-CC-PVTZ AUX)
    Blend: AUG-CC-PVTZ-RI
    Molecular point group: c1

    Geometry (in Angstrom), charge = 0, multiplicity = 1:

       Center              X                  Y                   Z               Mass
    ------------   -----------------  -----------------  -----------------  -----------------
         O           -0.420031946619     2.745378702742     0.839597085030    15.994914619570
         O           -2.114394946619    -1.137688297258    -0.833072914970    15.994914619570
         N           -1.802635946619     1.630960702742    -0.592436914970    14.003074004430
         N           -1.344352946619    -2.310728297258     0.954185085030    14.003074004430
         C            0.371841053381     0.670940702742    -0.022511914970    12.000000000000
         C            0.146109053381    -0.721648297258    -0.054732914970    12.000000000000
         C            1.635929753381     1.059189102742    -0.039502114970    12.000000000000
         C            1.241540053381    -1.598101297258    -0.141234914970    12.000000000000
         C            2.772449053381     0.262142702742    -0.148988914970    12.000000000000
         C            2.546222053381    -1.113951297258    -0.203713914970    12.000000000000
         C           -0.666567946619     1.759266702742     0.136900085030    12.000000000000
         C           -1.210858946619    -1.364091297258    -0.018109914970    12.000000000000
         H            1.853841053381     2.208051702742     0.040977085030     1.007825032230
         H            1.057752053381    -2.669478297258    -0.175723914970     1.007825032230
         H            3.786309053381     0.653365702742    -0.182222914970     1.007825032230
         H            3.378838053381    -1.807692297258    -0.290778914970     1.007825032230
         H           -2.048114946619     0.749421702742    -1.034556914970     1.007825032230
         H           -2.520707946619     2.326146702742    -0.431370914970     1.007825032230
         H           -0.704463946619    -2.338572297258     1.735413085030     1.007825032230
         H           -2.257881946619    -2.733972297258     1.065368085030     1.007825032230

  Basis Set: AUG-CC-PVTZ
    Blend: AUG-CC-PVTZ
  Basis Set: (AUG-CC-PVTZ AUX)
    Blend: AUG-CC-PVTZ-JKFIT
	 Reference Energy          =    -566.4599299164474360 [Eh]
	 Singles Energy            =      -0.0000000000000000 [Eh]
	 Same-Spin Energy          =      -0.5971574746662263 [Eh]
	 Opposite-Spin Energy      =      -1.7902485175473051 [Eh]
	 Correlation Energy        =      -2.3874059922135311 [Eh]
	 Total Energy              =    -568.8473359086609662 [Eh]

	 ================> DF-SCS-MP2 Energies <==================
	-----------------------------------------------------------
	 SCS Same-Spin Scale       =       0.3333333333333333 [-]
	 SCS Opposite-Spin Scale   =       1.2000000000000000 [-]
	 SCS Same-Spin Energy      =      -0.1990524915554087 [Eh]
	 SCS Opposite-Spin Energy  =      -2.1482982210567658 [Eh]
	 SCS Correlation Energy    =      -2.3473507126121747 [Eh]
	 SCS Total Energy          =    -568.8072806290596191 [Eh]
	-----------------------------------------------------------

  Dipole Moment: [D]
     X:     0.9401      Y:    -4.0513      Z:     1.0113     Total:     4.2801

*** Psi4 exiting successfully. Buy a developer a beer!
