                               Psi4 1.4a3.dev225

  ==> Input File <==

--------------------------------------------------------------------------
#psi4
#
memory 32 gb

molecule  {
0 1
  O       -0.4387840     2.7607480     0.8353900
  O       -2.1331470    -1.1223190    -0.8372800
  N       -1.8213880     1.6463300    -0.5966440
  N       -1.3631050    -2.2953590     0.9499780
  C        0.3240452     0.7793784    -0.0179858
  C        0.1273570    -0.7062790    -0.0589400
  C        1.6757520     1.1521170    -0.0434370
  C        1.2227880    -1.5827320    -0.1454420
  C        2.7536970     0.2775120    -0.1531960
  C        2.5274700    -1.0985820    -0.2079210
  C       -0.6853200     1.7746360     0.1326930
  C       -1.2296110    -1.3487220    -0.0223170
  H        1.8350890     2.2234210     0.0367700
  H        1.0390000    -2.6541090    -0.1799310
  H        3.7675570     0.6687350    -0.1864300
  H        3.3600860    -1.7923230    -0.2949860
  H       -2.0668670     0.7647910    -1.0387640
  H       -2.5394600     2.3415160    -0.4355780
  H       -0.7232160    -2.3232030     1.7312060
  H       -2.2766340    -2.7186030     1.0611610
units angstrom
no_reorient  #important for SAPT in psi4, default
symmetry c1  #important for SAPT in psi4, default
}

set PROPERTIES_ORIGIN ["COM"]
properties('MP2/aug-cc-pvtz', properties = ['dipole'])
--------------------------------------------------------------------------

    Molecular point group: c1
  Charge       = 0
  Multiplicity = 1
  Basis Set: AUG-CC-PVTZ
    Blend: AUG-CC-PVTZ
  Basis Set: (AUG-CC-PVTZ AUX)
    Blend: AUG-CC-PVTZ-JKFIT

    Orbital Energies [Eh]
    ---------------------

    Doubly Occupied:

       1A    -20.546189     2A    -20.512850     3A    -15.608180
       4A    -15.571313     5A    -11.384993     6A    -11.351262
       7A    -11.289953     8A    -11.276096     9A    -11.267534
      10A    -11.265214    11A    -11.260438    12A    -11.258543
      13A     -1.400549    14A     -1.371742    15A     -1.235868
      16A     -1.203988    17A     -1.169325    18A     -1.054353
      19A     -1.049427    20A     -0.918891    21A     -0.874552
      22A     -0.813059    23A     -0.789508    24A     -0.762016
      25A     -0.726816    26A     -0.702582    27A     -0.690683
      28A     -0.656302    29A     -0.650901    30A     -0.631401
      31A     -0.610283    32A     -0.596343    33A     -0.578217
      34A     -0.568954    35A     -0.545333    36A     -0.513387
      37A     -0.512229    38A     -0.455607    39A     -0.439977
      40A     -0.432360    41A     -0.401799    42A     -0.361600
      43A     -0.353097

  @DF-RHF Final Energy:  -566.45821434115510

   => Energetics <=

    Nuclear Repulsion Energy =            669.4410810994241956
    One-Electron Energy =               -2100.4711641027779478
    Two-Electron Energy =                 864.5718686621987672
    Total Energy =                       -566.4582143411550987
  Basis Set: (AUG-CC-PVTZ AUX)
    Blend: AUG-CC-PVTZ-RI
    Molecular point group: c1

    Geometry (in Angstrom), charge = 0, multiplicity = 1:

       Center              X                  Y                   Z               Mass
    ------------   -----------------  -----------------  -----------------  -----------------
         O           -0.422191943405     2.732898258067     0.838938388595    15.994914619570
         O           -2.116554943405    -1.150168741933    -0.833731611405    15.994914619570
         N           -1.804795943405     1.618480258067    -0.593095611405    14.003074004430
         N           -1.346512943405    -2.323208741933     0.953526388595    14.003074004430
         C            0.340637256595     0.751528658067    -0.014437411405    12.000000000000
         C            0.143949056595    -0.734128741933    -0.055391611405    12.000000000000
         C            1.692344056595     1.124267258067    -0.039888611405    12.000000000000
         C            1.239380056595    -1.610581741933    -0.141893611405    12.000000000000
         C            2.770289056595     0.249662258067    -0.149647611405    12.000000000000
         C            2.544062056595    -1.126431741933    -0.204372611405    12.000000000000
         C           -0.668727943405     1.746786258067     0.136241388595    12.000000000000
         C           -1.213018943405    -1.376571741933    -0.018768611405    12.000000000000
         H            1.851681056595     2.195571258067     0.040318388595     1.007825032230
         H            1.055592056595    -2.681958741933    -0.176382611405     1.007825032230
         H            3.784149056595     0.640885258067    -0.182881611405     1.007825032230
         H            3.376678056595    -1.820172741933    -0.291437611405     1.007825032230
         H           -2.050274943405     0.736941258067    -1.035215611405     1.007825032230
         H           -2.522867943405     2.313666258067    -0.432029611405     1.007825032230
         H           -0.706623943405    -2.351052741933     1.734754388595     1.007825032230
         H           -2.260041943405    -2.746452741933     1.064709388595     1.007825032230

  Basis Set: AUG-CC-PVTZ
    Blend: AUG-CC-PVTZ
  Basis Set: (AUG-CC-PVTZ AUX)
    Blend: AUG-CC-PVTZ-JKFIT
	 Reference Energy          =    -566.4582143411550987 [Eh]
	 Singles Energy            =      -0.0000000000000000 [Eh]
	 Same-Spin Energy          =      -0.5978244336586001 [Eh]
	 Opposite-Spin Energy      =      -1.7917397605475593 [Eh]
	 Correlation Energy        =      -2.3895641942061596 [Eh]
	 Total Energy              =    -568.8477785353612717 [Eh]

	 ================> DF-SCS-MP2 Energies <==================
	-----------------------------------------------------------
	 SCS Same-Spin Scale       =       0.3333333333333333 [-]
	 SCS Opposite-Spin Scale   =       1.2000000000000000 [-]
	 SCS Same-Spin Energy      =      -0.1992748112195333 [Eh]
	 SCS Opposite-Spin Energy  =      -2.1500877126570712 [Eh]
	 SCS Correlation Energy    =      -2.3493625238766045 [Eh]
	 SCS Total Energy          =    -568.8075768650317059 [Eh]
	-----------------------------------------------------------

  Dipole Moment: [D]
     X:     1.0308      Y:    -4.0830      Z:     0.9941     Total:     4.3269

*** Psi4 exiting successfully. Buy a developer a beer!
