                               Psi4 1.4a3.dev225

  ==> Input File <==

--------------------------------------------------------------------------
#psi4
#
memory 32 gb

molecule  {
0 1
  O       -0.4764971     2.7778414     0.8233100
  O       -2.1331470    -1.1223190    -0.8372800
  N       -1.8213880     1.6463300    -0.5966440
  N       -1.3631050    -2.2953590     0.9499780
  C        0.3530890     0.6863100    -0.0267190
  C        0.1273570    -0.7062790    -0.0589400
  C        1.6757520     1.1521170    -0.0434370
  C        1.2227880    -1.5827320    -0.1454420
  C        2.7536970     0.2775120    -0.1531960
  C        2.5274700    -1.0985820    -0.2079210
  C       -0.6853200     1.7746360     0.1326930
  C       -1.2296110    -1.3487220    -0.0223170
  H        1.8350890     2.2234210     0.0367700
  H        1.0390000    -2.6541090    -0.1799310
  H        3.7675570     0.6687350    -0.1864300
  H        3.3600860    -1.7923230    -0.2949860
  H       -2.0668670     0.7647910    -1.0387640
  H       -2.5394600     2.3415160    -0.4355780
  H       -0.7232160    -2.3232030     1.7312060
  H       -2.2766340    -2.7186030     1.0611610
units angstrom
no_reorient  #important for SAPT in psi4, default
symmetry c1  #important for SAPT in psi4, default
}

set PROPERTIES_ORIGIN ["COM"]
properties('MP2/aug-cc-pvtz', properties = ['dipole'])
--------------------------------------------------------------------------

    Molecular point group: c1
  Charge       = 0
  Multiplicity = 1
  Basis Set: AUG-CC-PVTZ
    Blend: AUG-CC-PVTZ
  Basis Set: (AUG-CC-PVTZ AUX)
    Blend: AUG-CC-PVTZ-JKFIT

    Orbital Energies [Eh]
    ---------------------

    Doubly Occupied:

       1A    -20.547224     2A    -20.514274     3A    -15.609251
       4A    -15.569271     5A    -11.386592     6A    -11.356898
       7A    -11.281845     8A    -11.274878     9A    -11.266559
      10A    -11.263172    11A    -11.259471    12A    -11.257005
      13A     -1.401609    14A     -1.369234    15A     -1.237167
      16A     -1.200920    17A     -1.175718    18A     -1.056359
      19A     -1.048011    20A     -0.909271    21A     -0.869752
      22A     -0.823095    23A     -0.787327    24A     -0.763749
      25A     -0.723668    26A     -0.702964    27A     -0.686113
      28A     -0.660153    29A     -0.649066    30A     -0.631772
      31A     -0.611570    32A     -0.592920    33A     -0.581135
      34A     -0.566180    35A     -0.539603    36A     -0.524195
      37A     -0.518124    38A     -0.456017    39A     -0.441033
      40A     -0.428487    41A     -0.400246    42A     -0.363876
      43A     -0.357853

  @DF-RHF Final Energy:  -566.47156486620122

   => Energetics <=

    Nuclear Repulsion Energy =            669.5326878707769538
    One-Electron Energy =               -2100.6812539029865547
    Two-Electron Energy =                 864.6770011660083810
    Total Energy =                       -566.4715648662012200
  Basis Set: (AUG-CC-PVTZ AUX)
    Blend: AUG-CC-PVTZ-RI
    Molecular point group: c1

    Geometry (in Angstrom), charge = 0, multiplicity = 1:

       Center              X                  Y                   Z               Mass
    ------------   -----------------  -----------------  -----------------  -----------------
         O           -0.458352596599     2.755132586017     0.828674916406    15.994914619570
         O           -2.115002496599    -1.145027813983    -0.831915083594    15.994914619570
         N           -1.803243496599     1.623621186017    -0.591279083594    14.003074004430
         N           -1.344960496599    -2.318067813983     0.955342916406    14.003074004430
         C            0.371233503401     0.663601186017    -0.021354083594    12.000000000000
         C            0.145501503401    -0.728987813983    -0.053575083594    12.000000000000
         C            1.693896503401     1.129408186017    -0.038072083594    12.000000000000
         C            1.240932503401    -1.605440813983    -0.140077083594    12.000000000000
         C            2.771841503401     0.254803186017    -0.147831083594    12.000000000000
         C            2.545614503401    -1.121290813983    -0.202556083594    12.000000000000
         C           -0.667175496599     1.751927186017     0.138057916406    12.000000000000
         C           -1.211466496599    -1.371430813983    -0.016952083594    12.000000000000
         H            1.853233503401     2.200712186017     0.042134916406     1.007825032230
         H            1.057144503401    -2.676817813983    -0.174566083594     1.007825032230
         H            3.785701503401     0.646026186017    -0.181065083594     1.007825032230
         H            3.378230503401    -1.815031813983    -0.289621083594     1.007825032230
         H           -2.048722496599     0.742082186017    -1.033399083594     1.007825032230
         H           -2.521315496599     2.318807186017    -0.430213083594     1.007825032230
         H           -0.705071496599    -2.345911813983     1.736570916406     1.007825032230
         H           -2.258489496599    -2.741311813983     1.066525916406     1.007825032230

  Basis Set: AUG-CC-PVTZ
    Blend: AUG-CC-PVTZ
  Basis Set: (AUG-CC-PVTZ AUX)
    Blend: AUG-CC-PVTZ-JKFIT
	 Reference Energy          =    -566.4715648662012200 [Eh]
	 Singles Energy            =      -0.0000000000000000 [Eh]
	 Same-Spin Energy          =      -0.5967739038208593 [Eh]
	 Opposite-Spin Energy      =      -1.7897003087647874 [Eh]
	 Correlation Energy        =      -2.3864742125856466 [Eh]
	 Total Energy              =    -568.8580390787868737 [Eh]

	 ================> DF-SCS-MP2 Energies <==================
	-----------------------------------------------------------
	 SCS Same-Spin Scale       =       0.3333333333333333 [-]
	 SCS Opposite-Spin Scale   =       1.2000000000000000 [-]
	 SCS Same-Spin Energy      =      -0.1989246346069531 [Eh]
	 SCS Opposite-Spin Energy  =      -2.1476403705177449 [Eh]
	 SCS Correlation Energy    =      -2.3465650051246980 [Eh]
	 SCS Total Energy          =    -568.8181298713259366 [Eh]
	-----------------------------------------------------------

  Dipole Moment: [D]
     X:     1.0501      Y:    -4.1179      Z:     1.0310     Total:     4.3730

*** Psi4 exiting successfully. Buy a developer a beer!
