                               Psi4 1.4a3.dev225

  ==> Input File <==

--------------------------------------------------------------------------
#psi4
#
memory 32 gb

molecule  {
0 1
  O       -0.4387840     2.7607480     0.8353900
  O       -2.1331470    -1.1223190    -0.8372800
  N       -1.8213880     1.6463300    -0.5966440
  N       -1.3631050    -2.2953590     0.9499780
  C        0.3530890     0.6863100    -0.0267190
  C        0.1273570    -0.7062790    -0.0589400
  C        1.6757520     1.1521170    -0.0434370
  C        1.2227880    -1.5827320    -0.1454420
  C        2.7536970     0.2775120    -0.1531960
  C        2.5274700    -1.0985820    -0.2079210
  C       -0.6853200     1.7746360     0.1326930
  C       -1.2296110    -1.3487220    -0.0223170
  H        1.8204178     2.1247791     0.0293848
  H        1.0390000    -2.6541090    -0.1799310
  H        3.7675570     0.6687350    -0.1864300
  H        3.3600860    -1.7923230    -0.2949860
  H       -2.0668670     0.7647910    -1.0387640
  H       -2.5394600     2.3415160    -0.4355780
  H       -0.7232160    -2.3232030     1.7312060
  H       -2.2766340    -2.7186030     1.0611610
units angstrom
no_reorient  #important for SAPT in psi4, default
symmetry c1  #important for SAPT in psi4, default
}

set PROPERTIES_ORIGIN ["COM"]
properties('MP2/aug-cc-pvtz', properties = ['dipole'])
--------------------------------------------------------------------------

    Molecular point group: c1
  Charge       = 0
  Multiplicity = 1
  Basis Set: AUG-CC-PVTZ
    Blend: AUG-CC-PVTZ
  Basis Set: (AUG-CC-PVTZ AUX)
    Blend: AUG-CC-PVTZ-JKFIT

    Orbital Energies [Eh]
    ---------------------

    Doubly Occupied:

       1A    -20.547001     2A    -20.515579     3A    -15.608908
       4A    -15.571860     5A    -11.386133     6A    -11.357628
       7A    -11.280228     8A    -11.272871     9A    -11.265632
      10A    -11.261822    11A    -11.258104    12A    -11.245008
      13A     -1.401395    14A     -1.369747    15A     -1.236811
      16A     -1.203666    17A     -1.175522    18A     -1.055651
      19A     -1.050130    20A     -0.908594    21A     -0.873146
      22A     -0.826776    23A     -0.787450    24A     -0.765843
      25A     -0.724066    26A     -0.706679    27A     -0.686619
      28A     -0.660121    29A     -0.653391    30A     -0.634242
      31A     -0.616498    32A     -0.592824    33A     -0.580989
      34A     -0.567033    35A     -0.538779    36A     -0.529753
      37A     -0.517171    38A     -0.455787    39A     -0.440947
      40A     -0.429163    41A     -0.402677    42A     -0.362750
      43A     -0.356362

  @DF-RHF Final Energy:  -566.46610249925084

   => Energetics <=

    Nuclear Repulsion Energy =            670.3505051504087078
    One-Electron Energy =               -2102.2705048816364979
    Two-Electron Energy =                 865.4538972319769528
    Total Energy =                       -566.4661024992508374
  Basis Set: (AUG-CC-PVTZ AUX)
    Blend: AUG-CC-PVTZ-RI
    Molecular point group: c1

    Geometry (in Angstrom), charge = 0, multiplicity = 1:

       Center              X                  Y                   Z               Mass
    ------------   -----------------  -----------------  -----------------  -----------------
         O           -0.424226214349     2.740311674632     0.839622542945    15.994914619570
         O           -2.118589214349    -1.142755325368    -0.833047457055    15.994914619570
         N           -1.806830214349     1.625893674632    -0.592411457055    14.003074004430
         N           -1.348547214349    -2.315795325368     0.954210542945    14.003074004430
         C            0.367646785651     0.665873674632    -0.022486457055    12.000000000000
         C            0.141914785651    -0.726715325368    -0.054707457055    12.000000000000
         C            1.690309785651     1.131680674632    -0.039204457055    12.000000000000
         C            1.237345785651    -1.603168325368    -0.141209457055    12.000000000000
         C            2.768254785651     0.257075674632    -0.148963457055    12.000000000000
         C            2.542027785651    -1.119018325368    -0.203688457055    12.000000000000
         C           -0.670762214349     1.754199674632     0.136925542945    12.000000000000
         C           -1.215053214349    -1.369158325368    -0.018084457055    12.000000000000
         H            1.834975585651     2.104342774632     0.033617342945     1.007825032230
         H            1.053557785651    -2.674545325368    -0.175698457055     1.007825032230
         H            3.782114785651     0.648298674632    -0.182197457055     1.007825032230
         H            3.374643785651    -1.812759325368    -0.290753457055     1.007825032230
         H           -2.052309214349     0.744354674632    -1.034531457055     1.007825032230
         H           -2.524902214349     2.321079674632    -0.431345457055     1.007825032230
         H           -0.708658214349    -2.343639325368     1.735438542945     1.007825032230
         H           -2.262076214349    -2.739039325368     1.065393542945     1.007825032230

  Basis Set: AUG-CC-PVTZ
    Blend: AUG-CC-PVTZ
  Basis Set: (AUG-CC-PVTZ AUX)
    Blend: AUG-CC-PVTZ-JKFIT
	 Reference Energy          =    -566.4661024992508374 [Eh]
	 Singles Energy            =      -0.0000000000000000 [Eh]
	 Same-Spin Energy          =      -0.5965214654476563 [Eh]
	 Opposite-Spin Energy      =      -1.7890968708539010 [Eh]
	 Correlation Energy        =      -2.3856183363015573 [Eh]
	 Total Energy              =    -568.8517208355524417 [Eh]

	 ================> DF-SCS-MP2 Energies <==================
	-----------------------------------------------------------
	 SCS Same-Spin Scale       =       0.3333333333333333 [-]
	 SCS Opposite-Spin Scale   =       1.2000000000000000 [-]
	 SCS Same-Spin Energy      =      -0.1988404884825521 [Eh]
	 SCS Opposite-Spin Energy  =      -2.1469162450246810 [Eh]
	 SCS Correlation Energy    =      -2.3457567335072329 [Eh]
	 SCS Total Energy          =    -568.8118592327580245 [Eh]
	-----------------------------------------------------------

  Dipole Moment: [D]
     X:     0.9372      Y:    -4.0450      Z:     1.0068     Total:     4.2725

*** Psi4 exiting successfully. Buy a developer a beer!
