                               Psi4 1.4a3.dev225

  ==> Input File <==

--------------------------------------------------------------------------
#psi4
#
memory 32 gb

molecule  {
0 1
  O       -0.4387840     2.7607480     0.8353900
  O       -2.1331470    -1.1223190    -0.8372800
  N       -1.8213880     1.6463300    -0.5966440
  N       -1.3631050    -2.2953590     0.9499780
  C        0.3530890     0.6863100    -0.0267190
  C        0.1273570    -0.7062790    -0.0589400
  C        1.6757520     1.1521170    -0.0434370
  C        1.2227880    -1.5827320    -0.1454420
  C        2.7055931     0.2844240    -0.1498275
  C        2.5274700    -1.0985820    -0.2079210
  C       -0.6853200     1.7746360     0.1326930
  C       -1.2296110    -1.3487220    -0.0223170
  H        1.8350890     2.2234210     0.0367700
  H        1.0390000    -2.6541090    -0.1799310
  H        3.7675570     0.6687350    -0.1864300
  H        3.3600860    -1.7923230    -0.2949860
  H       -2.0668670     0.7647910    -1.0387640
  H       -2.5394600     2.3415160    -0.4355780
  H       -0.7232160    -2.3232030     1.7312060
  H       -2.2766340    -2.7186030     1.0611610
units angstrom
no_reorient  #important for SAPT in psi4, default
symmetry c1  #important for SAPT in psi4, default
}

set PROPERTIES_ORIGIN ["COM"]
properties('MP2/aug-cc-pvtz', properties = ['dipole'])
--------------------------------------------------------------------------

    Molecular point group: c1
  Charge       = 0
  Multiplicity = 1
  Basis Set: AUG-CC-PVTZ
    Blend: AUG-CC-PVTZ
  Basis Set: (AUG-CC-PVTZ AUX)
    Blend: AUG-CC-PVTZ-JKFIT

    Orbital Energies [Eh]
    ---------------------

    Doubly Occupied:

       1A    -20.547040     2A    -20.515855     3A    -15.608937
       4A    -15.572076     5A    -11.386226     6A    -11.357765
       7A    -11.279917     8A    -11.273978     9A    -11.265426
      10A    -11.261914    11A    -11.256747    12A    -11.250244
      13A     -1.401428    14A     -1.370017    15A     -1.236915
      16A     -1.204042    17A     -1.178786    18A     -1.056535
      19A     -1.049279    20A     -0.909637    21A     -0.868786
      22A     -0.822507    23A     -0.786663    24A     -0.764508
      25A     -0.722778    26A     -0.703574    27A     -0.685159
      28A     -0.659273    29A     -0.649356    30A     -0.631003
      31A     -0.612474    32A     -0.593002    33A     -0.581871
      34A     -0.565671    35A     -0.539083    36A     -0.520530
      37A     -0.517854    38A     -0.455550    39A     -0.440982
      40A     -0.429178    41A     -0.402800    42A     -0.365975
      43A     -0.356877

  @DF-RHF Final Energy:  -566.46895769848470

   => Energetics <=

    Nuclear Repulsion Energy =            670.7785213105978528
    One-Electron Energy =               -2103.1785259797375147
    Two-Electron Energy =                 865.9310469706549611
    Total Energy =                       -566.4689576984847008
  Basis Set: (AUG-CC-PVTZ AUX)
    Blend: AUG-CC-PVTZ-RI
    Molecular point group: c1

    Geometry (in Angstrom), charge = 0, multiplicity = 1:

       Center              X                  Y                   Z               Mass
    ------------   -----------------  -----------------  -----------------  -----------------
         O           -0.420797799901     2.739200133993     0.839330787463    15.994914619570
         O           -2.115160799901    -1.143866866007    -0.833339212537    15.994914619570
         N           -1.803401799901     1.624782133993    -0.592703212537    14.003074004430
         N           -1.345118799901    -2.316906866007     0.953918787463    14.003074004430
         C            0.371075200099     0.664762133993    -0.022778212537    12.000000000000
         C            0.145343200099    -0.727826866007    -0.054999212537    12.000000000000
         C            1.693738200099     1.130569133993    -0.039496212537    12.000000000000
         C            1.240774200099    -1.604279866007    -0.141501212537    12.000000000000
         C            2.723579300099     0.262876133993    -0.145886712537    12.000000000000
         C            2.545456200099    -1.120129866007    -0.203980212537    12.000000000000
         C           -0.667333799901     1.753088133993     0.136633787463    12.000000000000
         C           -1.211624799901    -1.370269866007    -0.018376212537    12.000000000000
         H            1.853075200099     2.201873133993     0.040710787463     1.007825032230
         H            1.056986200099    -2.675656866007    -0.175990212537     1.007825032230
         H            3.785543200099     0.647187133993    -0.182489212537     1.007825032230
         H            3.378072200099    -1.813870866007    -0.291045212537     1.007825032230
         H           -2.048880799901     0.743243133993    -1.034823212537     1.007825032230
         H           -2.521473799901     2.319968133993    -0.431637212537     1.007825032230
         H           -0.705229799901    -2.344750866007     1.735146787463     1.007825032230
         H           -2.258647799901    -2.740150866007     1.065101787463     1.007825032230

  Basis Set: AUG-CC-PVTZ
    Blend: AUG-CC-PVTZ
  Basis Set: (AUG-CC-PVTZ AUX)
    Blend: AUG-CC-PVTZ-JKFIT
	 Reference Energy          =    -566.4689576984847008 [Eh]
	 Singles Energy            =      -0.0000000000000000 [Eh]
	 Same-Spin Energy          =      -0.5969041423939796 [Eh]
	 Opposite-Spin Energy      =      -1.7896861099854044 [Eh]
	 Correlation Energy        =      -2.3865902523793840 [Eh]
	 Total Energy              =    -568.8555479508640929 [Eh]

	 ================> DF-SCS-MP2 Energies <==================
	-----------------------------------------------------------
	 SCS Same-Spin Scale       =       0.3333333333333333 [-]
	 SCS Opposite-Spin Scale   =       1.2000000000000000 [-]
	 SCS Same-Spin Energy      =      -0.1989680474646598 [Eh]
	 SCS Opposite-Spin Energy  =      -2.1476233319824853 [Eh]
	 SCS Correlation Energy    =      -2.3465913794471454 [Eh]
	 SCS Total Energy          =    -568.8155490779317915 [Eh]
	-----------------------------------------------------------

  Dipole Moment: [D]
     X:     0.8997      Y:    -4.0543      Z:     1.0123     Total:     4.2745

*** Psi4 exiting successfully. Buy a developer a beer!
