                               Psi4 1.4a3.dev225

  ==> Input File <==

--------------------------------------------------------------------------
#psi4
#
memory 32 gb

molecule  {
0 1
  O       -0.4387840     2.7607480     0.8353900
  O       -2.1331470    -1.1223190    -0.8372800
  N       -1.8213880     1.6463300    -0.5966440
  N       -1.3631050    -2.2953590     0.9499780
  C        0.3530890     0.6863100    -0.0267190
  C        0.1273570    -0.7062790    -0.0589400
  C        1.6757520     1.1521170    -0.0434370
  C        1.2227880    -1.5827320    -0.1454420
  C        2.7536970     0.2775120    -0.1531960
  C        2.5274700    -1.0985820    -0.2079210
  C       -0.6853200     1.7746360     0.1326930
  C       -1.2296110    -1.3487220    -0.0223170
  H        1.8350890     2.2234210     0.0367700
  H        1.0390000    -2.6541090    -0.1799310
  H        3.7675570     0.6687350    -0.1864300
  H        3.3600860    -1.7923230    -0.2949860
  H       -2.0185581     0.9382731    -0.9517572
  H       -2.5394600     2.3415160    -0.4355780
  H       -0.7232160    -2.3232030     1.7312060
  H       -2.2766340    -2.7186030     1.0611610
units angstrom
no_reorient  #important for SAPT in psi4, default
symmetry c1  #important for SAPT in psi4, default
}

set PROPERTIES_ORIGIN ["COM"]
properties('MP2/aug-cc-pvtz', properties = ['dipole'])
--------------------------------------------------------------------------

    Molecular point group: c1
  Charge       = 0
  Multiplicity = 1
  Basis Set: AUG-CC-PVTZ
    Blend: AUG-CC-PVTZ
  Basis Set: (AUG-CC-PVTZ AUX)
    Blend: AUG-CC-PVTZ-JKFIT

    Orbital Energies [Eh]
    ---------------------

    Doubly Occupied:

       1A    -20.542399     2A    -20.519552     3A    -15.605978
       4A    -15.559003     5A    -11.382143     6A    -11.361571
       7A    -11.280434     8A    -11.273965     9A    -11.265143
      10A    -11.262365    11A    -11.258559    12A    -11.256496
      13A     -1.396036    14A     -1.375197    15A     -1.241570
      16A     -1.233065    17A     -1.176532    18A     -1.055902
      19A     -1.047392    20A     -0.909611    21A     -0.873440
      22A     -0.828181    23A     -0.806431    24A     -0.775675
      25A     -0.742170    26A     -0.704006    27A     -0.689455
      28A     -0.660038    29A     -0.649344    30A     -0.630948
      31A     -0.609737    32A     -0.601061    33A     -0.580240
      34A     -0.569346    35A     -0.539239    36A     -0.524074
      37A     -0.518077    38A     -0.453207    39A     -0.438399
      40A     -0.431957    41A     -0.410715    42A     -0.362723
      43A     -0.356976

  @DF-RHF Final Energy:  -566.42901943761467

   => Energetics <=

    Nuclear Repulsion Energy =            670.7135976710342220
    One-Electron Energy =               -2102.7685266829321336
    Two-Electron Energy =                 865.6259095742832415
    Total Energy =                       -566.4290194376146701
  Basis Set: (AUG-CC-PVTZ AUX)
    Blend: AUG-CC-PVTZ-RI
    Molecular point group: c1

    Geometry (in Angstrom), charge = 0, multiplicity = 1:

       Center              X                  Y                   Z               Mass
    ------------   -----------------  -----------------  -----------------  -----------------
         O           -0.424613106167     2.738639995021     0.839042685300    15.994914619570
         O           -2.118976106167    -1.144427004979    -0.833627314700    15.994914619570
         N           -1.807217106167     1.624221995021    -0.592991314700    14.003074004430
         N           -1.348934106167    -2.317467004979     0.953630685300    14.003074004430
         C            0.367259893833     0.664201995021    -0.023066314700    12.000000000000
         C            0.141527893833    -0.728387004979    -0.055287314700    12.000000000000
         C            1.689922893833     1.130008995021    -0.039784314700    12.000000000000
         C            1.236958893833    -1.604840004979    -0.141789314700    12.000000000000
         C            2.767867893833     0.255403995021    -0.149543314700    12.000000000000
         C            2.541640893833    -1.120690004979    -0.204268314700    12.000000000000
         C           -0.671149106167     1.752527995021     0.136345685300    12.000000000000
         C           -1.215440106167    -1.370830004979    -0.018664314700    12.000000000000
         H            1.849259893833     2.201312995021     0.040422685300     1.007825032230
         H            1.053170893833    -2.676217004979    -0.176278314700     1.007825032230
         H            3.781727893833     0.646626995021    -0.182777314700     1.007825032230
         H            3.374256893833    -1.814431004979    -0.291333314700     1.007825032230
         H           -2.004387206167     0.916165095021    -0.948104514700     1.007825032230
         H           -2.525289106167     2.319407995021    -0.431925314700     1.007825032230
         H           -0.709045106167    -2.345311004979     1.734858685300     1.007825032230
         H           -2.262463106167    -2.740711004979     1.064813685300     1.007825032230

  Basis Set: AUG-CC-PVTZ
    Blend: AUG-CC-PVTZ
  Basis Set: (AUG-CC-PVTZ AUX)
    Blend: AUG-CC-PVTZ-JKFIT
	 Reference Energy          =    -566.4290194376146701 [Eh]
	 Singles Energy            =      -0.0000000000000000 [Eh]
	 Same-Spin Energy          =      -0.5950557543370292 [Eh]
	 Opposite-Spin Energy      =      -1.7869978216856048 [Eh]
	 Correlation Energy        =      -2.3820535760226340 [Eh]
	 Total Energy              =    -568.8110730136372695 [Eh]

	 ================> DF-SCS-MP2 Energies <==================
	-----------------------------------------------------------
	 SCS Same-Spin Scale       =       0.3333333333333333 [-]
	 SCS Opposite-Spin Scale   =       1.2000000000000000 [-]
	 SCS Same-Spin Energy      =      -0.1983519181123430 [Eh]
	 SCS Opposite-Spin Energy  =      -2.1443973860227259 [Eh]
	 SCS Correlation Energy    =      -2.3427493041350691 [Eh]
	 SCS Total Energy          =    -568.7717687417497245 [Eh]
	-----------------------------------------------------------

  Dipole Moment: [D]
     X:     1.0030      Y:    -3.6642      Z:     1.0941     Total:     3.9534

*** Psi4 exiting successfully. Buy a developer a beer!
