                               Psi4 1.4a3.dev225

  ==> Input File <==

--------------------------------------------------------------------------
#psi4
#
memory 32 gb

molecule  {
0 1
  O       -0.4387840     2.7607480     0.8353900
  O       -2.1331470    -1.1223190    -0.8372800
  N       -1.8213880     1.6463300    -0.5966440
  N       -1.3631050    -2.2953590     0.9499780
  C        0.3530890     0.6863100    -0.0267190
  C        0.1273570    -0.7062790    -0.0589400
  C        1.7396344     1.2253624    -0.0427287
  C        1.2227880    -1.5827320    -0.1454420
  C        2.7536970     0.2775120    -0.1531960
  C        2.5274700    -1.0985820    -0.2079210
  C       -0.6853200     1.7746360     0.1326930
  C       -1.2296110    -1.3487220    -0.0223170
  H        1.8350890     2.2234210     0.0367700
  H        1.0390000    -2.6541090    -0.1799310
  H        3.7675570     0.6687350    -0.1864300
  H        3.3600860    -1.7923230    -0.2949860
  H       -2.0668670     0.7647910    -1.0387640
  H       -2.5394600     2.3415160    -0.4355780
  H       -0.7232160    -2.3232030     1.7312060
  H       -2.2766340    -2.7186030     1.0611610
units angstrom
no_reorient  #important for SAPT in psi4, default
symmetry c1  #important for SAPT in psi4, default
}

set PROPERTIES_ORIGIN ["COM"]
properties('MP2/aug-cc-pvtz', properties = ['dipole'])
--------------------------------------------------------------------------

    Molecular point group: c1
  Charge       = 0
  Multiplicity = 1
  Basis Set: AUG-CC-PVTZ
    Blend: AUG-CC-PVTZ
  Basis Set: (AUG-CC-PVTZ AUX)
    Blend: AUG-CC-PVTZ-JKFIT

    Orbital Energies [Eh]
    ---------------------

    Doubly Occupied:

       1A    -20.547477     2A    -20.515498     3A    -15.609378
       4A    -15.571575     5A    -11.386973     6A    -11.357318
       7A    -11.282521     8A    -11.280656     9A    -11.266614
      10A    -11.262888    11A    -11.260074    12A    -11.258639
      13A     -1.401816    14A     -1.369644    15A     -1.237236
      16A     -1.203036    17A     -1.168665    18A     -1.056089
      19A     -1.040641    20A     -0.907844    21A     -0.871953
      22A     -0.825623    23A     -0.783912    24A     -0.765355
      25A     -0.722118    26A     -0.707542    27A     -0.683656
      28A     -0.660819    29A     -0.657932    30A     -0.628524
      31A     -0.618087    32A     -0.590384    33A     -0.580937
      34A     -0.565480    35A     -0.540436    36A     -0.523181
      37A     -0.513047    38A     -0.454930    39A     -0.441332
      40A     -0.428418    41A     -0.402743    42A     -0.366014
      43A     -0.348377

  @DF-RHF Final Energy:  -566.45893320375853

   => Energetics <=

    Nuclear Repulsion Energy =            667.9785265885612944
    One-Electron Energy =               -2097.5441543219781124
    Two-Electron Energy =                 863.1066945296583981
    Total Energy =                       -566.4589332037585336
  Basis Set: (AUG-CC-PVTZ AUX)
    Blend: AUG-CC-PVTZ-RI
    Molecular point group: c1

    Geometry (in Angstrom), charge = 0, multiplicity = 1:

       Center              X                  Y                   Z               Mass
    ------------   -----------------  -----------------  -----------------  -----------------
         O           -0.428988993684     2.734348203591     0.839525366743    15.994914619570
         O           -2.123351993684    -1.148718796409    -0.833144633257    15.994914619570
         N           -1.811592993684     1.619930203591    -0.592508633257    14.003074004430
         N           -1.353309993684    -2.321758796409     0.954113366743    14.003074004430
         C            0.362884006316     0.659910203591    -0.022583633257    12.000000000000
         C            0.137152006316    -0.732678796409    -0.054804633257    12.000000000000
         C            1.749429406316     1.198962603591    -0.038593333257    12.000000000000
         C            1.232583006316    -1.609131796409    -0.141306633257    12.000000000000
         C            2.763492006316     0.251112203591    -0.149060633257    12.000000000000
         C            2.537265006316    -1.124981796409    -0.203785633257    12.000000000000
         C           -0.675524993684     1.748236203591     0.136828366743    12.000000000000
         C           -1.219815993684    -1.375121796409    -0.018181633257    12.000000000000
         H            1.844884006316     2.197021203591     0.040905366743     1.007825032230
         H            1.048795006316    -2.680508796409    -0.175795633257     1.007825032230
         H            3.777352006316     0.642335203591    -0.182294633257     1.007825032230
         H            3.369881006316    -1.818722796409    -0.290850633257     1.007825032230
         H           -2.057071993684     0.738391203591    -1.034628633257     1.007825032230
         H           -2.529664993684     2.315116203591    -0.431442633257     1.007825032230
         H           -0.713420993684    -2.349602796409     1.735341366743     1.007825032230
         H           -2.266838993684    -2.745002796409     1.065296366743     1.007825032230

  Basis Set: AUG-CC-PVTZ
    Blend: AUG-CC-PVTZ
  Basis Set: (AUG-CC-PVTZ AUX)
    Blend: AUG-CC-PVTZ-JKFIT
	 Reference Energy          =    -566.4589332037585336 [Eh]
	 Singles Energy            =      -0.0000000000000000 [Eh]
	 Same-Spin Energy          =      -0.5967947955295174 [Eh]
	 Opposite-Spin Energy      =      -1.7905779752450774 [Eh]
	 Correlation Energy        =      -2.3873727707745949 [Eh]
	 Total Energy              =    -568.8463059745331520 [Eh]

	 ================> DF-SCS-MP2 Energies <==================
	-----------------------------------------------------------
	 SCS Same-Spin Scale       =       0.3333333333333333 [-]
	 SCS Opposite-Spin Scale   =       1.2000000000000000 [-]
	 SCS Same-Spin Energy      =      -0.1989315985098391 [Eh]
	 SCS Opposite-Spin Energy  =      -2.1486935702940930 [Eh]
	 SCS Correlation Energy    =      -2.3476251688039320 [Eh]
	 SCS Total Energy          =    -568.8065583725624492 [Eh]
	-----------------------------------------------------------

  Dipole Moment: [D]
     X:     0.9117      Y:    -4.0415      Z:     1.0149     Total:     4.2655

*** Psi4 exiting successfully. Buy a developer a beer!
