                               Psi4 1.4a3.dev225

  ==> Input File <==

--------------------------------------------------------------------------
#psi4
#
memory 32 gb

molecule  {
0 1
  O       -0.4387840     2.7607480     0.8353900
  O       -2.1331470    -1.1223190    -0.8372800
  N       -1.8213880     1.6463300    -0.5966440
  N       -1.3631050    -2.2953590     0.9499780
  C        0.3530890     0.6863100    -0.0267190
  C        0.1273570    -0.7062790    -0.0589400
  C        1.6757520     1.1521170    -0.0434370
  C        1.2227880    -1.5827320    -0.1454420
  C        2.7536970     0.2775120    -0.1531960
  C        2.5274700    -1.0985820    -0.2079210
  C       -0.6853200     1.7746360     0.1326930
  C       -1.2296110    -1.3487220    -0.0223170
  H        1.8350890     2.2234210     0.0367700
  H        1.0390000    -2.6541090    -0.1799310
  H        3.7675570     0.6687350    -0.1864300
  H        3.3217959    -1.7604194    -0.2909821
  H       -2.0668670     0.7647910    -1.0387640
  H       -2.5394600     2.3415160    -0.4355780
  H       -0.7232160    -2.3232030     1.7312060
  H       -2.2766340    -2.7186030     1.0611610
units angstrom
no_reorient  #important for SAPT in psi4, default
symmetry c1  #important for SAPT in psi4, default
}

set PROPERTIES_ORIGIN ["COM"]
properties('MP2/aug-cc-pvtz', properties = ['dipole'])
--------------------------------------------------------------------------

    Molecular point group: c1
  Charge       = 0
  Multiplicity = 1
  Basis Set: AUG-CC-PVTZ
    Blend: AUG-CC-PVTZ
  Basis Set: (AUG-CC-PVTZ AUX)
    Blend: AUG-CC-PVTZ-JKFIT

    Orbital Energies [Eh]
    ---------------------

    Doubly Occupied:

       1A    -20.546960     2A    -20.515225     3A    -15.608885
       4A    -15.571753     5A    -11.386125     6A    -11.357453
       7A    -11.280281     8A    -11.273149     9A    -11.265153
      10A    -11.258326    11A    -11.256060    12A    -11.255324
      13A     -1.401358    14A     -1.369471    15A     -1.236779
      16A     -1.203514    17A     -1.175045    18A     -1.056253
      19A     -1.047131    20A     -0.908995    21A     -0.870786
      22A     -0.822359    23A     -0.788588    24A     -0.765172
      25A     -0.724185    26A     -0.704948    27A     -0.686495
      28A     -0.660944    29A     -0.651168    30A     -0.631631
      31A     -0.610819    32A     -0.594225    33A     -0.581348
      34A     -0.566777    35A     -0.540311    36A     -0.523891
      37A     -0.517117    38A     -0.455831    39A     -0.440864
      40A     -0.428939    41A     -0.402417    42A     -0.362679
      43A     -0.356137

  @DF-RHF Final Energy:  -566.47108097324963

   => Energetics <=

    Nuclear Repulsion Energy =            670.0773842093351504
    One-Electron Energy =               -2101.7751866214230176
    Two-Electron Energy =                 865.2267214388382399
    Total Energy =                       -566.4710809732496273
  Basis Set: (AUG-CC-PVTZ AUX)
    Blend: AUG-CC-PVTZ-RI
    Molecular point group: c1

    Geometry (in Angstrom), charge = 0, multiplicity = 1:

       Center              X                  Y                   Z               Mass
    ------------   -----------------  -----------------  -----------------  -----------------
         O           -0.424081121547     2.739509723129     0.839552578788    15.994914619570
         O           -2.118444121547    -1.143557276871    -0.833117421212    15.994914619570
         N           -1.806685121547     1.625091723129    -0.592481421212    14.003074004430
         N           -1.348402121547    -2.316597276871     0.954140578788    14.003074004430
         C            0.367791878453     0.665071723129    -0.022556421212    12.000000000000
         C            0.142059878453    -0.727517276871    -0.054777421212    12.000000000000
         C            1.690454878453     1.130878723129    -0.039274421212    12.000000000000
         C            1.237490878453    -1.603970276871    -0.141279421212    12.000000000000
         C            2.768399878453     0.256273723129    -0.149033421212    12.000000000000
         C            2.542172878453    -1.119820276871    -0.203758421212    12.000000000000
         C           -0.670617121547     1.753397723129     0.136855578788    12.000000000000
         C           -1.214908121547    -1.369960276871    -0.018154421212    12.000000000000
         H            1.849791878453     2.202182723129     0.040932578788     1.007825032230
         H            1.053702878453    -2.675347276871    -0.175768421212     1.007825032230
         H            3.782259878453     0.647496723129    -0.182267421212     1.007825032230
         H            3.336498778453    -1.781657676871    -0.286819521212     1.007825032230
         H           -2.052164121547     0.743552723129    -1.034601421212     1.007825032230
         H           -2.524757121547     2.320277723129    -0.431415421212     1.007825032230
         H           -0.708513121547    -2.344441276871     1.735368578788     1.007825032230
         H           -2.261931121547    -2.739841276871     1.065323578788     1.007825032230

  Basis Set: AUG-CC-PVTZ
    Blend: AUG-CC-PVTZ
  Basis Set: (AUG-CC-PVTZ AUX)
    Blend: AUG-CC-PVTZ-JKFIT
	 Reference Energy          =    -566.4710809732496273 [Eh]
	 Singles Energy            =      -0.0000000000000000 [Eh]
	 Same-Spin Energy          =      -0.5967297783477232 [Eh]
	 Opposite-Spin Energy      =      -1.7893943784875930 [Eh]
	 Correlation Energy        =      -2.3861241568353160 [Eh]
	 Total Energy              =    -568.8572051300849353 [Eh]

	 ================> DF-SCS-MP2 Energies <==================
	-----------------------------------------------------------
	 SCS Same-Spin Scale       =       0.3333333333333333 [-]
	 SCS Opposite-Spin Scale   =       1.2000000000000000 [-]
	 SCS Same-Spin Energy      =      -0.1989099261159077 [Eh]
	 SCS Opposite-Spin Energy  =      -2.1472732541851114 [Eh]
	 SCS Correlation Energy    =      -2.3461831803010189 [Eh]
	 SCS Total Energy          =    -568.8172641535506955 [Eh]
	-----------------------------------------------------------

  Dipole Moment: [D]
     X:     0.9420      Y:    -4.0380      Z:     1.0131     Total:     4.2684

*** Psi4 exiting successfully. Buy a developer a beer!
