                               Psi4 1.4a3.dev225

  ==> Input File <==

--------------------------------------------------------------------------
#psi4
#
memory 32 gb

molecule  {
0 1
  O       -0.4387840     2.7607480     0.8353900
  O       -2.1331470    -1.1223190    -0.8372800
  N       -1.8213880     1.6463300    -0.5966440
  N       -1.3631050    -2.2953590     0.9499780
  C        0.3530890     0.6863100    -0.0267190
  C        0.1273570    -0.7062790    -0.0589400
  C        1.8643821     1.2185475    -0.0458212
  C        1.2227880    -1.5827320    -0.1454420
  C        2.7536970     0.2775120    -0.1531960
  C        2.5274700    -1.0985820    -0.2079210
  C       -0.6853200     1.7746360     0.1326930
  C       -1.2296110    -1.3487220    -0.0223170
  H        1.8350890     2.2234210     0.0367700
  H        1.0390000    -2.6541090    -0.1799310
  H        3.7675570     0.6687350    -0.1864300
  H        3.3600860    -1.7923230    -0.2949860
  H       -2.0668670     0.7647910    -1.0387640
  H       -2.5394600     2.3415160    -0.4355780
  H       -0.7232160    -2.3232030     1.7312060
  H       -2.2766340    -2.7186030     1.0611610
units angstrom
no_reorient  #important for SAPT in psi4, default
symmetry c1  #important for SAPT in psi4, default
}

set PROPERTIES_ORIGIN ["COM"]
properties('MP2/aug-cc-pvtz', properties = ['dipole'])
--------------------------------------------------------------------------

    Molecular point group: c1
  Charge       = 0
  Multiplicity = 1
  Basis Set: AUG-CC-PVTZ
    Blend: AUG-CC-PVTZ
  Basis Set: (AUG-CC-PVTZ AUX)
    Blend: AUG-CC-PVTZ-JKFIT

    Orbital Energies [Eh]
    ---------------------

    Doubly Occupied:

       1A    -20.547834     2A    -20.517251     3A    -15.609555
       4A    -15.572539     5A    -11.386827     6A    -11.359301
       7A    -11.289260     8A    -11.280686     9A    -11.265939
      10A    -11.263680    11A    -11.258727    12A    -11.246934
      13A     -1.402000    14A     -1.370635    15A     -1.237496
      16A     -1.203768    17A     -1.169546    18A     -1.068434
      19A     -1.031446    20A     -0.913390    21A     -0.869828
      22A     -0.823350    23A     -0.783842    24A     -0.765490
      25A     -0.722156    26A     -0.708916    27A     -0.684274
      28A     -0.667113    29A     -0.661669    30A     -0.626757
      31A     -0.617775    32A     -0.588134    33A     -0.581014
      34A     -0.564938    35A     -0.550524    36A     -0.515799
      37A     -0.498659    38A     -0.450965    39A     -0.441410
      40A     -0.427900    41A     -0.403719    42A     -0.381426
      43A     -0.339496

  @DF-RHF Final Energy:  -566.43122371281640

   => Energetics <=

    Nuclear Repulsion Energy =            666.7741996316547102
    One-Electron Energy =               -2095.0700424381216180
    Two-Electron Energy =                 861.8646190936505036
    Total Energy =                       -566.4312237128164043
  Basis Set: (AUG-CC-PVTZ AUX)
    Blend: AUG-CC-PVTZ-RI
    Molecular point group: c1

    Geometry (in Angstrom), charge = 0, multiplicity = 1:

       Center              X                  Y                   Z               Mass
    ------------   -----------------  -----------------  -----------------  -----------------
         O           -0.438113615040     2.734846676766     0.839751566437    15.994914619570
         O           -2.132476615040    -1.148220323234    -0.832918433563    15.994914619570
         N           -1.820717615040     1.620428676766    -0.592282433563    14.003074004430
         N           -1.362434615040    -2.321260323234     0.954339566437    14.003074004430
         C            0.353759384960     0.660408676766    -0.022357433563    12.000000000000
         C            0.128027384960    -0.732180323234    -0.054578433563    12.000000000000
         C            1.865052484960     1.192646176766    -0.041459633563    12.000000000000
         C            1.223458384960    -1.608633323234    -0.141080433563    12.000000000000
         C            2.754367384960     0.251610676766    -0.148834433563    12.000000000000
         C            2.528140384960    -1.124483323234    -0.203559433563    12.000000000000
         C           -0.684649615040     1.748734676766     0.137054566437    12.000000000000
         C           -1.228940615040    -1.374623323234    -0.017955433563    12.000000000000
         H            1.835759384960     2.197519676766     0.041131566437     1.007825032230
         H            1.039670384960    -2.680010323234    -0.175569433563     1.007825032230
         H            3.768227384960     0.642833676766    -0.182068433563     1.007825032230
         H            3.360756384960    -1.818224323234    -0.290624433563     1.007825032230
         H           -2.066196615040     0.738889676766    -1.034402433563     1.007825032230
         H           -2.538789615040     2.315614676766    -0.431216433563     1.007825032230
         H           -0.722545615040    -2.349104323234     1.735567566437     1.007825032230
         H           -2.275963615040    -2.744504323234     1.065522566437     1.007825032230

  Basis Set: AUG-CC-PVTZ
    Blend: AUG-CC-PVTZ
  Basis Set: (AUG-CC-PVTZ AUX)
    Blend: AUG-CC-PVTZ-JKFIT
	 Reference Energy          =    -566.4312237128164043 [Eh]
	 Singles Energy            =      -0.0000000000000000 [Eh]
	 Same-Spin Energy          =      -0.5962765031902093 [Eh]
	 Opposite-Spin Energy      =      -1.7917993022275995 [Eh]
	 Correlation Energy        =      -2.3880758054178086 [Eh]
	 Total Energy              =    -568.8192995182341747 [Eh]

	 ================> DF-SCS-MP2 Energies <==================
	-----------------------------------------------------------
	 SCS Same-Spin Scale       =       0.3333333333333333 [-]
	 SCS Opposite-Spin Scale   =       1.2000000000000000 [-]
	 SCS Same-Spin Energy      =      -0.1987588343967364 [Eh]
	 SCS Opposite-Spin Energy  =      -2.1501591626731194 [Eh]
	 SCS Correlation Energy    =      -2.3489179970698557 [Eh]
	 SCS Total Energy          =    -568.7801417098862657 [Eh]
	-----------------------------------------------------------

  Dipole Moment: [D]
     X:     0.8626      Y:    -4.0394      Z:     1.0109     Total:     4.2524

*** Psi4 exiting successfully. Buy a developer a beer!
