                               Psi4 1.4a3.dev225

  ==> Input File <==

--------------------------------------------------------------------------
#psi4
#
memory 32 gb

molecule  {
0 1
  O       -0.3643045     2.7229792     0.8569680
  O       -2.1331470    -1.1223190    -0.8372800
  N       -1.8213880     1.6463300    -0.5966440
  N       -1.3631050    -2.2953590     0.9499780
  C        0.3530890     0.6863100    -0.0267190
  C        0.1273570    -0.7062790    -0.0589400
  C        1.6757520     1.1521170    -0.0434370
  C        1.2227880    -1.5827320    -0.1454420
  C        2.7536970     0.2775120    -0.1531960
  C        2.5274700    -1.0985820    -0.2079210
  C       -0.6853200     1.7746360     0.1326930
  C       -1.2296110    -1.3487220    -0.0223170
  H        1.8350890     2.2234210     0.0367700
  H        1.0390000    -2.6541090    -0.1799310
  H        3.7675570     0.6687350    -0.1864300
  H        3.3600860    -1.7923230    -0.2949860
  H       -2.0668670     0.7647910    -1.0387640
  H       -2.5394600     2.3415160    -0.4355780
  H       -0.7232160    -2.3232030     1.7312060
  H       -2.2766340    -2.7186030     1.0611610
units angstrom
no_reorient  #important for SAPT in psi4, default
symmetry c1  #important for SAPT in psi4, default
}

set PROPERTIES_ORIGIN ["COM"]
properties('MP2/aug-cc-pvtz', properties = ['dipole'])
--------------------------------------------------------------------------

    Molecular point group: c1
  Charge       = 0
  Multiplicity = 1
  Basis Set: AUG-CC-PVTZ
    Blend: AUG-CC-PVTZ
  Basis Set: (AUG-CC-PVTZ AUX)
    Blend: AUG-CC-PVTZ-JKFIT

    Orbital Energies [Eh]
    ---------------------

    Doubly Occupied:

       1A    -20.546747     2A    -20.517271     3A    -15.608394
       4A    -15.576866     5A    -11.385590     6A    -11.358992
       7A    -11.277853     8A    -11.270085     9A    -11.263525
      10A    -11.259728    11A    -11.256295    12A    -11.252814
      13A     -1.401154    14A     -1.370734    15A     -1.236274
      16A     -1.208957    17A     -1.173083    18A     -1.053273
      19A     -1.043960    20A     -0.906484    21A     -0.867798
      22A     -0.820945    23A     -0.787861    24A     -0.764211
      25A     -0.724936    26A     -0.702144    27A     -0.687267
      28A     -0.658378    29A     -0.649177    30A     -0.631539
      31A     -0.609738    32A     -0.592585    33A     -0.580680
      34A     -0.567181    35A     -0.537424    36A     -0.520769
      37A     -0.515582    38A     -0.455494    39A     -0.440758
      40A     -0.429475    41A     -0.406810    42A     -0.360858
      43A     -0.352985

  @DF-RHF Final Energy:  -566.47020610949471

   => Energetics <=

    Nuclear Repulsion Energy =            670.4284193038103012
    One-Electron Energy =               -2102.5319032397542287
    Two-Electron Energy =                 865.6332778264493300
    Total Energy =                       -566.4702061094947112
  Basis Set: (AUG-CC-PVTZ AUX)
    Blend: AUG-CC-PVTZ-RI
    Molecular point group: c1

    Geometry (in Angstrom), charge = 0, multiplicity = 1:

       Center              X                  Y                   Z               Mass
    ------------   -----------------  -----------------  -----------------  -----------------
         O           -0.357098230279     2.705619184100     0.859051424853    15.994914619570
         O           -2.125940730279    -1.139679015900    -0.835196575147    15.994914619570
         N           -1.814181730279     1.628969984100    -0.594560575147    14.003074004430
         N           -1.355898730279    -2.312719015900     0.952061424853    14.003074004430
         C            0.360295269721     0.668949984100    -0.024635575147    12.000000000000
         C            0.134563269721    -0.723639015900    -0.056856575147    12.000000000000
         C            1.682958269721     1.134756984100    -0.041353575147    12.000000000000
         C            1.229994269721    -1.600092015900    -0.143358575147    12.000000000000
         C            2.760903269721     0.260151984100    -0.151112575147    12.000000000000
         C            2.534676269721    -1.115942015900    -0.205837575147    12.000000000000
         C           -0.678113730279     1.757275984100     0.134776424853    12.000000000000
         C           -1.222404730279    -1.366082015900    -0.020233575147    12.000000000000
         H            1.842295269721     2.206060984100     0.038853424853     1.007825032230
         H            1.046206269721    -2.671469015900    -0.177847575147     1.007825032230
         H            3.774763269721     0.651374984100    -0.184346575147     1.007825032230
         H            3.367292269721    -1.809683015900    -0.292902575147     1.007825032230
         H           -2.059660730279     0.747430984100    -1.036680575147     1.007825032230
         H           -2.532253730279     2.324155984100    -0.433494575147     1.007825032230
         H           -0.716009730279    -2.340563015900     1.733289424853     1.007825032230
         H           -2.269427730279    -2.735963015900     1.063244424853     1.007825032230

  Basis Set: AUG-CC-PVTZ
    Blend: AUG-CC-PVTZ
  Basis Set: (AUG-CC-PVTZ AUX)
    Blend: AUG-CC-PVTZ-JKFIT
	 Reference Energy          =    -566.4702061094947112 [Eh]
	 Singles Energy            =      -0.0000000000000000 [Eh]
	 Same-Spin Energy          =      -0.5969879443612003 [Eh]
	 Opposite-Spin Energy      =      -1.7898839487757432 [Eh]
	 Correlation Energy        =      -2.3868718931369433 [Eh]
	 Total Energy              =    -568.8570780026316243 [Eh]

	 ================> DF-SCS-MP2 Energies <==================
	-----------------------------------------------------------
	 SCS Same-Spin Scale       =       0.3333333333333333 [-]
	 SCS Opposite-Spin Scale   =       1.2000000000000000 [-]
	 SCS Same-Spin Energy      =      -0.1989959814537334 [Eh]
	 SCS Opposite-Spin Energy  =      -2.1478607385308917 [Eh]
	 SCS Correlation Energy    =      -2.3468567199846251 [Eh]
	 SCS Total Energy          =    -568.8170628294793687 [Eh]
	-----------------------------------------------------------

  Dipole Moment: [D]
     X:     0.6896      Y:    -3.8417      Z:     0.9888     Total:     4.0264

*** Psi4 exiting successfully. Buy a developer a beer!
