                               Psi4 1.4a3.dev225

  ==> Input File <==

--------------------------------------------------------------------------
#psi4
#
memory 32 gb

molecule  {
0 1
  O       -0.4387840     2.7607480     0.8353900
  O       -2.1331470    -1.1223190    -0.8372800
  N       -1.8213880     1.6463300    -0.5966440
  N       -1.3631050    -2.2953590     0.9499780
  C        0.3530890     0.6863100    -0.0267190
  C        0.1273570    -0.7062790    -0.0589400
  C        1.6757520     1.1521170    -0.0434370
  C        1.2227880    -1.5827320    -0.1454420
  C        2.7536970     0.2775120    -0.1531960
  C        2.5274700    -1.0985820    -0.2079210
  C       -0.6853200     1.7746360     0.1326930
  C       -1.2296110    -1.3487220    -0.0223170
  H        1.8350890     2.2234210     0.0367700
  H        1.0390000    -2.6541090    -0.1799310
  H        3.7675570     0.6687350    -0.1864300
  H        3.3600860    -1.7923230    -0.2949860
  H       -2.0547898     0.8081615    -1.0170123
  H       -2.5394600     2.3415160    -0.4355780
  H       -0.7232160    -2.3232030     1.7312060
  H       -2.2766340    -2.7186030     1.0611610
units angstrom
no_reorient  #important for SAPT in psi4, default
symmetry c1  #important for SAPT in psi4, default
}

set PROPERTIES_ORIGIN ["COM"]
properties('MP2/aug-cc-pvtz', properties = ['dipole'])
--------------------------------------------------------------------------

    Molecular point group: c1
  Charge       = 0
  Multiplicity = 1
  Basis Set: AUG-CC-PVTZ
    Blend: AUG-CC-PVTZ
  Basis Set: (AUG-CC-PVTZ AUX)
    Blend: AUG-CC-PVTZ-JKFIT

    Orbital Energies [Eh]
    ---------------------

    Doubly Occupied:

       1A    -20.545585     2A    -20.516512     3A    -15.608063
       4A    -15.569565     5A    -11.385023     6A    -11.358703
       7A    -11.280501     8A    -11.273454     9A    -11.265435
      10A    -11.262136    11A    -11.258457    12A    -11.255880
      13A     -1.399799    14A     -1.370970    15A     -1.235916
      16A     -1.211139    17A     -1.175522    18A     -1.055441
      19A     -1.046880    20A     -0.908478    21A     -0.869803
      22A     -0.822667    23A     -0.790081    24A     -0.766789
      25A     -0.730362    26A     -0.703355    27A     -0.687636
      28A     -0.659734    29A     -0.649082    30A     -0.631571
      31A     -0.610577    32A     -0.595037    33A     -0.581121
      34A     -0.567260    35A     -0.538994    36A     -0.523379
      37A     -0.517530    38A     -0.455117    39A     -0.439980
      40A     -0.430067    41A     -0.404745    42A     -0.362824
      43A     -0.356504

  @DF-RHF Final Energy:  -566.47159615236308

   => Energetics <=

    Nuclear Repulsion Energy =            669.9915314173824754
    One-Electron Energy =               -2101.5709102255368634
    Two-Electron Energy =                 865.1077826557913113
    Total Energy =                       -566.4715961523630767
  Basis Set: (AUG-CC-PVTZ AUX)
    Blend: AUG-CC-PVTZ-RI
    Molecular point group: c1

    Geometry (in Angstrom), charge = 0, multiplicity = 1:

       Center              X                  Y                   Z               Mass
    ------------   -----------------  -----------------  -----------------  -----------------
         O           -0.424390531921     2.739439281041     0.839443552626    15.994914619570
         O           -2.118753531921    -1.143627718959    -0.833226447374    15.994914619570
         N           -1.806994531921     1.625021281041    -0.592590447374    14.003074004430
         N           -1.348711531921    -2.316667718959     0.954031552626    14.003074004430
         C            0.367482468079     0.665001281041    -0.022665447374    12.000000000000
         C            0.141750468079    -0.727587718959    -0.054886447374    12.000000000000
         C            1.690145468079     1.130808281041    -0.039383447374    12.000000000000
         C            1.237181468079    -1.604040718959    -0.141388447374    12.000000000000
         C            2.768090468079     0.256203281041    -0.149142447374    12.000000000000
         C            2.541863468079    -1.119890718959    -0.203867447374    12.000000000000
         C           -0.670926531921     1.753327281041     0.136746552626    12.000000000000
         C           -1.215217531921    -1.370030718959    -0.018263447374    12.000000000000
         H            1.849482468079     2.202112281041     0.040823552626     1.007825032230
         H            1.053393468079    -2.675417718959    -0.175877447374     1.007825032230
         H            3.781950468079     0.647426281041    -0.182376447374     1.007825032230
         H            3.374479468079    -1.813631718959    -0.290932447374     1.007825032230
         H           -2.040396331921     0.786852781041    -1.012958747374     1.007825032230
         H           -2.525066531921     2.320207281041    -0.431524447374     1.007825032230
         H           -0.708822531921    -2.344511718959     1.735259552626     1.007825032230
         H           -2.262240531921    -2.739911718959     1.065214552626     1.007825032230

  Basis Set: AUG-CC-PVTZ
    Blend: AUG-CC-PVTZ
  Basis Set: (AUG-CC-PVTZ AUX)
    Blend: AUG-CC-PVTZ-JKFIT
	 Reference Energy          =    -566.4715961523630767 [Eh]
	 Singles Energy            =      -0.0000000000000000 [Eh]
	 Same-Spin Energy          =      -0.5962981073208155 [Eh]
	 Opposite-Spin Energy      =      -1.7888780854744182 [Eh]
	 Correlation Energy        =      -2.3851761927952335 [Eh]
	 Total Energy              =    -568.8567723451583333 [Eh]

	 ================> DF-SCS-MP2 Energies <==================
	-----------------------------------------------------------
	 SCS Same-Spin Scale       =       0.3333333333333333 [-]
	 SCS Opposite-Spin Scale   =       1.2000000000000000 [-]
	 SCS Same-Spin Energy      =      -0.1987660357736051 [Eh]
	 SCS Opposite-Spin Energy  =      -2.1466537025693015 [Eh]
	 SCS Correlation Energy    =      -2.3454197383429065 [Eh]
	 SCS Total Energy          =    -568.8170158907059886 [Eh]
	-----------------------------------------------------------

  Dipole Moment: [D]
     X:     0.9481      Y:    -3.9220      Z:     1.0333     Total:     4.1652

*** Psi4 exiting successfully. Buy a developer a beer!
