                               Psi4 1.4a3.dev225

  ==> Input File <==

--------------------------------------------------------------------------
#psi4
#
memory 32 gb

molecule  {
0 1
  O       -0.4387840     2.7607480     0.8353900
  O       -2.1331470    -1.1223190    -0.8372800
  N       -1.8213880     1.6463300    -0.5966440
  N       -1.3631050    -2.2953590     0.9499780
  C        0.3530890     0.6863100    -0.0267190
  C        0.1273570    -0.7062790    -0.0589400
  C        1.6757520     1.1521170    -0.0434370
  C        1.2227880    -1.5827320    -0.1454420
  C        2.7536970     0.2775120    -0.1531960
  C        2.5274700    -1.0985820    -0.2079210
  C       -0.6853200     1.7746360     0.1326930
  C       -1.3026146    -1.3304292    -0.0881641
  H        1.8350890     2.2234210     0.0367700
  H        1.0390000    -2.6541090    -0.1799310
  H        3.7675570     0.6687350    -0.1864300
  H        3.3600860    -1.7923230    -0.2949860
  H       -2.0668670     0.7647910    -1.0387640
  H       -2.5394600     2.3415160    -0.4355780
  H       -0.7232160    -2.3232030     1.7312060
  H       -2.2766340    -2.7186030     1.0611610
units angstrom
no_reorient  #important for SAPT in psi4, default
symmetry c1  #important for SAPT in psi4, default
}

set PROPERTIES_ORIGIN ["COM"]
properties('MP2/aug-cc-pvtz', properties = ['dipole'])
--------------------------------------------------------------------------

    Molecular point group: c1
  Charge       = 0
  Multiplicity = 1
  Basis Set: AUG-CC-PVTZ
    Blend: AUG-CC-PVTZ
  Basis Set: (AUG-CC-PVTZ AUX)
    Blend: AUG-CC-PVTZ-JKFIT

    Orbital Energies [Eh]
    ---------------------

    Doubly Occupied:

       1A    -20.567417     2A    -20.516525     3A    -15.593328
       4A    -15.576457     5A    -11.383860     6A    -11.358515
       7A    -11.277750     8A    -11.268513     9A    -11.261217
      10A    -11.259124    11A    -11.254559    12A    -11.252630
      13A     -1.475577    14A     -1.370864    15A     -1.217373
      16A     -1.207211    17A     -1.169601    18A     -1.048631
      19A     -1.040905    20A     -0.897196    21A     -0.864958
      22A     -0.815113    23A     -0.784383    24A     -0.764249
      25A     -0.721934    26A     -0.703559    27A     -0.688551
      28A     -0.669389    29A     -0.653148    30A     -0.638930
      31A     -0.618225    32A     -0.604456    33A     -0.590812
      34A     -0.568328    35A     -0.543347    36A     -0.520466
      37A     -0.515019    38A     -0.456475    39A     -0.440317
      40A     -0.429589    41A     -0.406723    42A     -0.359442
      43A     -0.353307

  @DF-RHF Final Energy:  -566.46156162986892

   => Energetics <=

    Nuclear Repulsion Energy =            669.9872927459994116
    One-Electron Energy =               -2101.4817598196286781
    Two-Electron Energy =                 865.0329054437603418
    Total Energy =                       -566.4615616298689247
  Basis Set: (AUG-CC-PVTZ AUX)
    Blend: AUG-CC-PVTZ-RI
    Molecular point group: c1

    Geometry (in Angstrom), charge = 0, multiplicity = 1:

       Center              X                  Y                   Z               Mass
    ------------   -----------------  -----------------  -----------------  -----------------
         O           -0.418976521157     2.738367689862     0.844393535249    15.994914619570
         O           -2.113339521157    -1.144699310138    -0.828276464751    15.994914619570
         N           -1.801580521157     1.623949689862    -0.587640464751    14.003074004430
         N           -1.343297521157    -2.317739310138     0.958981535249    14.003074004430
         C            0.372896478843     0.663929689862    -0.017715464751    12.000000000000
         C            0.147164478843    -0.728659310138    -0.049936464751    12.000000000000
         C            1.695559478843     1.129736689862    -0.034433464751    12.000000000000
         C            1.242595478843    -1.605112310138    -0.136438464751    12.000000000000
         C            2.773504478843     0.255131689862    -0.144192464751    12.000000000000
         C            2.547277478843    -1.120962310138    -0.198917464751    12.000000000000
         C           -0.665512521157     1.752255689862     0.141696535249    12.000000000000
         C           -1.282807121157    -1.352809510138    -0.079160564751    12.000000000000
         H            1.854896478843     2.201040689862     0.045773535249     1.007825032230
         H            1.058807478843    -2.676489310138    -0.170927464751     1.007825032230
         H            3.787364478843     0.646354689862    -0.177426464751     1.007825032230
         H            3.379893478843    -1.814703310138    -0.285982464751     1.007825032230
         H           -2.047059521157     0.742410689862    -1.029760464751     1.007825032230
         H           -2.519652521157     2.319135689862    -0.426574464751     1.007825032230
         H           -0.703408521157    -2.345583310138     1.740209535249     1.007825032230
         H           -2.256826521157    -2.740983310138     1.070164535249     1.007825032230

  Basis Set: AUG-CC-PVTZ
    Blend: AUG-CC-PVTZ
  Basis Set: (AUG-CC-PVTZ AUX)
    Blend: AUG-CC-PVTZ-JKFIT
	 Reference Energy          =    -566.4615616298689247 [Eh]
	 Singles Energy            =      -0.0000000000000000 [Eh]
	 Same-Spin Energy          =      -0.5945952136205868 [Eh]
	 Opposite-Spin Energy      =      -1.7856288722755249 [Eh]
	 Correlation Energy        =      -2.3802240858961117 [Eh]
	 Total Energy              =    -568.8417857157650133 [Eh]

	 ================> DF-SCS-MP2 Energies <==================
	-----------------------------------------------------------
	 SCS Same-Spin Scale       =       0.3333333333333333 [-]
	 SCS Opposite-Spin Scale   =       1.2000000000000000 [-]
	 SCS Same-Spin Energy      =      -0.1981984045401956 [Eh]
	 SCS Opposite-Spin Energy  =      -2.1427546467306300 [Eh]
	 SCS Correlation Energy    =      -2.3409530512708256 [Eh]
	 SCS Total Energy          =    -568.8025146811397690 [Eh]
	-----------------------------------------------------------

  Dipole Moment: [D]
     X:     0.4518      Y:    -3.7444      Z:     0.4540     Total:     3.7988

*** Psi4 exiting successfully. Buy a developer a beer!
