                               Psi4 1.4a3.dev225

  ==> Input File <==

--------------------------------------------------------------------------
#psi4
#
memory 32 gb

molecule  {
0 1
  O       -0.4387840     2.7607480     0.8353900
  O       -2.1331470    -1.1223190    -0.8372800
  N       -1.8213880     1.6463300    -0.5966440
  N       -1.3631050    -2.2953590     0.9499780
  C        0.3530890     0.6863100    -0.0267190
  C        0.1273570    -0.7062790    -0.0589400
  C        1.6457617     1.1138733    -0.0439920
  C        1.2227880    -1.5827320    -0.1454420
  C        2.7536970     0.2775120    -0.1531960
  C        2.5274700    -1.0985820    -0.2079210
  C       -0.6853200     1.7746360     0.1326930
  C       -1.2296110    -1.3487220    -0.0223170
  H        1.8350890     2.2234210     0.0367700
  H        1.0390000    -2.6541090    -0.1799310
  H        3.7675570     0.6687350    -0.1864300
  H        3.3600860    -1.7923230    -0.2949860
  H       -2.0668670     0.7647910    -1.0387640
  H       -2.5394600     2.3415160    -0.4355780
  H       -0.7232160    -2.3232030     1.7312060
  H       -2.2766340    -2.7186030     1.0611610
units angstrom
no_reorient  #important for SAPT in psi4, default
symmetry c1  #important for SAPT in psi4, default
}

set PROPERTIES_ORIGIN ["COM"]
properties('MP2/aug-cc-pvtz', properties = ['dipole'])
--------------------------------------------------------------------------

    Molecular point group: c1
  Charge       = 0
  Multiplicity = 1
  Basis Set: AUG-CC-PVTZ
    Blend: AUG-CC-PVTZ
  Basis Set: (AUG-CC-PVTZ AUX)
    Blend: AUG-CC-PVTZ-JKFIT

    Orbital Energies [Eh]
    ---------------------

    Doubly Occupied:

       1A    -20.546932     2A    -20.515277     3A    -15.608821
       4A    -15.572054     5A    -11.385942     6A    -11.357770
       7A    -11.280451     8A    -11.268472     9A    -11.265185
      10A    -11.261787    11A    -11.258530    12A    -11.253901
      13A     -1.401349    14A     -1.369533    15A     -1.236771
      16A     -1.204087    17A     -1.178821    18A     -1.056448
      19A     -1.049018    20A     -0.908937    21A     -0.868406
      22A     -0.820882    23A     -0.789519    24A     -0.763530
      25A     -0.725182    26A     -0.701081    27A     -0.688089
      28A     -0.658833    29A     -0.647994    30A     -0.632598
      31A     -0.606150    32A     -0.594314    33A     -0.580979
      34A     -0.567205    35A     -0.544060    36A     -0.519733
      37A     -0.512772    38A     -0.456066    39A     -0.440759
      40A     -0.429285    41A     -0.402387    42A     -0.362496
      43A     -0.359803

  @DF-RHF Final Energy:  -566.46902551111157

   => Energetics <=

    Nuclear Repulsion Energy =            670.7387852467246603
    One-Electron Energy =               -2103.1111994876023346
    Two-Electron Energy =                 865.9033887297662204
    Total Energy =                       -566.4690255111115675
  Basis Set: (AUG-CC-PVTZ AUX)
    Blend: AUG-CC-PVTZ-RI
    Molecular point group: c1

    Geometry (in Angstrom), charge = 0, multiplicity = 1:

       Center              X                  Y                   Z               Mass
    ------------   -----------------  -----------------  -----------------  -----------------
         O           -0.422122712035     2.742503029875     0.839617770324    15.994914619570
         O           -2.116485712035    -1.140563970125    -0.833052229676    15.994914619570
         N           -1.804726712035     1.628085029875    -0.592416229676    14.003074004430
         N           -1.346443712035    -2.313603970125     0.954205770324    14.003074004430
         C            0.369750287965     0.668065029875    -0.022491229676    12.000000000000
         C            0.144018287965    -0.724523970125    -0.054712229676    12.000000000000
         C            1.662422987965     1.095628329875    -0.039764229676    12.000000000000
         C            1.239449287965    -1.600976970125    -0.141214229676    12.000000000000
         C            2.770358287965     0.259267029875    -0.148968229676    12.000000000000
         C            2.544131287965    -1.116826970125    -0.203693229676    12.000000000000
         C           -0.668658712035     1.756391029875     0.136920770324    12.000000000000
         C           -1.212949712035    -1.366966970125    -0.018089229676    12.000000000000
         H            1.851750287965     2.205176029875     0.040997770324     1.007825032230
         H            1.055661287965    -2.672353970125    -0.175703229676     1.007825032230
         H            3.784218287965     0.650490029875    -0.182202229676     1.007825032230
         H            3.376747287965    -1.810567970125    -0.290758229676     1.007825032230
         H           -2.050205712035     0.746546029875    -1.034536229676     1.007825032230
         H           -2.522798712035     2.323271029875    -0.431350229676     1.007825032230
         H           -0.706554712035    -2.341447970125     1.735433770324     1.007825032230
         H           -2.259972712035    -2.736847970125     1.065388770324     1.007825032230

  Basis Set: AUG-CC-PVTZ
    Blend: AUG-CC-PVTZ
  Basis Set: (AUG-CC-PVTZ AUX)
    Blend: AUG-CC-PVTZ-JKFIT
	 Reference Energy          =    -566.4690255111115675 [Eh]
	 Singles Energy            =      -0.0000000000000000 [Eh]
	 Same-Spin Energy          =      -0.5969427192097029 [Eh]
	 Opposite-Spin Energy      =      -1.7898090965060878 [Eh]
	 Correlation Energy        =      -2.3867518157157908 [Eh]
	 Total Energy              =    -568.8557773268273650 [Eh]

	 ================> DF-SCS-MP2 Energies <==================
	-----------------------------------------------------------
	 SCS Same-Spin Scale       =       0.3333333333333333 [-]
	 SCS Opposite-Spin Scale   =       1.2000000000000000 [-]
	 SCS Same-Spin Energy      =      -0.1989809064032343 [Eh]
	 SCS Opposite-Spin Energy  =      -2.1477709158073051 [Eh]
	 SCS Correlation Energy    =      -2.3467518222105395 [Eh]
	 SCS Total Energy          =    -568.8157773333221030 [Eh]
	-----------------------------------------------------------

  Dipole Moment: [D]
     X:     0.9366      Y:    -4.0364      Z:     1.0131     Total:     4.2657

*** Psi4 exiting successfully. Buy a developer a beer!
