                               Psi4 1.4a3.dev225

  ==> Input File <==

--------------------------------------------------------------------------
#psi4
#
memory 32 gb

molecule  {
0 1
  O       -0.4387840     2.7607480     0.8353900
  O       -2.1331470    -1.1223190    -0.8372800
  N       -1.8213880     1.6463300    -0.5966440
  N       -1.3631050    -2.2953590     0.9499780
  C        0.3530890     0.6863100    -0.0267190
  C        0.1273570    -0.7062790    -0.0589400
  C        1.6757520     1.1521170    -0.0434370
  C        1.2227880    -1.5827320    -0.1454420
  C        2.7536970     0.2775120    -0.1531960
  C        2.5274700    -1.0985820    -0.2079210
  C       -0.6853200     1.7746360     0.1326930
  C       -1.3756182    -1.3121363    -0.1540112
  H        1.8350890     2.2234210     0.0367700
  H        1.0390000    -2.6541090    -0.1799310
  H        3.7675570     0.6687350    -0.1864300
  H        3.3600860    -1.7923230    -0.2949860
  H       -2.0668670     0.7647910    -1.0387640
  H       -2.5394600     2.3415160    -0.4355780
  H       -0.7232160    -2.3232030     1.7312060
  H       -2.2766340    -2.7186030     1.0611610
units angstrom
no_reorient  #important for SAPT in psi4, default
symmetry c1  #important for SAPT in psi4, default
}

set PROPERTIES_ORIGIN ["COM"]
properties('MP2/aug-cc-pvtz', properties = ['dipole'])
--------------------------------------------------------------------------

    Molecular point group: c1
  Charge       = 0
  Multiplicity = 1
  Basis Set: AUG-CC-PVTZ
    Blend: AUG-CC-PVTZ
  Basis Set: (AUG-CC-PVTZ AUX)
    Blend: AUG-CC-PVTZ-JKFIT

    Orbital Energies [Eh]
    ---------------------

    Doubly Occupied:

       1A    -20.588550     2A    -20.517673     3A    -15.581435
       4A    -15.576960     5A    -11.380686     6A    -11.359361
       7A    -11.273343     8A    -11.263415     9A    -11.256743
      10A    -11.255521    11A    -11.250485    12A    -11.249174
      13A     -1.566435    14A     -1.372002    15A     -1.211247
      16A     -1.193830    17A     -1.163105    18A     -1.043765
      19A     -1.033545    20A     -0.887988    21A     -0.859364
      22A     -0.812002    23A     -0.784246    24A     -0.770304
      25A     -0.737082    26A     -0.715594    27A     -0.690079
      28A     -0.674094    29A     -0.671403    30A     -0.649442
      31A     -0.630778    32A     -0.610068    33A     -0.593611
      34A     -0.568511    35A     -0.544545    36A     -0.518214
      37A     -0.512353    38A     -0.445490    39A     -0.432997
      40A     -0.424176    41A     -0.410628    42A     -0.354678
      43A     -0.349734

  @DF-RHF Final Energy:  -566.39891207319863

   => Energetics <=

    Nuclear Repulsion Energy =            670.5138241609992065
    One-Electron Energy =               -2102.2561567815428134
    Two-Electron Energy =                 865.3434205473448628
    Total Energy =                       -566.3989120731986304
  Basis Set: (AUG-CC-PVTZ AUX)
    Blend: AUG-CC-PVTZ-RI
    Molecular point group: c1

    Geometry (in Angstrom), charge = 0, multiplicity = 1:

       Center              X                  Y                   Z               Mass
    ------------   -----------------  -----------------  -----------------  -----------------
         O           -0.413636701604     2.737029662900     0.849209895429    15.994914619570
         O           -2.107999701604    -1.146037337100    -0.823460104571    15.994914619570
         N           -1.796240701604     1.622611662900    -0.582824104571    14.003074004430
         N           -1.337957701604    -2.319077337100     0.963797895429    14.003074004430
         C            0.378236298396     0.662591662900    -0.012899104571    12.000000000000
         C            0.152504298396    -0.729997337100    -0.045120104571    12.000000000000
         C            1.700899298396     1.128398662900    -0.029617104571    12.000000000000
         C            1.247935298396    -1.606450337100    -0.131622104571    12.000000000000
         C            2.778844298396     0.253793662900    -0.139376104571    12.000000000000
         C            2.552617298396    -1.122300337100    -0.194101104571    12.000000000000
         C           -0.660172701604     1.750917662900     0.146512895429    12.000000000000
         C           -1.350470901604    -1.335854637100    -0.140191304571    12.000000000000
         H            1.860236298396     2.199702662900     0.050589895429     1.007825032230
         H            1.064147298396    -2.677827337100    -0.166111104571     1.007825032230
         H            3.792704298396     0.645016662900    -0.172610104571     1.007825032230
         H            3.385233298396    -1.816041337100    -0.281166104571     1.007825032230
         H           -2.041719701604     0.741072662900    -1.024944104571     1.007825032230
         H           -2.514312701604     2.317797662900    -0.421758104571     1.007825032230
         H           -0.698068701604    -2.346921337100     1.745025895429     1.007825032230
         H           -2.251486701604    -2.742321337100     1.074980895429     1.007825032230

  Basis Set: AUG-CC-PVTZ
    Blend: AUG-CC-PVTZ
  Basis Set: (AUG-CC-PVTZ AUX)
    Blend: AUG-CC-PVTZ-JKFIT
	 Reference Energy          =    -566.3989120731986304 [Eh]
	 Singles Energy            =      -0.0000000000000000 [Eh]
	 Same-Spin Energy          =      -0.5928135160495889 [Eh]
	 Opposite-Spin Energy      =      -1.7822895927701188 [Eh]
	 Correlation Energy        =      -2.3751031088197077 [Eh]
	 Total Energy              =    -568.7740151820183883 [Eh]

	 ================> DF-SCS-MP2 Energies <==================
	-----------------------------------------------------------
	 SCS Same-Spin Scale       =       0.3333333333333333 [-]
	 SCS Opposite-Spin Scale   =       1.2000000000000000 [-]
	 SCS Same-Spin Energy      =      -0.1976045053498630 [Eh]
	 SCS Opposite-Spin Energy  =      -2.1387475113241425 [Eh]
	 SCS Correlation Energy    =      -2.3363520166740055 [Eh]
	 SCS Total Energy          =    -568.7352640898726577 [Eh]
	-----------------------------------------------------------

  Dipole Moment: [D]
     X:    -0.1052      Y:    -3.4272      Z:    -0.1853     Total:     3.4338

*** Psi4 exiting successfully. Buy a developer a beer!
