                               Psi4 1.4a3.dev225

  ==> Input File <==

--------------------------------------------------------------------------
#psi4
#
memory 32 gb

molecule  {
0 1
  O       -0.4387840     2.7607480     0.8353900
  O       -2.1331470    -1.1223190    -0.8372800
  N       -1.8213880     1.6463300    -0.5966440
  N       -1.3631050    -2.2953590     0.9499780
  C        0.3377520     0.7325886    -0.0223396
  C        0.1273570    -0.7062790    -0.0589400
  C        1.6757520     1.1521170    -0.0434370
  C        1.2227880    -1.5827320    -0.1454420
  C        2.7536970     0.2775120    -0.1531960
  C        2.5274700    -1.0985820    -0.2079210
  C       -0.6853200     1.7746360     0.1326930
  C       -1.2296110    -1.3487220    -0.0223170
  H        1.8350890     2.2234210     0.0367700
  H        1.0390000    -2.6541090    -0.1799310
  H        3.7675570     0.6687350    -0.1864300
  H        3.3600860    -1.7923230    -0.2949860
  H       -2.0668670     0.7647910    -1.0387640
  H       -2.5394600     2.3415160    -0.4355780
  H       -0.7232160    -2.3232030     1.7312060
  H       -2.2766340    -2.7186030     1.0611610
units angstrom
no_reorient  #important for SAPT in psi4, default
symmetry c1  #important for SAPT in psi4, default
}

set PROPERTIES_ORIGIN ["COM"]
properties('MP2/aug-cc-pvtz', properties = ['dipole'])
--------------------------------------------------------------------------

    Molecular point group: c1
  Charge       = 0
  Multiplicity = 1
  Basis Set: AUG-CC-PVTZ
    Blend: AUG-CC-PVTZ
  Basis Set: (AUG-CC-PVTZ AUX)
    Blend: AUG-CC-PVTZ-JKFIT

    Orbital Energies [Eh]
    ---------------------

    Doubly Occupied:

       1A    -20.546627     2A    -20.514089     3A    -15.608564
       4A    -15.571622     5A    -11.385603     6A    -11.354652
       7A    -11.285447     8A    -11.274817     9A    -11.266534
      10A    -11.263604    11A    -11.259401    12A    -11.256979
      13A     -1.401007    14A     -1.370538    15A     -1.236351
      16A     -1.203820    17A     -1.171895    18A     -1.053273
      19A     -1.049309    20A     -0.913230    21A     -0.871862
      22A     -0.817662    23A     -0.788522    24A     -0.763014
      25A     -0.725356    26A     -0.702625    27A     -0.688639
      28A     -0.656829    29A     -0.650973    30A     -0.631603
      31A     -0.610577    32A     -0.594680    33A     -0.579496
      34A     -0.567724    35A     -0.541977    36A     -0.518589
      37A     -0.515060    38A     -0.455682    39A     -0.440539
      40A     -0.431162    41A     -0.402167    42A     -0.360744
      43A     -0.356113

  @DF-RHF Final Energy:  -566.46790022340224

   => Energetics <=

    Nuclear Repulsion Energy =            669.6040445003643526
    One-Electron Energy =               -2100.8259752761432537
    Two-Electron Energy =                 864.7540305523766619
    Total Energy =                       -566.4679002234022391
  Basis Set: (AUG-CC-PVTZ AUX)
    Blend: AUG-CC-PVTZ-RI
    Molecular point group: c1

    Geometry (in Angstrom), charge = 0, multiplicity = 1:

       Center              X                  Y                   Z               Mass
    ------------   -----------------  -----------------  -----------------  -----------------
         O           -0.423194521889     2.736320679550     0.839256845581    15.994914619570
         O           -2.117557521889    -1.146746320450    -0.833413154419    15.994914619570
         N           -1.805798521889     1.621902679550    -0.592777154419    14.003074004430
         N           -1.347515521889    -2.319786320450     0.953844845581    14.003074004430
         C            0.353341478111     0.708161279550    -0.018472754419    12.000000000000
         C            0.142946478111    -0.730706320450    -0.055073154419    12.000000000000
         C            1.691341478111     1.127689679550    -0.039570154419    12.000000000000
         C            1.238377478111    -1.607159320450    -0.141575154419    12.000000000000
         C            2.769286478111     0.253084679550    -0.149329154419    12.000000000000
         C            2.543059478111    -1.123009320450    -0.204054154419    12.000000000000
         C           -0.669730521889     1.750208679550     0.136559845581    12.000000000000
         C           -1.214021521889    -1.373149320450    -0.018450154419    12.000000000000
         H            1.850678478111     2.198993679550     0.040636845581     1.007825032230
         H            1.054589478111    -2.678536320450    -0.176064154419     1.007825032230
         H            3.783146478111     0.644307679550    -0.182563154419     1.007825032230
         H            3.375675478111    -1.816750320450    -0.291119154419     1.007825032230
         H           -2.051277521889     0.740363679550    -1.034897154419     1.007825032230
         H           -2.523870521889     2.317088679550    -0.431711154419     1.007825032230
         H           -0.707626521889    -2.347630320450     1.735072845581     1.007825032230
         H           -2.261044521889    -2.743030320450     1.065027845581     1.007825032230

  Basis Set: AUG-CC-PVTZ
    Blend: AUG-CC-PVTZ
  Basis Set: (AUG-CC-PVTZ AUX)
    Blend: AUG-CC-PVTZ-JKFIT
	 Reference Energy          =    -566.4679002234022391 [Eh]
	 Singles Energy            =      -0.0000000000000000 [Eh]
	 Same-Spin Energy          =      -0.5972341065543738 [Eh]
	 Opposite-Spin Energy      =      -1.7905105389120135 [Eh]
	 Correlation Energy        =      -2.3877446454663875 [Eh]
	 Total Energy              =    -568.8556448688685805 [Eh]

	 ================> DF-SCS-MP2 Energies <==================
	-----------------------------------------------------------
	 SCS Same-Spin Scale       =       0.3333333333333333 [-]
	 SCS Opposite-Spin Scale   =       1.2000000000000000 [-]
	 SCS Same-Spin Energy      =      -0.1990780355181246 [Eh]
	 SCS Opposite-Spin Energy  =      -2.1486126466944162 [Eh]
	 SCS Correlation Energy    =      -2.3476906822125407 [Eh]
	 SCS Total Energy          =    -568.8155909056147266 [Eh]
	-----------------------------------------------------------

  Dipole Moment: [D]
     X:     0.9817      Y:    -4.0603      Z:     1.0029     Total:     4.2960

*** Psi4 exiting successfully. Buy a developer a beer!
