                               Psi4 1.4a3.dev225

  ==> Input File <==

--------------------------------------------------------------------------
#psi4
#
memory 32 gb

molecule  {
0 1
  O       -0.4387840     2.7607480     0.8353900
  O       -2.1331470    -1.1223190    -0.8372800
  N       -1.8213880     1.6463300    -0.5966440
  N       -1.3631050    -2.2953590     0.9499780
  C        0.3530890     0.6863100    -0.0267190
  C        0.1273570    -0.7062790    -0.0589400
  C        1.6757520     1.1521170    -0.0434370
  C        1.2227880    -1.5827320    -0.1454420
  C        2.7536970     0.2775120    -0.1531960
  C        2.5274700    -1.0985820    -0.2079210
  C       -0.6813298     1.7905962     0.1440662
  C       -1.2296110    -1.3487220    -0.0223170
  H        1.8350890     2.2234210     0.0367700
  H        1.0390000    -2.6541090    -0.1799310
  H        3.7675570     0.6687350    -0.1864300
  H        3.3600860    -1.7923230    -0.2949860
  H       -2.0668670     0.7647910    -1.0387640
  H       -2.5394600     2.3415160    -0.4355780
  H       -0.7232160    -2.3232030     1.7312060
  H       -2.2766340    -2.7186030     1.0611610
units angstrom
no_reorient  #important for SAPT in psi4, default
symmetry c1  #important for SAPT in psi4, default
}

set PROPERTIES_ORIGIN ["COM"]
properties('MP2/aug-cc-pvtz', properties = ['dipole'])
--------------------------------------------------------------------------

    Molecular point group: c1
  Charge       = 0
  Multiplicity = 1
  Basis Set: AUG-CC-PVTZ
    Blend: AUG-CC-PVTZ
  Basis Set: (AUG-CC-PVTZ AUX)
    Blend: AUG-CC-PVTZ-JKFIT

    Orbital Energies [Eh]
    ---------------------

    Doubly Occupied:

       1A    -20.546227     2A    -20.519581     3A    -15.608393
       4A    -15.568907     5A    -11.385492     6A    -11.357486
       7A    -11.279953     8A    -11.272650     9A    -11.265198
      10A    -11.261434    11A    -11.258050    12A    -11.254971
      13A     -1.400686    14A     -1.382771    15A     -1.236239
      16A     -1.200672    17A     -1.173867    18A     -1.054375
      19A     -1.045913    20A     -0.907121    21A     -0.867250
      22A     -0.821755    23A     -0.785657    24A     -0.763043
      25A     -0.722947    26A     -0.701820    27A     -0.684536
      28A     -0.659690    29A     -0.648110    30A     -0.633937
      31A     -0.611036    32A     -0.595795    33A     -0.581171
      34A     -0.569410    35A     -0.539514    36A     -0.523599
      37A     -0.517206    38A     -0.455165    39A     -0.440697
      40A     -0.430222    41A     -0.404097    42A     -0.362373
      43A     -0.356164

  @DF-RHF Final Energy:  -566.47267080424047

   => Energetics <=

    Nuclear Repulsion Energy =            669.7414706016322725
    One-Electron Energy =               -2101.1179211541370933
    Two-Electron Energy =                 864.9037797482643555
    Total Energy =                       -566.4726708042404653
  Basis Set: (AUG-CC-PVTZ AUX)
    Blend: AUG-CC-PVTZ-RI
    Molecular point group: c1

    Geometry (in Angstrom), charge = 0, multiplicity = 1:

       Center              X                  Y                   Z               Mass
    ------------   -----------------  -----------------  -----------------  -----------------
         O           -0.424608202317     2.738538306970     0.838745286836    15.994914619570
         O           -2.118971202317    -1.144528693030    -0.833924713164    15.994914619570
         N           -1.807212202317     1.624120306970    -0.593288713164    14.003074004430
         N           -1.348929202317    -2.317568693030     0.953333286836    14.003074004430
         C            0.367264797683     0.664100306970    -0.023363713164    12.000000000000
         C            0.141532797683    -0.728488693030    -0.055584713164    12.000000000000
         C            1.689927797683     1.129907306970    -0.040081713164    12.000000000000
         C            1.236963797683    -1.604941693030    -0.142086713164    12.000000000000
         C            2.767872797683     0.255302306970    -0.149840713164    12.000000000000
         C            2.541645797683    -1.120791693030    -0.204565713164    12.000000000000
         C           -0.667154002317     1.768386506970     0.147421486836    12.000000000000
         C           -1.215435202317    -1.370931693030    -0.018961713164    12.000000000000
         H            1.849264797683     2.201211306970     0.040125286836     1.007825032230
         H            1.053175797683    -2.676318693030    -0.176575713164     1.007825032230
         H            3.781732797683     0.646525306970    -0.183074713164     1.007825032230
         H            3.374261797683    -1.814532693030    -0.291630713164     1.007825032230
         H           -2.052691202317     0.742581306970    -1.035408713164     1.007825032230
         H           -2.525284202317     2.319306306970    -0.432222713164     1.007825032230
         H           -0.709040202317    -2.345412693030     1.734561286836     1.007825032230
         H           -2.262458202317    -2.740812693030     1.064516286836     1.007825032230

  Basis Set: AUG-CC-PVTZ
    Blend: AUG-CC-PVTZ
  Basis Set: (AUG-CC-PVTZ AUX)
    Blend: AUG-CC-PVTZ-JKFIT
	 Reference Energy          =    -566.4726708042404653 [Eh]
	 Singles Energy            =      -0.0000000000000000 [Eh]
	 Same-Spin Energy          =      -0.5964046707894690 [Eh]
	 Opposite-Spin Energy      =      -1.7889034218173194 [Eh]
	 Correlation Energy        =      -2.3853080926067882 [Eh]
	 Total Energy              =    -568.8579788968472712 [Eh]

	 ================> DF-SCS-MP2 Energies <==================
	-----------------------------------------------------------
	 SCS Same-Spin Scale       =       0.3333333333333333 [-]
	 SCS Opposite-Spin Scale   =       1.2000000000000000 [-]
	 SCS Same-Spin Energy      =      -0.1988015569298230 [Eh]
	 SCS Opposite-Spin Energy  =      -2.1466841061807833 [Eh]
	 SCS Correlation Energy    =      -2.3454856631106065 [Eh]
	 SCS Total Energy          =    -568.8181564673510593 [Eh]
	-----------------------------------------------------------

  Dipole Moment: [D]
     X:     0.9730      Y:    -3.9237      Z:     1.1081     Total:     4.1917

*** Psi4 exiting successfully. Buy a developer a beer!
