                               Psi4 1.4a3.dev225

  ==> Input File <==

--------------------------------------------------------------------------
#psi4
#
memory 32 gb

molecule  {
0 1
  O       -0.4387840     2.7607480     0.8353900
  O       -2.1331470    -1.1223190    -0.8372800
  N       -1.8213880     1.6463300    -0.5966440
  N       -1.3631050    -2.2953590     0.9499780
  C        0.3530890     0.6863100    -0.0267190
  C        0.1273570    -0.7062790    -0.0589400
  C        1.6757520     1.1521170    -0.0434370
  C        1.2227880    -1.5827320    -0.1454420
  C        2.7536970     0.2775120    -0.1531960
  C        2.5274700    -1.0985820    -0.2079210
  C       -0.6853200     1.7746360     0.1326930
  C       -1.2296110    -1.3487220    -0.0223170
  H        1.8350890     2.2234210     0.0367700
  H        1.0390000    -2.6541090    -0.1799310
  H        3.7675570     0.6687350    -0.1864300
  H        3.3600860    -1.7923230    -0.2949860
  H       -2.0668670     0.7647910    -1.0387640
  H       -2.5394600     2.3415160    -0.4355780
  H       -0.7232160    -2.3232030     1.7312060
  H       -2.2315407    -2.6977110     1.0556728
units angstrom
no_reorient  #important for SAPT in psi4, default
symmetry c1  #important for SAPT in psi4, default
}

set PROPERTIES_ORIGIN ["COM"]
properties('MP2/aug-cc-pvtz', properties = ['dipole'])
--------------------------------------------------------------------------

    Molecular point group: c1
  Charge       = 0
  Multiplicity = 1
  Basis Set: AUG-CC-PVTZ
    Blend: AUG-CC-PVTZ
  Basis Set: (AUG-CC-PVTZ AUX)
    Blend: AUG-CC-PVTZ-JKFIT

    Orbital Energies [Eh]
    ---------------------

    Doubly Occupied:

       1A    -20.547726     2A    -20.515462     3A    -15.604589
       4A    -15.572008     5A    -11.386687     6A    -11.357699
       7A    -11.280600     8A    -11.273408     9A    -11.265750
      10A    -11.262219    11A    -11.258576    12A    -11.255778
      13A     -1.402548    14A     -1.369716    15A     -1.243064
      16A     -1.203775    17A     -1.175602    18A     -1.056150
      19A     -1.047060    20A     -0.910775    21A     -0.869682
      22A     -0.824852    23A     -0.787881    24A     -0.766722
      25A     -0.728633    26A     -0.706910    27A     -0.686707
      28A     -0.660219    29A     -0.649698    30A     -0.632488
      31A     -0.611699    32A     -0.593105    33A     -0.581812
      34A     -0.566667    35A     -0.539147    36A     -0.523328
      37A     -0.517542    38A     -0.456336    39A     -0.441994
      40A     -0.429254    41A     -0.402688    42A     -0.363084
      43A     -0.356477

  @DF-RHF Final Energy:  -566.47133207185936

   => Energetics <=

    Nuclear Repulsion Energy =            670.1084635721645100
    One-Electron Energy =               -2101.7873588785737411
    Two-Electron Energy =                 865.2075632345498661
    Total Energy =                       -566.4713320718593650
  Basis Set: (AUG-CC-PVTZ AUX)
    Blend: AUG-CC-PVTZ-RI
    Molecular point group: c1

    Geometry (in Angstrom), charge = 0, multiplicity = 1:

       Center              X                  Y                   Z               Mass
    ------------   -----------------  -----------------  -----------------  -----------------
         O           -0.424593352478     2.739577368274     0.839610889522    15.994914619570
         O           -2.118956352478    -1.143489631726    -0.833059110478    15.994914619570
         N           -1.807197352478     1.625159368274    -0.592423110478    14.003074004430
         N           -1.348914352478    -2.316529631726     0.954198889522    14.003074004430
         C            0.367279647522     0.665139368274    -0.022498110478    12.000000000000
         C            0.141547647522    -0.727449631726    -0.054719110478    12.000000000000
         C            1.689942647522     1.130946368274    -0.039216110478    12.000000000000
         C            1.236978647522    -1.603902631726    -0.141221110478    12.000000000000
         C            2.767887647522     0.256341368274    -0.148975110478    12.000000000000
         C            2.541660647522    -1.119752631726    -0.203700110478    12.000000000000
         C           -0.671129352478     1.753465368274     0.136913889522    12.000000000000
         C           -1.215420352478    -1.369892631726    -0.018096110478    12.000000000000
         H            1.849279647522     2.202250368274     0.040990889522     1.007825032230
         H            1.053190647522    -2.675279631726    -0.175710110478     1.007825032230
         H            3.781747647522     0.647564368274    -0.182209110478     1.007825032230
         H            3.374276647522    -1.813493631726    -0.290765110478     1.007825032230
         H           -2.052676352478     0.743620368274    -1.034543110478     1.007825032230
         H           -2.525269352478     2.320345368274    -0.431357110478     1.007825032230
         H           -0.709025352478    -2.344373631726     1.735426889522     1.007825032230
         H           -2.217350052478    -2.718881631726     1.059893689522     1.007825032230

  Basis Set: AUG-CC-PVTZ
    Blend: AUG-CC-PVTZ
  Basis Set: (AUG-CC-PVTZ AUX)
    Blend: AUG-CC-PVTZ-JKFIT
	 Reference Energy          =    -566.4713320718593650 [Eh]
	 Singles Energy            =      -0.0000000000000000 [Eh]
	 Same-Spin Energy          =      -0.5964862388581479 [Eh]
	 Opposite-Spin Energy      =      -1.7889308846648138 [Eh]
	 Correlation Energy        =      -2.3854171235229615 [Eh]
	 Total Energy              =    -568.8567491953823492 [Eh]

	 ================> DF-SCS-MP2 Energies <==================
	-----------------------------------------------------------
	 SCS Same-Spin Scale       =       0.3333333333333333 [-]
	 SCS Opposite-Spin Scale   =       1.2000000000000000 [-]
	 SCS Same-Spin Energy      =      -0.1988287462860493 [Eh]
	 SCS Opposite-Spin Energy  =      -2.1467170615977764 [Eh]
	 SCS Correlation Energy    =      -2.3455458078838256 [Eh]
	 SCS Total Energy          =    -568.8168778797431742 [Eh]
	-----------------------------------------------------------

  Dipole Moment: [D]
     X:     0.9756      Y:    -4.0009      Z:     1.0039     Total:     4.2387

*** Psi4 exiting successfully. Buy a developer a beer!
