                               Psi4 1.4a3.dev225

  ==> Input File <==

--------------------------------------------------------------------------
#psi4
#
memory 32 gb

molecule  {
0 1
  O       -0.4387840     2.7607480     0.8353900
  O       -2.1331470    -1.1223190    -0.8372800
  N       -1.8213880     1.6463300    -0.5966440
  N       -1.3631050    -2.2953590     0.9499780
  C        0.3530890     0.6863100    -0.0267190
  C        0.1273570    -0.7062790    -0.0589400
  C        1.6757520     1.1521170    -0.0434370
  C        1.2227880    -1.5827320    -0.1454420
  C        2.7536970     0.2775120    -0.1531960
  C        2.5274700    -1.0985820    -0.2079210
  C       -0.6853200     1.7746360     0.1326930
  C       -1.2296110    -1.3487220    -0.0223170
  H        1.8350890     2.2234210     0.0367700
  H        1.0390000    -2.6541090    -0.1799310
  H        3.7675570     0.6687350    -0.1864300
  H        3.3600860    -1.7923230    -0.2949860
  H       -2.0668670     0.7647910    -1.0387640
  H       -2.5394600     2.3415160    -0.4355780
  H       -0.7232160    -2.3232030     1.7312060
  H       -2.2585967    -2.7102462     1.0589657
units angstrom
no_reorient  #important for SAPT in psi4, default
symmetry c1  #important for SAPT in psi4, default
}

set PROPERTIES_ORIGIN ["COM"]
properties('MP2/aug-cc-pvtz', properties = ['dipole'])
--------------------------------------------------------------------------

    Molecular point group: c1
  Charge       = 0
  Multiplicity = 1
  Basis Set: AUG-CC-PVTZ
    Blend: AUG-CC-PVTZ
  Basis Set: (AUG-CC-PVTZ AUX)
    Blend: AUG-CC-PVTZ-JKFIT

    Orbital Energies [Eh]
    ---------------------

    Doubly Occupied:

       1A    -20.547344     2A    -20.515375     3A    -15.607277
       4A    -15.571906     5A    -11.386444     6A    -11.357611
       7A    -11.280572     8A    -11.273324     9A    -11.265645
      10A    -11.262122    11A    -11.258493    12A    -11.255698
      13A     -1.401897    14A     -1.369625    15A     -1.239232
      16A     -1.203672    17A     -1.175221    18A     -1.055661
      19A     -1.046844    20A     -0.909270    21A     -0.869320
      22A     -0.823324    23A     -0.787638    24A     -0.764956
      25A     -0.725798    26A     -0.704605    27A     -0.686584
      28A     -0.659826    29A     -0.649360    30A     -0.632078
      31A     -0.611275    32A     -0.592935    33A     -0.581338
      34A     -0.566543    35A     -0.539011    36A     -0.523179
      37A     -0.517401    38A     -0.456050    39A     -0.441373
      40A     -0.429116    41A     -0.402577    42A     -0.362967
      43A     -0.356383

  @DF-RHF Final Energy:  -566.47221978089090

   => Energetics <=

    Nuclear Repulsion Energy =            669.9217980073103718
    One-Electron Energy =               -2101.4542923367125695
    Two-Electron Energy =                 865.0602745485113019
    Total Energy =                       -566.4722197808908959
  Basis Set: (AUG-CC-PVTZ AUX)
    Blend: AUG-CC-PVTZ-RI
    Molecular point group: c1

    Geometry (in Angstrom), charge = 0, multiplicity = 1:

       Center              X                  Y                   Z               Mass
    ------------   -----------------  -----------------  -----------------  -----------------
         O           -0.424427145294     2.739654373015     0.839590660972    15.994914619570
         O           -2.118790145294    -1.143412626985    -0.833079339028    15.994914619570
         N           -1.807031145294     1.625236373015    -0.592443339028    14.003074004430
         N           -1.348748145294    -2.316452626985     0.954178660972    14.003074004430
         C            0.367445854706     0.665216373015    -0.022518339028    12.000000000000
         C            0.141713854706    -0.727372626985    -0.054739339028    12.000000000000
         C            1.690108854706     1.131023373015    -0.039236339028    12.000000000000
         C            1.237144854706    -1.603825626985    -0.141241339028    12.000000000000
         C            2.768053854706     0.256418373015    -0.148995339028    12.000000000000
         C            2.541826854706    -1.119675626985    -0.203720339028    12.000000000000
         C           -0.670963145294     1.753542373015     0.136893660972    12.000000000000
         C           -1.215254145294    -1.369815626985    -0.018116339028    12.000000000000
         H            1.849445854706     2.202327373015     0.040970660972     1.007825032230
         H            1.053356854706    -2.675202626985    -0.175730339028     1.007825032230
         H            3.781913854706     0.647641373015    -0.182229339028     1.007825032230
         H            3.374442854706    -1.813416626985    -0.290785339028     1.007825032230
         H           -2.052510145294     0.743697373015    -1.034563339028     1.007825032230
         H           -2.525103145294     2.320422373015    -0.431377339028     1.007825032230
         H           -0.708859145294    -2.344296626985     1.735406660972     1.007825032230
         H           -2.244239845294    -2.731339826985     1.063166360972     1.007825032230

  Basis Set: AUG-CC-PVTZ
    Blend: AUG-CC-PVTZ
  Basis Set: (AUG-CC-PVTZ AUX)
    Blend: AUG-CC-PVTZ-JKFIT
	 Reference Energy          =    -566.4722197808908959 [Eh]
	 Singles Energy            =      -0.0000000000000000 [Eh]
	 Same-Spin Energy          =      -0.5966808412073462 [Eh]
	 Opposite-Spin Energy      =      -1.7893847837583472 [Eh]
	 Correlation Energy        =      -2.3860656249656933 [Eh]
	 Total Energy              =    -568.8582854058565772 [Eh]

	 ================> DF-SCS-MP2 Energies <==================
	-----------------------------------------------------------
	 SCS Same-Spin Scale       =       0.3333333333333333 [-]
	 SCS Opposite-Spin Scale   =       1.2000000000000000 [-]
	 SCS Same-Spin Energy      =      -0.1988936137357821 [Eh]
	 SCS Opposite-Spin Energy  =      -2.1472617405100167 [Eh]
	 SCS Correlation Energy    =      -2.3461553542457989 [Eh]
	 SCS Total Energy          =    -568.8183751351366482 [Eh]
	-----------------------------------------------------------

  Dipole Moment: [D]
     X:     0.9481      Y:    -4.0188      Z:     1.0101     Total:     4.2509

*** Psi4 exiting successfully. Buy a developer a beer!
