                               Psi4 1.4a3.dev225

  ==> Input File <==

--------------------------------------------------------------------------
#psi4
#
memory 32 gb

molecule  {
0 1
  O       -0.4387840     2.7607480     0.8353900
  O       -2.1331470    -1.1223190    -0.8372800
  N       -1.8213880     1.6463300    -0.5966440
  N       -1.3631050    -2.2953590     0.9499780
  C        0.3452179     0.7093819    -0.0245264
  C        0.1273570    -0.7062790    -0.0589400
  C        1.6757520     1.1521170    -0.0434370
  C        1.2227880    -1.5827320    -0.1454420
  C        2.7536970     0.2775120    -0.1531960
  C        2.5274700    -1.0985820    -0.2079210
  C       -0.6853200     1.7746360     0.1326930
  C       -1.2296110    -1.3487220    -0.0223170
  H        1.8350890     2.2234210     0.0367700
  H        1.0390000    -2.6541090    -0.1799310
  H        3.7675570     0.6687350    -0.1864300
  H        3.3600860    -1.7923230    -0.2949860
  H       -2.0668670     0.7647910    -1.0387640
  H       -2.5394600     2.3415160    -0.4355780
  H       -0.7232160    -2.3232030     1.7312060
  H       -2.2766340    -2.7186030     1.0611610
units angstrom
no_reorient  #important for SAPT in psi4, default
symmetry c1  #important for SAPT in psi4, default
}

set PROPERTIES_ORIGIN ["COM"]
properties('MP2/aug-cc-pvtz', properties = ['dipole'])
--------------------------------------------------------------------------

    Molecular point group: c1
  Charge       = 0
  Multiplicity = 1
  Basis Set: AUG-CC-PVTZ
    Blend: AUG-CC-PVTZ
  Basis Set: (AUG-CC-PVTZ AUX)
    Blend: AUG-CC-PVTZ-JKFIT

    Orbital Energies [Eh]
    ---------------------

    Doubly Occupied:

       1A    -20.546855     2A    -20.514709     3A    -15.608770
       4A    -15.571743     5A    -11.385934     6A    -11.356171
       7A    -11.283041     8A    -11.274078     9A    -11.266048
      10A    -11.262822    11A    -11.258911    12A    -11.256281
      13A     -1.401243    14A     -1.370029    15A     -1.236611
      16A     -1.203716    17A     -1.173367    18A     -1.054135
      19A     -1.048103    20A     -0.910688    21A     -0.870475
      22A     -0.820040    23A     -0.788001    24A     -0.763479
      25A     -0.724701    26A     -0.702663    27A     -0.687578
      28A     -0.658069    29A     -0.650124    30A     -0.631699
      31A     -0.610757    32A     -0.593774    33A     -0.580232
      34A     -0.567090    35A     -0.540371    36A     -0.521051
      37A     -0.516166    38A     -0.455754    39A     -0.440767
      40A     -0.430226    41A     -0.402342    42A     -0.361396
      43A     -0.356612

  @DF-RHF Final Energy:  -566.47059717345053

   => Energetics <=

    Nuclear Repulsion Energy =            669.6984688774790584
    One-Electron Energy =               -2101.0248833075847870
    Two-Electron Energy =                 864.8558172566550866
    Total Energy =                       -566.4705971734505283
  Basis Set: (AUG-CC-PVTZ AUX)
    Blend: AUG-CC-PVTZ-RI
    Molecular point group: c1

    Geometry (in Angstrom), charge = 0, multiplicity = 1:

       Center              X                  Y                   Z               Mass
    ------------   -----------------  -----------------  -----------------  -----------------
         O           -0.423740612202     2.738018124476     0.839416798205    15.994914619570
         O           -2.118103612202    -1.145048875524    -0.833253201795    15.994914619570
         N           -1.806344612202     1.623600124476    -0.592617201795    14.003074004430
         N           -1.348061612202    -2.318088875524     0.954004798205    14.003074004430
         C            0.360261287798     0.686652024476    -0.020499601795    12.000000000000
         C            0.142400387798    -0.729008875524    -0.054913201795    12.000000000000
         C            1.690795387798     1.129387124476    -0.039410201795    12.000000000000
         C            1.237831387798    -1.605461875524    -0.141415201795    12.000000000000
         C            2.768740387798     0.254782124476    -0.149169201795    12.000000000000
         C            2.542513387798    -1.121311875524    -0.203894201795    12.000000000000
         C           -0.670276612202     1.751906124476     0.136719798205    12.000000000000
         C           -1.214567612202    -1.371451875524    -0.018290201795    12.000000000000
         H            1.850132387798     2.200691124476     0.040796798205     1.007825032230
         H            1.054043387798    -2.676838875524    -0.175904201795     1.007825032230
         H            3.782600387798     0.646005124476    -0.182403201795     1.007825032230
         H            3.375129387798    -1.815052875524    -0.290959201795     1.007825032230
         H           -2.051823612202     0.742061124476    -1.034737201795     1.007825032230
         H           -2.524416612202     2.318786124476    -0.431551201795     1.007825032230
         H           -0.708172612202    -2.345932875524     1.735232798205     1.007825032230
         H           -2.261590612202    -2.741332875524     1.065187798205     1.007825032230

  Basis Set: AUG-CC-PVTZ
    Blend: AUG-CC-PVTZ
  Basis Set: (AUG-CC-PVTZ AUX)
    Blend: AUG-CC-PVTZ-JKFIT
	 Reference Energy          =    -566.4705971734505283 [Eh]
	 Singles Energy            =      -0.0000000000000000 [Eh]
	 Same-Spin Energy          =      -0.5970032274920072 [Eh]
	 Opposite-Spin Energy      =      -1.7900547803794700 [Eh]
	 Correlation Energy        =      -2.3870580078714774 [Eh]
	 Total Energy              =    -568.8576551813220021 [Eh]

	 ================> DF-SCS-MP2 Energies <==================
	-----------------------------------------------------------
	 SCS Same-Spin Scale       =       0.3333333333333333 [-]
	 SCS Opposite-Spin Scale   =       1.2000000000000000 [-]
	 SCS Same-Spin Energy      =      -0.1990010758306691 [Eh]
	 SCS Opposite-Spin Energy  =      -2.1480657364553637 [Eh]
	 SCS Correlation Energy    =      -2.3470668122860325 [Eh]
	 SCS Total Energy          =    -568.8176639857365444 [Eh]
	-----------------------------------------------------------

  Dipole Moment: [D]
     X:     0.9560      Y:    -4.0461      Z:     1.0083     Total:     4.2780

*** Psi4 exiting successfully. Buy a developer a beer!
