                               Psi4 1.4a3.dev225

  ==> Input File <==

--------------------------------------------------------------------------
#psi4
#
memory 32 gb

molecule  {
0 1
  O       -0.5144646     2.7937126     0.8103886
  O       -2.1331470    -1.1223190    -0.8372800
  N       -1.8213880     1.6463300    -0.5966440
  N       -1.3631050    -2.2953590     0.9499780
  C        0.3530890     0.6863100    -0.0267190
  C        0.1273570    -0.7062790    -0.0589400
  C        1.6757520     1.1521170    -0.0434370
  C        1.2227880    -1.5827320    -0.1454420
  C        2.7536970     0.2775120    -0.1531960
  C        2.5274700    -1.0985820    -0.2079210
  C       -0.6853200     1.7746360     0.1326930
  C       -1.2296110    -1.3487220    -0.0223170
  H        1.8350890     2.2234210     0.0367700
  H        1.0390000    -2.6541090    -0.1799310
  H        3.7675570     0.6687350    -0.1864300
  H        3.3600860    -1.7923230    -0.2949860
  H       -2.0668670     0.7647910    -1.0387640
  H       -2.5394600     2.3415160    -0.4355780
  H       -0.7232160    -2.3232030     1.7312060
  H       -2.2766340    -2.7186030     1.0611610
units angstrom
no_reorient  #important for SAPT in psi4, default
symmetry c1  #important for SAPT in psi4, default
}

set PROPERTIES_ORIGIN ["COM"]
properties('MP2/aug-cc-pvtz', properties = ['dipole'])
--------------------------------------------------------------------------

    Molecular point group: c1
  Charge       = 0
  Multiplicity = 1
  Basis Set: AUG-CC-PVTZ
    Blend: AUG-CC-PVTZ
  Basis Set: (AUG-CC-PVTZ AUX)
    Blend: AUG-CC-PVTZ-JKFIT

    Orbital Energies [Eh]
    ---------------------

    Doubly Occupied:

       1A    -20.547328     2A    -20.513179     3A    -15.609494
       4A    -15.566667     5A    -11.386869     6A    -11.356286
       7A    -11.283090     8A    -11.276488     9A    -11.267511
      10A    -11.264249    11A    -11.260479    12A    -11.258324
      13A     -1.401708    14A     -1.369071    15A     -1.237424
      16A     -1.198294    17A     -1.176275    18A     -1.057330
      19A     -1.049281    20A     -0.910155    21A     -0.870410
      22A     -0.823779    23A     -0.787199    24A     -0.763555
      25A     -0.723224    26A     -0.703197    27A     -0.685718
      28A     -0.660779    29A     -0.649004    30A     -0.631659
      31A     -0.612155    32A     -0.593014    33A     -0.581233
      34A     -0.565952    35A     -0.540239    36A     -0.525283
      37A     -0.518909    38A     -0.456159    39A     -0.441069
      40A     -0.427726    41A     -0.397916    42A     -0.364841
      43A     -0.359302

  @DF-RHF Final Energy:  -566.47055107194626

   => Energetics <=

    Nuclear Repulsion Energy =            669.2932938328547152
    One-Electron Energy =               -2100.1840370747336237
    Two-Electron Energy =                 864.4201921699326476
    Total Energy =                       -566.4705510719462609
  Basis Set: (AUG-CC-PVTZ AUX)
    Blend: AUG-CC-PVTZ-RI
    Molecular point group: c1

    Geometry (in Angstrom), charge = 0, multiplicity = 1:

       Center              X                  Y                   Z               Mass
    ------------   -----------------  -----------------  -----------------  -----------------
         O           -0.492618449724     2.769456421089     0.817013290158    15.994914619570
         O           -2.111300849724    -1.146575178911    -0.830655309842    15.994914619570
         N           -1.799541849724     1.622073821089    -0.590019309842    14.003074004430
         N           -1.341258849724    -2.319615178911     0.956602690158    14.003074004430
         C            0.374935150276     0.662053821089    -0.020094309842    12.000000000000
         C            0.149203150276    -0.730535178911    -0.052315309842    12.000000000000
         C            1.697598150276     1.127860821089    -0.036812309842    12.000000000000
         C            1.244634150276    -1.606988178911    -0.138817309842    12.000000000000
         C            2.775543150276     0.253255821089    -0.146571309842    12.000000000000
         C            2.549316150276    -1.122838178911    -0.201296309842    12.000000000000
         C           -0.663473849724     1.750379821089     0.139317690158    12.000000000000
         C           -1.207764849724    -1.372978178911    -0.015692309842    12.000000000000
         H            1.856935150276     2.199164821089     0.043394690158     1.007825032230
         H            1.060846150276    -2.678365178911    -0.173306309842     1.007825032230
         H            3.789403150276     0.644478821089    -0.179805309842     1.007825032230
         H            3.381932150276    -1.816579178911    -0.288361309842     1.007825032230
         H           -2.045020849724     0.740534821089    -1.032139309842     1.007825032230
         H           -2.517613849724     2.317259821089    -0.428953309842     1.007825032230
         H           -0.701369849724    -2.347459178911     1.737830690158     1.007825032230
         H           -2.254787849724    -2.742859178911     1.067785690158     1.007825032230

  Basis Set: AUG-CC-PVTZ
    Blend: AUG-CC-PVTZ
  Basis Set: (AUG-CC-PVTZ AUX)
    Blend: AUG-CC-PVTZ-JKFIT
	 Reference Energy          =    -566.4705510719462609 [Eh]
	 Singles Energy            =      -0.0000000000000000 [Eh]
	 Same-Spin Energy          =      -0.5967625430885886 [Eh]
	 Opposite-Spin Energy      =      -1.7897485993460727 [Eh]
	 Correlation Energy        =      -2.3865111424346610 [Eh]
	 Total Energy              =    -568.8570622143809032 [Eh]

	 ================> DF-SCS-MP2 Energies <==================
	-----------------------------------------------------------
	 SCS Same-Spin Scale       =       0.3333333333333333 [-]
	 SCS Opposite-Spin Scale   =       1.2000000000000000 [-]
	 SCS Same-Spin Energy      =      -0.1989208476961962 [Eh]
	 SCS Opposite-Spin Energy  =      -2.1476983192152872 [Eh]
	 SCS Correlation Energy    =      -2.3466191669114833 [Eh]
	 SCS Total Energy          =    -568.8171702388577842 [Eh]
	-----------------------------------------------------------

  Dipole Moment: [D]
     X:     1.1704      Y:    -4.2004      Z:     1.0504     Total:     4.4852

*** Psi4 exiting successfully. Buy a developer a beer!
