                               Psi4 1.4a3.dev225

  ==> Input File <==

--------------------------------------------------------------------------
#psi4
#
memory 32 gb

molecule  {
0 1
  O       -0.4387840     2.7607480     0.8353900
  O       -2.1331470    -1.1223190    -0.8372800
  N       -1.8213880     1.6463300    -0.5966440
  N       -1.3631050    -2.2953590     0.9499780
  C        0.3530890     0.6863100    -0.0267190
  C        0.1273570    -0.7062790    -0.0589400
  C        1.6757520     1.1521170    -0.0434370
  C        1.2227880    -1.5827320    -0.1454420
  C        2.7536970     0.2775120    -0.1531960
  C        2.5274700    -1.0985820    -0.2079210
  C       -0.6853200     1.7746360     0.1326930
  C       -1.2296110    -1.3487220    -0.0223170
  H        1.8644314     2.4207047     0.0515403
  H        1.0390000    -2.6541090    -0.1799310
  H        3.7675570     0.6687350    -0.1864300
  H        3.3600860    -1.7923230    -0.2949860
  H       -2.0668670     0.7647910    -1.0387640
  H       -2.5394600     2.3415160    -0.4355780
  H       -0.7232160    -2.3232030     1.7312060
  H       -2.2766340    -2.7186030     1.0611610
units angstrom
no_reorient  #important for SAPT in psi4, default
symmetry c1  #important for SAPT in psi4, default
}

set PROPERTIES_ORIGIN ["COM"]
properties('MP2/aug-cc-pvtz', properties = ['dipole'])
--------------------------------------------------------------------------

    Molecular point group: c1
  Charge       = 0
  Multiplicity = 1
  Basis Set: AUG-CC-PVTZ
    Blend: AUG-CC-PVTZ
  Basis Set: (AUG-CC-PVTZ AUX)
    Blend: AUG-CC-PVTZ-JKFIT

    Orbital Energies [Eh]
    ---------------------

    Doubly Occupied:

       1A    -20.547423     2A    -20.514754     3A    -15.609295
       4A    -15.571833     5A    -11.386778     6A    -11.357478
       7A    -11.281500     8A    -11.275219     9A    -11.274042
      10A    -11.265843    11A    -11.262828    12A    -11.259299
      13A     -1.401812    14A     -1.369146    15A     -1.237207
      16A     -1.203553    17A     -1.174851    18A     -1.055855
      19A     -1.042689    20A     -0.908485    21A     -0.865480
      22A     -0.816728    23A     -0.787740    24A     -0.761422
      25A     -0.724280    26A     -0.698488    27A     -0.686583
      28A     -0.659442    29A     -0.645619    30A     -0.628978
      31A     -0.597117    32A     -0.591709    33A     -0.581208
      34A     -0.565198    35A     -0.539634    36A     -0.517903
      37A     -0.501749    38A     -0.456071    39A     -0.441091
      40A     -0.428558    41A     -0.401945    42A     -0.363471
      43A     -0.356715

  @DF-RHF Final Energy:  -566.44884486060710

   => Energetics <=

    Nuclear Repulsion Energy =            668.8615836414943487
    One-Electron Energy =               -2099.3868182696764961
    Two-Electron Energy =                 864.0763897675751650
    Total Energy =                       -566.4488448606070961
  Basis Set: (AUG-CC-PVTZ AUX)
    Blend: AUG-CC-PVTZ-RI
    Molecular point group: c1

    Geometry (in Angstrom), charge = 0, multiplicity = 1:

       Center              X                  Y                   Z               Mass
    ------------   -----------------  -----------------  -----------------  -----------------
         O           -0.424496593433     2.738493779878     0.839486439927    15.994914619570
         O           -2.118859593433    -1.144573220122    -0.833183560073    15.994914619570
         N           -1.807100593433     1.624075779878    -0.592547560073    14.003074004430
         N           -1.348817593433    -2.317613220122     0.954074439927    14.003074004430
         C            0.367376406567     0.664055779878    -0.022622560073    12.000000000000
         C            0.141644406567    -0.728533220122    -0.054843560073    12.000000000000
         C            1.690039406567     1.129862779878    -0.039340560073    12.000000000000
         C            1.237075406567    -1.604986220122    -0.141345560073    12.000000000000
         C            2.767984406567     0.255257779878    -0.149099560073    12.000000000000
         C            2.541757406567    -1.120836220122    -0.203824560073    12.000000000000
         C           -0.671032593433     1.752381779878     0.136789439927    12.000000000000
         C           -1.215323593433    -1.370976220122    -0.018220560073    12.000000000000
         H            1.878718806567     2.398450479878     0.055636739927     1.007825032230
         H            1.053287406567    -2.676363220122    -0.175834560073     1.007825032230
         H            3.781844406567     0.646480779878    -0.182333560073     1.007825032230
         H            3.374373406567    -1.814577220122    -0.290889560073     1.007825032230
         H           -2.052579593433     0.742536779878    -1.034667560073     1.007825032230
         H           -2.525172593433     2.319261779878    -0.431481560073     1.007825032230
         H           -0.708928593433    -2.345457220122     1.735302439927     1.007825032230
         H           -2.262346593433    -2.740857220122     1.065257439927     1.007825032230

  Basis Set: AUG-CC-PVTZ
    Blend: AUG-CC-PVTZ
  Basis Set: (AUG-CC-PVTZ AUX)
    Blend: AUG-CC-PVTZ-JKFIT
	 Reference Energy          =    -566.4488448606070961 [Eh]
	 Singles Energy            =      -0.0000000000000000 [Eh]
	 Same-Spin Energy          =      -0.5976651298401051 [Eh]
	 Opposite-Spin Energy      =      -1.7921967145748252 [Eh]
	 Correlation Energy        =      -2.3898618444149302 [Eh]
	 Total Energy              =    -568.8387067050219912 [Eh]

	 ================> DF-SCS-MP2 Energies <==================
	-----------------------------------------------------------
	 SCS Same-Spin Scale       =       0.3333333333333333 [-]
	 SCS Opposite-Spin Scale   =       1.2000000000000000 [-]
	 SCS Same-Spin Energy      =      -0.1992217099467017 [Eh]
	 SCS Opposite-Spin Energy  =      -2.1506360574897903 [Eh]
	 SCS Correlation Energy    =      -2.3498577674364918 [Eh]
	 SCS Total Energy          =    -568.7987026280435430 [Eh]
	-----------------------------------------------------------

  Dipole Moment: [D]
     X:     0.9024      Y:    -4.0300      Z:     1.0307     Total:     4.2564

*** Psi4 exiting successfully. Buy a developer a beer!
