                               Psi4 1.4a3.dev225

  ==> Input File <==

--------------------------------------------------------------------------
#psi4
#
memory 32 gb

molecule  {
0 1
  O       -0.4387840     2.7607480     0.8353900
  O       -2.1331470    -1.1223190    -0.8372800
  N       -1.8213880     1.6463300    -0.5966440
  N       -1.3631050    -2.2953590     0.9499780
  C        0.3530890     0.6863100    -0.0267190
  C        0.1305563    -0.6865418    -0.0584833
  C        1.6757520     1.1521170    -0.0434370
  C        1.2227880    -1.5827320    -0.1454420
  C        2.7536970     0.2775120    -0.1531960
  C        2.5274700    -1.0985820    -0.2079210
  C       -0.6853200     1.7746360     0.1326930
  C       -1.2296110    -1.3487220    -0.0223170
  H        1.8350890     2.2234210     0.0367700
  H        1.0390000    -2.6541090    -0.1799310
  H        3.7675570     0.6687350    -0.1864300
  H        3.3600860    -1.7923230    -0.2949860
  H       -2.0668670     0.7647910    -1.0387640
  H       -2.5394600     2.3415160    -0.4355780
  H       -0.7232160    -2.3232030     1.7312060
  H       -2.2766340    -2.7186030     1.0611610
units angstrom
no_reorient  #important for SAPT in psi4, default
symmetry c1  #important for SAPT in psi4, default
}

set PROPERTIES_ORIGIN ["COM"]
properties('MP2/aug-cc-pvtz', properties = ['dipole'])
--------------------------------------------------------------------------

    Molecular point group: c1
  Charge       = 0
  Multiplicity = 1
  Basis Set: AUG-CC-PVTZ
    Blend: AUG-CC-PVTZ
  Basis Set: (AUG-CC-PVTZ AUX)
    Blend: AUG-CC-PVTZ-JKFIT

    Orbital Energies [Eh]
    ---------------------

    Doubly Occupied:

       1A    -20.547010     2A    -20.515531     3A    -15.609233
       4A    -15.571994     5A    -11.386857     6A    -11.357654
       7A    -11.280452     8A    -11.271244     9A    -11.265937
      10A    -11.261923    11A    -11.257877    12A    -11.255471
      13A     -1.401234    14A     -1.369773    15A     -1.236559
      16A     -1.203966    17A     -1.175752    18A     -1.056223
      19A     -1.045480    20A     -0.906498    21A     -0.868595
      22A     -0.824654    23A     -0.787258    24A     -0.763779
      25A     -0.723998    26A     -0.702104    27A     -0.685735
      28A     -0.661601    29A     -0.648868    30A     -0.631794
      31A     -0.609621    32A     -0.592710    33A     -0.581394
      34A     -0.566462    35A     -0.538311    36A     -0.524692
      37A     -0.517639    38A     -0.454696    39A     -0.440984
      40A     -0.428943    41A     -0.402658    42A     -0.364283
      43A     -0.355506

  @DF-RHF Final Energy:  -566.47174700142955

   => Energetics <=

    Nuclear Repulsion Energy =            669.9046476875064400
    One-Electron Energy =               -2101.4468844905240985
    Two-Electron Energy =                 865.0704898015881099
    Total Energy =                       -566.4717470014295486
  Basis Set: (AUG-CC-PVTZ AUX)
    Blend: AUG-CC-PVTZ-RI
    Molecular point group: c1

    Geometry (in Angstrom), charge = 0, multiplicity = 1:

       Center              X                  Y                   Z               Mass
    ------------   -----------------  -----------------  -----------------  -----------------
         O           -0.424550352248     2.738262039793     0.839543769926    15.994914619570
         O           -2.118913352248    -1.144804960207    -0.833126230074    15.994914619570
         N           -1.807154352248     1.623844039793    -0.592490230074    14.003074004430
         N           -1.348871352248    -2.317844960207     0.954131769926    14.003074004430
         C            0.367322647752     0.663824039793    -0.022565230074    12.000000000000
         C            0.144789947752    -0.709027760207    -0.054329530074    12.000000000000
         C            1.689985647752     1.129631039793    -0.039283230074    12.000000000000
         C            1.237021647752    -1.605217960207    -0.141288230074    12.000000000000
         C            2.767930647752     0.255026039793    -0.149042230074    12.000000000000
         C            2.541703647752    -1.121067960207    -0.203767230074    12.000000000000
         C           -0.671086352248     1.752150039793     0.136846769926    12.000000000000
         C           -1.215377352248    -1.371207960207    -0.018163230074    12.000000000000
         H            1.849322647752     2.200935039793     0.040923769926     1.007825032230
         H            1.053233647752    -2.676594960207    -0.175777230074     1.007825032230
         H            3.781790647752     0.646249039793    -0.182276230074     1.007825032230
         H            3.374319647752    -1.814808960207    -0.290832230074     1.007825032230
         H           -2.052633352248     0.742305039793    -1.034610230074     1.007825032230
         H           -2.525226352248     2.319030039793    -0.431424230074     1.007825032230
         H           -0.708982352248    -2.345688960207     1.735359769926     1.007825032230
         H           -2.262400352248    -2.741088960207     1.065314769926     1.007825032230

  Basis Set: AUG-CC-PVTZ
    Blend: AUG-CC-PVTZ
  Basis Set: (AUG-CC-PVTZ AUX)
    Blend: AUG-CC-PVTZ-JKFIT
	 Reference Energy          =    -566.4717470014295486 [Eh]
	 Singles Energy            =      -0.0000000000000000 [Eh]
	 Same-Spin Energy          =      -0.5966761291977146 [Eh]
	 Opposite-Spin Energy      =      -1.7895305794807144 [Eh]
	 Correlation Energy        =      -2.3862067086784289 [Eh]
	 Total Energy              =    -568.8579537101079495 [Eh]

	 ================> DF-SCS-MP2 Energies <==================
	-----------------------------------------------------------
	 SCS Same-Spin Scale       =       0.3333333333333333 [-]
	 SCS Opposite-Spin Scale   =       1.2000000000000000 [-]
	 SCS Same-Spin Energy      =      -0.1988920430659049 [Eh]
	 SCS Opposite-Spin Energy  =      -2.1474366953768573 [Eh]
	 SCS Correlation Energy    =      -2.3463287384427622 [Eh]
	 SCS Total Energy          =    -568.8180757398722562 [Eh]
	-----------------------------------------------------------

  Dipole Moment: [D]
     X:     0.9125      Y:    -4.0318      Z:     1.0169     Total:     4.2570

*** Psi4 exiting successfully. Buy a developer a beer!
