                               Psi4 1.4a3.dev225

  ==> Input File <==

--------------------------------------------------------------------------
#psi4
#
memory 32 gb

molecule  {
0 1
  O       -0.4387840     2.7607480     0.8353900
  O       -2.1331470    -1.1223190    -0.8372800
  N       -1.8213880     1.6463300    -0.5966440
  N       -1.3631050    -2.2953590     0.9499780
  C        0.3530890     0.6863100    -0.0267190
  C        0.1273570    -0.7062790    -0.0589400
  C        1.7395779     1.2254146    -0.0436996
  C        1.2227880    -1.5827320    -0.1454420
  C        2.7536970     0.2775120    -0.1531960
  C        2.5274700    -1.0985820    -0.2079210
  C       -0.6853200     1.7746360     0.1326930
  C       -1.2296110    -1.3487220    -0.0223170
  H        1.8350890     2.2234210     0.0367700
  H        1.0390000    -2.6541090    -0.1799310
  H        3.7675570     0.6687350    -0.1864300
  H        3.3600860    -1.7923230    -0.2949860
  H       -2.0668670     0.7647910    -1.0387640
  H       -2.5394600     2.3415160    -0.4355780
  H       -0.7232160    -2.3232030     1.7312060
  H       -2.2766340    -2.7186030     1.0611610
units angstrom
no_reorient  #important for SAPT in psi4, default
symmetry c1  #important for SAPT in psi4, default
}

set PROPERTIES_ORIGIN ["COM"]
properties('MP2/aug-cc-pvtz', properties = ['dipole'])
--------------------------------------------------------------------------

    Molecular point group: c1
  Charge       = 0
  Multiplicity = 1
  Basis Set: AUG-CC-PVTZ
    Blend: AUG-CC-PVTZ
  Basis Set: (AUG-CC-PVTZ AUX)
    Blend: AUG-CC-PVTZ-JKFIT

    Orbital Energies [Eh]
    ---------------------

    Doubly Occupied:

       1A    -20.547478     2A    -20.515502     3A    -15.609377
       4A    -15.571577     5A    -11.386973     6A    -11.357321
       7A    -11.282521     8A    -11.280653     9A    -11.266618
      10A    -11.262885    11A    -11.260072    12A    -11.258640
      13A     -1.401817    14A     -1.369647    15A     -1.237236
      16A     -1.203039    17A     -1.168665    18A     -1.056088
      19A     -1.040643    20A     -0.907845    21A     -0.871952
      22A     -0.825622    23A     -0.783912    24A     -0.765354
      25A     -0.722120    26A     -0.707538    27A     -0.683657
      28A     -0.660819    29A     -0.657930    30A     -0.628536
      31A     -0.618088    32A     -0.590385    33A     -0.580935
      34A     -0.565482    35A     -0.540430    36A     -0.523184
      37A     -0.513048    38A     -0.454930    39A     -0.441332
      40A     -0.428416    41A     -0.402744    42A     -0.366014
      43A     -0.348383

  @DF-RHF Final Energy:  -566.45893894142455

   => Energetics <=

    Nuclear Repulsion Energy =            667.9782550514455579
    One-Electron Energy =               -2097.5435688338666296
    Two-Electron Energy =                 863.1063748409965228
    Total Energy =                       -566.4589389414245488
  Basis Set: (AUG-CC-PVTZ AUX)
    Blend: AUG-CC-PVTZ-RI
    Molecular point group: c1

    Geometry (in Angstrom), charge = 0, multiplicity = 1:

       Center              X                  Y                   Z               Mass
    ------------   -----------------  -----------------  -----------------  -----------------
         O           -0.428984861013     2.734344385442     0.839596382841    15.994914619570
         O           -2.123347861013    -1.148722614558    -0.833073617159    15.994914619570
         N           -1.811588861013     1.619926385442    -0.592437617159    14.003074004430
         N           -1.353305861013    -2.321762614558     0.954184382841    14.003074004430
         C            0.362888138987     0.659906385442    -0.022512617159    12.000000000000
         C            0.137156138987    -0.732682614558    -0.054733617159    12.000000000000
         C            1.749377038987     1.199010985442    -0.039493217159    12.000000000000
         C            1.232587138987    -1.609135614558    -0.141235617159    12.000000000000
         C            2.763496138987     0.251108385442    -0.148989617159    12.000000000000
         C            2.537269138987    -1.124985614558    -0.203714617159    12.000000000000
         C           -0.675520861013     1.748232385442     0.136899382841    12.000000000000
         C           -1.219811861013    -1.375125614558    -0.018110617159    12.000000000000
         H            1.844888138987     2.197017385442     0.040976382841     1.007825032230
         H            1.048799138987    -2.680512614558    -0.175724617159     1.007825032230
         H            3.777356138987     0.642331385442    -0.182223617159     1.007825032230
         H            3.369885138987    -1.818726614558    -0.290779617159     1.007825032230
         H           -2.057067861013     0.738387385442    -1.034557617159     1.007825032230
         H           -2.529660861013     2.315112385442    -0.431371617159     1.007825032230
         H           -0.713416861013    -2.349606614558     1.735412382841     1.007825032230
         H           -2.266834861013    -2.745006614558     1.065367382841     1.007825032230

  Basis Set: AUG-CC-PVTZ
    Blend: AUG-CC-PVTZ
  Basis Set: (AUG-CC-PVTZ AUX)
    Blend: AUG-CC-PVTZ-JKFIT
	 Reference Energy          =    -566.4589389414245488 [Eh]
	 Singles Energy            =      -0.0000000000000000 [Eh]
	 Same-Spin Energy          =      -0.5967947967574336 [Eh]
	 Opposite-Spin Energy      =      -1.7905789932273688 [Eh]
	 Correlation Energy        =      -2.3873737899848022 [Eh]
	 Total Energy              =    -568.8463127314093981 [Eh]

	 ================> DF-SCS-MP2 Energies <==================
	-----------------------------------------------------------
	 SCS Same-Spin Scale       =       0.3333333333333333 [-]
	 SCS Opposite-Spin Scale   =       1.2000000000000000 [-]
	 SCS Same-Spin Energy      =      -0.1989315989191445 [Eh]
	 SCS Opposite-Spin Energy  =      -2.1486947918728423 [Eh]
	 SCS Correlation Energy    =      -2.3476263907919868 [Eh]
	 SCS Total Energy          =    -568.8065653322165645 [Eh]
	-----------------------------------------------------------

  Dipole Moment: [D]
     X:     0.9116      Y:    -4.0416      Z:     1.0153     Total:     4.2657

*** Psi4 exiting successfully. Buy a developer a beer!
