                               Psi4 1.4a3.dev225

  ==> Input File <==

--------------------------------------------------------------------------
#psi4
#
memory 32 gb

molecule  {
0 1
  O       -0.4387840     2.7607480     0.8353900
  O       -2.1331470    -1.1223190    -0.8372800
  N       -1.8213880     1.6463300    -0.5966440
  N       -1.3631050    -2.2953590     0.9499780
  C        0.3530890     0.6863100    -0.0267190
  C        0.1273570    -0.7062790    -0.0589400
  C        1.6757520     1.1521170    -0.0434370
  C        1.2227880    -1.5827320    -0.1454420
  C        2.8961222     0.2467607    -0.1636847
  C        2.5274700    -1.0985820    -0.2079210
  C       -0.6853200     1.7746360     0.1326930
  C       -1.2296110    -1.3487220    -0.0223170
  H        1.8350890     2.2234210     0.0367700
  H        1.0390000    -2.6541090    -0.1799310
  H        3.7675570     0.6687350    -0.1864300
  H        3.3600860    -1.7923230    -0.2949860
  H       -2.0668670     0.7647910    -1.0387640
  H       -2.5394600     2.3415160    -0.4355780
  H       -0.7232160    -2.3232030     1.7312060
  H       -2.2766340    -2.7186030     1.0611610
units angstrom
no_reorient  #important for SAPT in psi4, default
symmetry c1  #important for SAPT in psi4, default
}

set PROPERTIES_ORIGIN ["COM"]
properties('MP2/aug-cc-pvtz', properties = ['dipole'])
--------------------------------------------------------------------------

    Molecular point group: c1
  Charge       = 0
  Multiplicity = 1
  Basis Set: AUG-CC-PVTZ
    Blend: AUG-CC-PVTZ
  Basis Set: (AUG-CC-PVTZ AUX)
    Blend: AUG-CC-PVTZ-JKFIT

    Orbital Energies [Eh]
    ---------------------

    Doubly Occupied:

       1A    -20.547649     2A    -20.514028     3A    -15.609500
       4A    -15.571387     5A    -11.386927     6A    -11.357166
       7A    -11.283159     8A    -11.271878     9A    -11.270384
      10A    -11.266811    11A    -11.264806    12A    -11.263590
      13A     -1.402047    14A     -1.368521    15A     -1.237246
      16A     -1.202863    17A     -1.166632    18A     -1.056555
      19A     -1.038055    20A     -0.910793    21A     -0.866886
      22A     -0.822967    23A     -0.793614    24A     -0.762946
      25A     -0.731421    26A     -0.700962    27A     -0.692520
      28A     -0.664181    29A     -0.648378    30A     -0.632310
      31A     -0.607244    32A     -0.592691    33A     -0.582060
      34A     -0.570188    35A     -0.550325    36A     -0.511661
      37A     -0.503363    38A     -0.456324    39A     -0.441237
      40A     -0.428323    41A     -0.401873    42A     -0.365097
      43A     -0.346381

  @DF-RHF Final Energy:  -566.44262937147391

   => Energetics <=

    Nuclear Repulsion Energy =            667.1045042304556318
    One-Electron Energy =               -2095.7683639353003855
    Two-Electron Energy =                 862.2212303333708405
    Total Energy =                       -566.4426293714739131
  Basis Set: (AUG-CC-PVTZ AUX)
    Blend: AUG-CC-PVTZ-RI
    Molecular point group: c1

    Geometry (in Angstrom), charge = 0, multiplicity = 1:

       Center              X                  Y                   Z               Mass
    ------------   -----------------  -----------------  -----------------  -----------------
         O           -0.434733975838     2.741955001230     0.840344366896    15.994914619570
         O           -2.129096975838    -1.141111998770    -0.832325633104    15.994914619570
         N           -1.817337975838     1.627537001230    -0.591689633104    14.003074004430
         N           -1.359054975838    -2.314151998770     0.954932366896    14.003074004430
         C            0.357139024162     0.667517001230    -0.021764633104    12.000000000000
         C            0.131407024162    -0.725071998770    -0.053985633104    12.000000000000
         C            1.679802024162     1.133324001230    -0.038482633104    12.000000000000
         C            1.226838024162    -1.601524998770    -0.140487633104    12.000000000000
         C            2.900172224162     0.227967701230    -0.158730333104    12.000000000000
         C            2.531520024162    -1.117374998770    -0.202966633104    12.000000000000
         C           -0.681269975838     1.755843001230     0.137647366896    12.000000000000
         C           -1.225560975838    -1.367514998770    -0.017362633104    12.000000000000
         H            1.839139024162     2.204628001230     0.041724366896     1.007825032230
         H            1.043050024162    -2.672901998770    -0.174976633104     1.007825032230
         H            3.771607024162     0.649942001230    -0.181475633104     1.007825032230
         H            3.364136024162    -1.811115998770    -0.290031633104     1.007825032230
         H           -2.062816975838     0.745998001230    -1.033809633104     1.007825032230
         H           -2.535409975838     2.322723001230    -0.430623633104     1.007825032230
         H           -0.719165975838    -2.341995998770     1.736160366896     1.007825032230
         H           -2.272583975838    -2.737395998770     1.066115366896     1.007825032230

  Basis Set: AUG-CC-PVTZ
    Blend: AUG-CC-PVTZ
  Basis Set: (AUG-CC-PVTZ AUX)
    Blend: AUG-CC-PVTZ-JKFIT
	 Reference Energy          =    -566.4426293714739131 [Eh]
	 Singles Energy            =      -0.0000000000000000 [Eh]
	 Same-Spin Energy          =      -0.5969184369911227 [Eh]
	 Opposite-Spin Energy      =      -1.7918445260846283 [Eh]
	 Correlation Energy        =      -2.3887629630757510 [Eh]
	 Total Energy              =    -568.8313923345497187 [Eh]

	 ================> DF-SCS-MP2 Energies <==================
	-----------------------------------------------------------
	 SCS Same-Spin Scale       =       0.3333333333333333 [-]
	 SCS Opposite-Spin Scale   =       1.2000000000000000 [-]
	 SCS Same-Spin Energy      =      -0.1989728123303742 [Eh]
	 SCS Opposite-Spin Energy  =      -2.1502134313015540 [Eh]
	 SCS Correlation Energy    =      -2.3491862436319280 [Eh]
	 SCS Total Energy          =    -568.7918156151058611 [Eh]
	-----------------------------------------------------------

  Dipole Moment: [D]
     X:     0.9493      Y:    -3.9900      Z:     1.0224     Total:     4.2269

*** Psi4 exiting successfully. Buy a developer a beer!
