                               Psi4 1.4a3.dev225

  ==> Input File <==

--------------------------------------------------------------------------
#psi4
#
memory 32 gb

molecule  {
0 1
  O       -0.4387840     2.7607480     0.8353900
  O       -2.1331470    -1.1223190    -0.8372800
  N       -1.8213880     1.6463300    -0.5966440
  N       -1.3631050    -2.2953590     0.9499780
  C        0.3613630     0.6633800    -0.0289167
  C        0.1273570    -0.7062790    -0.0589400
  C        1.6757520     1.1521170    -0.0434370
  C        1.2227880    -1.5827320    -0.1454420
  C        2.7536970     0.2775120    -0.1531960
  C        2.5274700    -1.0985820    -0.2079210
  C       -0.6853200     1.7746360     0.1326930
  C       -1.2296110    -1.3487220    -0.0223170
  H        1.8350890     2.2234210     0.0367700
  H        1.0390000    -2.6541090    -0.1799310
  H        3.7675570     0.6687350    -0.1864300
  H        3.3600860    -1.7923230    -0.2949860
  H       -2.0668670     0.7647910    -1.0387640
  H       -2.5394600     2.3415160    -0.4355780
  H       -0.7232160    -2.3232030     1.7312060
  H       -2.2766340    -2.7186030     1.0611610
units angstrom
no_reorient  #important for SAPT in psi4, default
symmetry c1  #important for SAPT in psi4, default
}

set PROPERTIES_ORIGIN ["COM"]
properties('MP2/aug-cc-pvtz', properties = ['dipole'])
--------------------------------------------------------------------------

    Molecular point group: c1
  Charge       = 0
  Multiplicity = 1
  Basis Set: AUG-CC-PVTZ
    Blend: AUG-CC-PVTZ
  Basis Set: (AUG-CC-PVTZ AUX)
    Blend: AUG-CC-PVTZ-JKFIT

    Orbital Energies [Eh]
    ---------------------

    Doubly Occupied:

       1A    -20.547339     2A    -20.515907     3A    -15.609218
       4A    -15.571905     5A    -11.386660     6A    -11.358785
       7A    -11.278017     8A    -11.272396     9A    -11.265130
      10A    -11.261320    11A    -11.257988    12A    -11.255075
      13A     -1.401733    14A     -1.369134    15A     -1.237186
      16A     -1.203485    17A     -1.176700    18A     -1.056773
      19A     -1.045269    20A     -0.906272    21A     -0.867763
      22A     -0.824660    23A     -0.786970    24A     -0.764345
      25A     -0.723564    26A     -0.702766    27A     -0.685420
      28A     -0.661113    29A     -0.648091    30A     -0.631851
      31A     -0.611212    32A     -0.591823    33A     -0.581821
      34A     -0.565841    35A     -0.537774    36A     -0.524567
      37A     -0.518469    38A     -0.456009    39A     -0.441155
      40A     -0.427518    41A     -0.402649    42A     -0.364784
      43A     -0.355687

  @DF-RHF Final Energy:  -566.47162778612528

   => Energetics <=

    Nuclear Repulsion Energy =            669.9132787655257744
    One-Electron Energy =               -2101.4655266055588072
    Two-Electron Energy =                 865.0806200539077508
    Total Energy =                       -566.4716277861252820
  Basis Set: (AUG-CC-PVTZ AUX)
    Blend: AUG-CC-PVTZ-RI
    Molecular point group: c1

    Geometry (in Angstrom), charge = 0, multiplicity = 1:

       Center              X                  Y                   Z               Mass
    ------------   -----------------  -----------------  -----------------  -----------------
         O           -0.424921539180     2.741382915323     0.839737924968    15.994914619570
         O           -2.119284539180    -1.141684084677    -0.832932075032    15.994914619570
         N           -1.807525539180     1.626964915323    -0.592296075032    14.003074004430
         N           -1.349242539180    -2.314724084677     0.954325924968    14.003074004430
         C            0.375225460820     0.644014915323    -0.024568775032    12.000000000000
         C            0.141219460820    -0.725644084677    -0.054592075032    12.000000000000
         C            1.689614460820     1.132751915323    -0.039089075032    12.000000000000
         C            1.236650460820    -1.602097084677    -0.141094075032    12.000000000000
         C            2.767559460820     0.258146915323    -0.148848075032    12.000000000000
         C            2.541332460820    -1.117947084677    -0.203573075032    12.000000000000
         C           -0.671457539180     1.755270915323     0.137040924968    12.000000000000
         C           -1.215748539180    -1.368087084677    -0.017969075032    12.000000000000
         H            1.848951460820     2.204055915323     0.041117924968     1.007825032230
         H            1.052862460820    -2.673474084677    -0.175583075032     1.007825032230
         H            3.781419460820     0.649369915323    -0.182082075032     1.007825032230
         H            3.373948460820    -1.811688084677    -0.290638075032     1.007825032230
         H           -2.053004539180     0.745425915323    -1.034416075032     1.007825032230
         H           -2.525597539180     2.322150915323    -0.431230075032     1.007825032230
         H           -0.709353539180    -2.342568084677     1.735553924968     1.007825032230
         H           -2.262771539180    -2.737968084677     1.065508924968     1.007825032230

  Basis Set: AUG-CC-PVTZ
    Blend: AUG-CC-PVTZ
  Basis Set: (AUG-CC-PVTZ AUX)
    Blend: AUG-CC-PVTZ-JKFIT
	 Reference Energy          =    -566.4716277861252820 [Eh]
	 Singles Energy            =      -0.0000000000000000 [Eh]
	 Same-Spin Energy          =      -0.5966690701901058 [Eh]
	 Opposite-Spin Energy      =      -1.7894650274775401 [Eh]
	 Correlation Energy        =      -2.3861340976676457 [Eh]
	 Total Energy              =    -568.8577618837929322 [Eh]

	 ================> DF-SCS-MP2 Energies <==================
	-----------------------------------------------------------
	 SCS Same-Spin Scale       =       0.3333333333333333 [-]
	 SCS Opposite-Spin Scale   =       1.2000000000000000 [-]
	 SCS Same-Spin Energy      =      -0.1988896900633686 [Eh]
	 SCS Opposite-Spin Energy  =      -2.1473580329730479 [Eh]
	 SCS Correlation Energy    =      -2.3462477230364165 [Eh]
	 SCS Total Energy          =    -568.8178755091616949 [Eh]
	-----------------------------------------------------------

  Dipole Moment: [D]
     X:     0.9035      Y:    -4.0143      Z:     1.0205     Total:     4.2393

*** Psi4 exiting successfully. Buy a developer a beer!
