                               Psi4 1.4a3.dev225

  ==> Input File <==

--------------------------------------------------------------------------
#psi4
#
memory 32 gb

molecule  {
0 1
  O       -0.4387840     2.7607480     0.8353900
  O       -2.1331470    -1.1223190    -0.8372800
  N       -1.8213880     1.6463300    -0.5966440
  N       -1.3631050    -2.2953590     0.9499780
  C        0.3530890     0.6863100    -0.0267190
  C        0.1273570    -0.7062790    -0.0589400
  C        1.6757520     1.1521170    -0.0434370
  C        1.2227880    -1.5827320    -0.1454420
  C        2.7536970     0.2775120    -0.1531960
  C        2.5274700    -1.0985820    -0.2079210
  C       -0.6853200     1.7746360     0.1326930
  C       -1.2296110    -1.3487220    -0.0223170
  H        1.8350890     2.2234210     0.0367700
  H        1.0390000    -2.6541090    -0.1799310
  H        3.7675570     0.6687350    -0.1864300
  H        3.4366662    -1.8561301    -0.3029938
  H       -2.0668670     0.7647910    -1.0387640
  H       -2.5394600     2.3415160    -0.4355780
  H       -0.7232160    -2.3232030     1.7312060
  H       -2.2766340    -2.7186030     1.0611610
units angstrom
no_reorient  #important for SAPT in psi4, default
symmetry c1  #important for SAPT in psi4, default
}

set PROPERTIES_ORIGIN ["COM"]
properties('MP2/aug-cc-pvtz', properties = ['dipole'])
--------------------------------------------------------------------------

    Molecular point group: c1
  Charge       = 0
  Multiplicity = 1
  Basis Set: AUG-CC-PVTZ
    Blend: AUG-CC-PVTZ
  Basis Set: (AUG-CC-PVTZ AUX)
    Blend: AUG-CC-PVTZ-JKFIT

    Orbital Energies [Eh]
    ---------------------

    Doubly Occupied:

       1A    -20.547421     2A    -20.515586     3A    -15.609248
       4A    -15.572081     5A    -11.386682     6A    -11.357835
       7A    -11.281223     8A    -11.273649     9A    -11.273194
      10A    -11.266329    11A    -11.259463    12A    -11.256364
      13A     -1.401801    14A     -1.369834    15A     -1.237172
      16A     -1.203862    17A     -1.175123    18A     -1.054614
      19A     -1.045912    20A     -0.907730    21A     -0.866656
      22A     -0.822601    23A     -0.786168    24A     -0.761918
      25A     -0.724161    26A     -0.699414    27A     -0.686587
      28A     -0.658367    29A     -0.643747    30A     -0.632159
      31A     -0.611352    32A     -0.590319    33A     -0.580035
      34A     -0.565686    35A     -0.536215    36A     -0.520127
      37A     -0.517387    38A     -0.455918    39A     -0.441242
      40A     -0.429267    41A     -0.402746    42A     -0.363449
      43A     -0.356833

  @DF-RHF Final Energy:  -566.46441519951532

   => Energetics <=

    Nuclear Repulsion Energy =            669.2945600757888087
    One-Electron Energy =               -2100.2229934148008397
    Two-Electron Energy =                 864.4640181394966021
    Total Energy =                       -566.4644151995153152
  Basis Set: (AUG-CC-PVTZ AUX)
    Blend: AUG-CC-PVTZ-RI
    Molecular point group: c1

    Geometry (in Angstrom), charge = 0, multiplicity = 1:

       Center              X                  Y                   Z               Mass
    ------------   -----------------  -----------------  -----------------  -----------------
         O           -0.424786779036     2.740097681655     0.839626367627    15.994914619570
         O           -2.119149779036    -1.142969318345    -0.833043632373    15.994914619570
         N           -1.807390779036     1.625679681655    -0.592407632373    14.003074004430
         N           -1.349107779036    -2.316009318345     0.954214367627    14.003074004430
         C            0.367086220964     0.665659681655    -0.022482632373    12.000000000000
         C            0.141354220964    -0.726929318345    -0.054703632373    12.000000000000
         C            1.689749220964     1.131466681655    -0.039200632373    12.000000000000
         C            1.236785220964    -1.603382318345    -0.141205632373    12.000000000000
         C            2.767694220964     0.256861681655    -0.148959632373    12.000000000000
         C            2.541467220964    -1.119232318345    -0.203684632373    12.000000000000
         C           -0.671322779036     1.753985681655     0.136929367627    12.000000000000
         C           -1.215613779036    -1.369372318345    -0.018080632373    12.000000000000
         H            1.849086220964     2.202770681655     0.041006367627     1.007825032230
         H            1.052997220964    -2.674759318345    -0.175694632373     1.007825032230
         H            3.781554220964     0.648084681655    -0.182193632373     1.007825032230
         H            3.450663420964    -1.876780418345    -0.298757432373     1.007825032230
         H           -2.052869779036     0.744140681655    -1.034527632373     1.007825032230
         H           -2.525462779036     2.320865681655    -0.431341632373     1.007825032230
         H           -0.709218779036    -2.343853318345     1.735442367627     1.007825032230
         H           -2.262636779036    -2.739253318345     1.065397367627     1.007825032230

  Basis Set: AUG-CC-PVTZ
    Blend: AUG-CC-PVTZ
  Basis Set: (AUG-CC-PVTZ AUX)
    Blend: AUG-CC-PVTZ-JKFIT
	 Reference Energy          =    -566.4644151995153152 [Eh]
	 Singles Energy            =      -0.0000000000000000 [Eh]
	 Same-Spin Energy          =      -0.5970412694736826 [Eh]
	 Opposite-Spin Energy      =      -1.7906624671135625 [Eh]
	 Correlation Energy        =      -2.3877037365872451 [Eh]
	 Total Energy              =    -568.8521189361025563 [Eh]

	 ================> DF-SCS-MP2 Energies <==================
	-----------------------------------------------------------
	 SCS Same-Spin Scale       =       0.3333333333333333 [-]
	 SCS Opposite-Spin Scale   =       1.2000000000000000 [-]
	 SCS Same-Spin Energy      =      -0.1990137564912275 [Eh]
	 SCS Opposite-Spin Energy  =      -2.1487949605362751 [Eh]
	 SCS Correlation Energy    =      -2.3478087170275024 [Eh]
	 SCS Total Energy          =    -568.8122239165428482 [Eh]
	-----------------------------------------------------------

  Dipole Moment: [D]
     X:     0.8945      Y:    -4.0081      Z:     1.0175     Total:     4.2309

*** Psi4 exiting successfully. Buy a developer a beer!
