                               Psi4 1.4a3.dev225

  ==> Input File <==

--------------------------------------------------------------------------
#psi4
#
memory 32 gb

molecule  {
0 1
  O       -0.4387840     2.7607480     0.8353900
  O       -2.1331470    -1.1223190    -0.8372800
  N       -1.8213880     1.6463300    -0.5966440
  N       -1.3631050    -2.2953590     0.9499780
  C        0.3530890     0.6863100    -0.0267190
  C        0.1273570    -0.7062790    -0.0589400
  C        1.6757520     1.1521170    -0.0434370
  C        1.2227880    -1.5827320    -0.1454420
  C        2.7536970     0.2775120    -0.1531960
  C        2.5274700    -1.0985820    -0.2079210
  C       -0.6853200     1.7746360     0.1326930
  C       -1.2296110    -1.3487220    -0.0223170
  H        1.8350890     2.2234210     0.0367700
  H        1.0390000    -2.6541090    -0.1799310
  H        3.7675570     0.6687350    -0.1864300
  H        3.3600860    -1.7923230    -0.2949860
  H       -2.0620361     0.7821392    -1.0300633
  H       -2.5394600     2.3415160    -0.4355780
  H       -0.7232160    -2.3232030     1.7312060
  H       -2.2766340    -2.7186030     1.0611610
units angstrom
no_reorient  #important for SAPT in psi4, default
symmetry c1  #important for SAPT in psi4, default
}

set PROPERTIES_ORIGIN ["COM"]
properties('MP2/aug-cc-pvtz', properties = ['dipole'])
--------------------------------------------------------------------------

    Molecular point group: c1
  Charge       = 0
  Multiplicity = 1
  Basis Set: AUG-CC-PVTZ
    Blend: AUG-CC-PVTZ
  Basis Set: (AUG-CC-PVTZ AUX)
    Blend: AUG-CC-PVTZ-JKFIT

    Orbital Energies [Eh]
    ---------------------

    Doubly Occupied:

       1A    -20.546457     2A    -20.515809     3A    -15.608602
       4A    -15.571018     5A    -11.385759     6A    -11.358028
       7A    -11.280532     8A    -11.273345     9A    -11.265517
      10A    -11.262090    11A    -11.258445    12A    -11.255741
      13A     -1.400781    14A     -1.370133    15A     -1.236480
      16A     -1.206494    17A     -1.175211    18A     -1.055387
      19A     -1.046773    20A     -0.908397    21A     -0.869362
      22A     -0.822464    23A     -0.788373    24A     -0.764972
      25A     -0.726640    26A     -0.703022    27A     -0.687012
      28A     -0.659627    29A     -0.649094    30A     -0.631703
      31A     -0.610806    32A     -0.593684    33A     -0.581121
      34A     -0.566787    35A     -0.538951    36A     -0.523204
      37A     -0.517401    38A     -0.455558    39A     -0.440545
      40A     -0.429467    41A     -0.403419    42A     -0.362862
      43A     -0.356396

  @DF-RHF Final Energy:  -566.47229915492278

   => Energetics <=

    Nuclear Repulsion Energy =            669.8750110288108317
    One-Electron Energy =               -2101.3676811549607919
    Two-Electron Energy =                 865.0203709712271802
    Total Energy =                       -566.4722991549227800
  Basis Set: (AUG-CC-PVTZ AUX)
    Blend: AUG-CC-PVTZ-RI
    Molecular point group: c1

    Geometry (in Angstrom), charge = 0, multiplicity = 1:

       Center              X                  Y                   Z               Mass
    ------------   -----------------  -----------------  -----------------  -----------------
         O           -0.424346017317     2.739599138122     0.839523725968    15.994914619570
         O           -2.118709017317    -1.143467861878    -0.833146274032    15.994914619570
         N           -1.806950017317     1.625181138122    -0.592510274032    14.003074004430
         N           -1.348667017317    -2.316507861878     0.954111725968    14.003074004430
         C            0.367526982683     0.665161138122    -0.022585274032    12.000000000000
         C            0.141794982683    -0.727427861878    -0.054806274032    12.000000000000
         C            1.690189982683     1.130968138122    -0.039303274032    12.000000000000
         C            1.237225982683    -1.603880861878    -0.141308274032    12.000000000000
         C            2.768134982683     0.256363138122    -0.149062274032    12.000000000000
         C            2.541907982683    -1.119730861878    -0.203787274032    12.000000000000
         C           -0.670882017317     1.753487138122     0.136826725968    12.000000000000
         C           -1.215173017317    -1.369870861878    -0.018183274032    12.000000000000
         H            1.849526982683     2.202272138122     0.040903725968     1.007825032230
         H            1.053437982683    -2.675257861878    -0.175797274032     1.007825032230
         H            3.781994982683     0.647586138122    -0.182296274032     1.007825032230
         H            3.374523982683    -1.813471861878    -0.290852274032     1.007825032230
         H           -2.047598117317     0.760990338122    -1.025929574032     1.007825032230
         H           -2.525022017317     2.320367138122    -0.431444274032     1.007825032230
         H           -0.708778017317    -2.344351861878     1.735339725968     1.007825032230
         H           -2.262196017317    -2.739751861878     1.065294725968     1.007825032230

  Basis Set: AUG-CC-PVTZ
    Blend: AUG-CC-PVTZ
  Basis Set: (AUG-CC-PVTZ AUX)
    Blend: AUG-CC-PVTZ-JKFIT
	 Reference Energy          =    -566.4722991549227800 [Eh]
	 Singles Energy            =      -0.0000000000000000 [Eh]
	 Same-Spin Energy          =      -0.5966029990477487 [Eh]
	 Opposite-Spin Energy      =      -1.7893643997052491 [Eh]
	 Correlation Energy        =      -2.3859673987529977 [Eh]
	 Total Energy              =    -568.8582665536757759 [Eh]

	 ================> DF-SCS-MP2 Energies <==================
	-----------------------------------------------------------
	 SCS Same-Spin Scale       =       0.3333333333333333 [-]
	 SCS Opposite-Spin Scale   =       1.2000000000000000 [-]
	 SCS Same-Spin Energy      =      -0.1988676663492496 [Eh]
	 SCS Opposite-Spin Energy  =      -2.1472372796462986 [Eh]
	 SCS Correlation Energy    =      -2.3461049459955481 [Eh]
	 SCS Total Energy          =    -568.8184041009183147 [Eh]
	-----------------------------------------------------------

  Dipole Moment: [D]
     X:     0.9371      Y:    -3.9856      Z:     1.0217     Total:     4.2199

*** Psi4 exiting successfully. Buy a developer a beer!
