                               Psi4 1.4a3.dev225

  ==> Input File <==

--------------------------------------------------------------------------
#psi4
#
memory 32 gb

molecule  {
0 1
  O       -0.4387840     2.7607480     0.8353900
  O       -2.1331470    -1.1223190    -0.8372800
  N       -1.8213880     1.6463300    -0.5966440
  N       -1.3631050    -2.2953590     0.9499780
  C        0.3530890     0.6863100    -0.0267190
  C        0.1273570    -0.7062790    -0.0589400
  C        1.6757520     1.1521170    -0.0434370
  C        1.2227880    -1.5827320    -0.1454420
  C        2.8490196     0.2586689    -0.1601288
  C        2.5274700    -1.0985820    -0.2079210
  C       -0.6853200     1.7746360     0.1326930
  C       -1.2296110    -1.3487220    -0.0223170
  H        1.8350890     2.2234210     0.0367700
  H        1.0390000    -2.6541090    -0.1799310
  H        3.7675570     0.6687350    -0.1864300
  H        3.3600860    -1.7923230    -0.2949860
  H       -2.0668670     0.7647910    -1.0387640
  H       -2.5394600     2.3415160    -0.4355780
  H       -0.7232160    -2.3232030     1.7312060
  H       -2.2766340    -2.7186030     1.0611610
units angstrom
no_reorient  #important for SAPT in psi4, default
symmetry c1  #important for SAPT in psi4, default
}

set PROPERTIES_ORIGIN ["COM"]
properties('MP2/aug-cc-pvtz', properties = ['dipole'])
--------------------------------------------------------------------------

    Molecular point group: c1
  Charge       = 0
  Multiplicity = 1
  Basis Set: AUG-CC-PVTZ
    Blend: AUG-CC-PVTZ
  Basis Set: (AUG-CC-PVTZ AUX)
    Blend: AUG-CC-PVTZ-JKFIT

    Orbital Energies [Eh]
    ---------------------

    Doubly Occupied:

       1A    -20.547402     2A    -20.514418     3A    -15.609274
       4A    -15.571507     5A    -11.386644     6A    -11.357271
       7A    -11.282187     8A    -11.272150     9A    -11.266284
      10A    -11.266073    11A    -11.263453    12A    -11.261777
      13A     -1.401800    14A     -1.368831    15A     -1.237063
      16A     -1.203047    17A     -1.168937    18A     -1.055819
      19A     -1.040643    20A     -0.908930    21A     -0.868065
      22A     -0.822625    23A     -0.790790    24A     -0.763113
      25A     -0.728487    26A     -0.701399    27A     -0.690444
      28A     -0.662135    29A     -0.648758    30A     -0.632361
      31A     -0.608394    32A     -0.592698    33A     -0.580861
      34A     -0.569210    35A     -0.547566    36A     -0.514131
      37A     -0.511296    38A     -0.456242    39A     -0.441105
      40A     -0.428594    41A     -0.402053    42A     -0.363541
      43A     -0.349989

  @DF-RHF Final Energy:  -566.45849259980957

   => Energetics <=

    Nuclear Repulsion Energy =            667.9643926988098883
    One-Electron Energy =               -2097.5310346512032993
    Two-Electron Energy =                 863.1081493525838368
    Total Energy =                       -566.4584925998095741
  Basis Set: (AUG-CC-PVTZ AUX)
    Blend: AUG-CC-PVTZ-RI
    Molecular point group: c1

    Geometry (in Angstrom), charge = 0, multiplicity = 1:

       Center              X                  Y                   Z               Mass
    ------------   -----------------  -----------------  -----------------  -----------------
         O           -0.431288674723     2.741083980633     0.840084271992    15.994914619570
         O           -2.125651674723    -1.141983019367    -0.832585728008    15.994914619570
         N           -1.813892674723     1.626665980633    -0.591949728008    14.003074004430
         N           -1.355609674723    -2.315023019367     0.954672271992    14.003074004430
         C            0.360584325277     0.666645980633    -0.022024728008    12.000000000000
         C            0.134852325277    -0.725943019367    -0.054245728008    12.000000000000
         C            1.683247325277     1.132452980633    -0.038742728008    12.000000000000
         C            1.230283325277    -1.602396019367    -0.140747728008    12.000000000000
         C            2.856514925277     0.239004880633    -0.155434528008    12.000000000000
         C            2.534965325277    -1.118246019367    -0.203226728008    12.000000000000
         C           -0.677824674723     1.754971980633     0.137387271992    12.000000000000
         C           -1.222115674723    -1.368386019367    -0.017622728008    12.000000000000
         H            1.842584325277     2.203756980633     0.041464271992     1.007825032230
         H            1.046495325277    -2.673773019367    -0.175236728008     1.007825032230
         H            3.775052325277     0.649070980633    -0.181735728008     1.007825032230
         H            3.367581325277    -1.811987019367    -0.290291728008     1.007825032230
         H           -2.059371674723     0.745126980633    -1.034069728008     1.007825032230
         H           -2.531964674723     2.321851980633    -0.430883728008     1.007825032230
         H           -0.715720674723    -2.342867019367     1.735900271992     1.007825032230
         H           -2.269138674723    -2.738267019367     1.065855271992     1.007825032230

  Basis Set: AUG-CC-PVTZ
    Blend: AUG-CC-PVTZ
  Basis Set: (AUG-CC-PVTZ AUX)
    Blend: AUG-CC-PVTZ-JKFIT
	 Reference Energy          =    -566.4584925998095741 [Eh]
	 Singles Energy            =      -0.0000000000000000 [Eh]
	 Same-Spin Energy          =      -0.5968200102389010 [Eh]
	 Opposite-Spin Energy      =      -1.7907900211365158 [Eh]
	 Correlation Energy        =      -2.3876100313754165 [Eh]
	 Total Energy              =    -568.8461026311849764 [Eh]

	 ================> DF-SCS-MP2 Energies <==================
	-----------------------------------------------------------
	 SCS Same-Spin Scale       =       0.3333333333333333 [-]
	 SCS Opposite-Spin Scale   =       1.2000000000000000 [-]
	 SCS Same-Spin Energy      =      -0.1989400034129670 [Eh]
	 SCS Opposite-Spin Energy  =      -2.1489480253638189 [Eh]
	 SCS Correlation Energy    =      -2.3478880287767860 [Eh]
	 SCS Total Energy          =    -568.8063806285863393 [Eh]
	-----------------------------------------------------------

  Dipole Moment: [D]
     X:     0.9524      Y:    -3.9985      Z:     1.0194     Total:     4.2348

*** Psi4 exiting successfully. Buy a developer a beer!
