                               Psi4 1.4a3.dev225

  ==> Input File <==

--------------------------------------------------------------------------
#psi4
#
memory 32 gb

molecule  {
0 1
  O       -0.4387840     2.7607480     0.8353900
  O       -2.1331470    -1.1223190    -0.8372800
  N       -1.8213880     1.6463300    -0.5966440
  N       -1.3631050    -2.2953590     0.9499780
  C        0.3530890     0.6863100    -0.0267190
  C        0.1273570    -0.7062790    -0.0589400
  C        1.7734487     1.2602749    -0.0425762
  C        1.2227880    -1.5827320    -0.1454420
  C        2.7536970     0.2775120    -0.1531960
  C        2.5274700    -1.0985820    -0.2079210
  C       -0.6853200     1.7746360     0.1326930
  C       -1.2296110    -1.3487220    -0.0223170
  H        1.8350890     2.2234210     0.0367700
  H        1.0390000    -2.6541090    -0.1799310
  H        3.7675570     0.6687350    -0.1864300
  H        3.3600860    -1.7923230    -0.2949860
  H       -2.0668670     0.7647910    -1.0387640
  H       -2.5394600     2.3415160    -0.4355780
  H       -0.7232160    -2.3232030     1.7312060
  H       -2.2766340    -2.7186030     1.0611610
units angstrom
no_reorient  #important for SAPT in psi4, default
symmetry c1  #important for SAPT in psi4, default
}

set PROPERTIES_ORIGIN ["COM"]
properties('MP2/aug-cc-pvtz', properties = ['dipole'])
--------------------------------------------------------------------------

    Molecular point group: c1
  Charge       = 0
  Multiplicity = 1
  Basis Set: AUG-CC-PVTZ
    Blend: AUG-CC-PVTZ
  Basis Set: (AUG-CC-PVTZ AUX)
    Blend: AUG-CC-PVTZ-JKFIT

    Orbital Energies [Eh]
    ---------------------

    Doubly Occupied:

       1A    -20.547668     2A    -20.515589     3A    -15.609576
       4A    -15.571497     5A    -11.387278     6A    -11.357264
       7A    -11.286358     8A    -11.280950     9A    -11.267272
      10A    -11.263410    11A    -11.262067    12A    -11.259698
      13A     -1.401981    14A     -1.369656    15A     -1.237428
      16A     -1.202860    17A     -1.166176    18A     -1.056894
      19A     -1.037975    20A     -0.907923    21A     -0.874201
      22A     -0.827281    23A     -0.782640    24A     -0.766405
      25A     -0.721517    26A     -0.710497    27A     -0.682447
      28A     -0.664486    29A     -0.660972    30A     -0.626691
      31A     -0.619936    32A     -0.589545    33A     -0.580710
      34A     -0.565180    35A     -0.545353    36A     -0.516328
      37A     -0.510293    38A     -0.454030    39A     -0.441485
      40A     -0.427973    41A     -0.402842    42A     -0.367854
      43A     -0.344829

  @DF-RHF Final Energy:  -566.44351212214622

   => Energetics <=

    Nuclear Repulsion Energy =            667.0951089121864470
    One-Electron Energy =               -2095.7312167625991606
    Two-Electron Energy =                 862.1925957282666104
    Total Energy =                       -566.4435121221462168
  Basis Set: (AUG-CC-PVTZ AUX)
    Blend: AUG-CC-PVTZ-RI
    Molecular point group: c1

    Geometry (in Angstrom), charge = 0, multiplicity = 1:

       Center              X                  Y                   Z               Mass
    ------------   -----------------  -----------------  -----------------  -----------------
         O           -0.431462327332     2.731794542536     0.839514212191    15.994914619570
         O           -2.125825327332    -1.151272457464    -0.833155787809    15.994914619570
         N           -1.814066327332     1.617376542536    -0.592519787809    14.003074004430
         N           -1.355783327332    -2.324312457464     0.954102212191    14.003074004430
         C            0.360410672668     0.657356542536    -0.022594787809    12.000000000000
         C            0.134678672668    -0.735232457464    -0.054815787809    12.000000000000
         C            1.780770372668     1.231321442536    -0.038451987809    12.000000000000
         C            1.230109672668    -1.611685457464    -0.141317787809    12.000000000000
         C            2.761018672668     0.248558542536    -0.149071787809    12.000000000000
         C            2.534791672668    -1.127535457464    -0.203796787809    12.000000000000
         C           -0.677998327332     1.745682542536     0.136817212191    12.000000000000
         C           -1.222289327332    -1.377675457464    -0.018192787809    12.000000000000
         H            1.842410672668     2.194467542536     0.040894212191     1.007825032230
         H            1.046321672668    -2.683062457464    -0.175806787809     1.007825032230
         H            3.774878672668     0.639781542536    -0.182305787809     1.007825032230
         H            3.367407672668    -1.821276457464    -0.290861787809     1.007825032230
         H           -2.059545327332     0.735837542536    -1.034639787809     1.007825032230
         H           -2.532138327332     2.312562542536    -0.431453787809     1.007825032230
         H           -0.715894327332    -2.352156457464     1.735330212191     1.007825032230
         H           -2.269312327332    -2.747556457464     1.065285212191     1.007825032230

  Basis Set: AUG-CC-PVTZ
    Blend: AUG-CC-PVTZ
  Basis Set: (AUG-CC-PVTZ AUX)
    Blend: AUG-CC-PVTZ-JKFIT
	 Reference Energy          =    -566.4435121221462168 [Eh]
	 Singles Energy            =      -0.0000000000000000 [Eh]
	 Same-Spin Energy          =      -0.5968986279095824 [Eh]
	 Opposite-Spin Energy      =      -1.7915560926172733 [Eh]
	 Correlation Energy        =      -2.3884547205268558 [Eh]
	 Total Energy              =    -568.8319668426730686 [Eh]

	 ================> DF-SCS-MP2 Energies <==================
	-----------------------------------------------------------
	 SCS Same-Spin Scale       =       0.3333333333333333 [-]
	 SCS Opposite-Spin Scale   =       1.2000000000000000 [-]
	 SCS Same-Spin Energy      =      -0.1989662093031941 [Eh]
	 SCS Opposite-Spin Energy  =      -2.1498673111407278 [Eh]
	 SCS Correlation Energy    =      -2.3488335204439221 [Eh]
	 SCS Total Energy          =    -568.7923456425901350 [Eh]
	-----------------------------------------------------------

  Dipole Moment: [D]
     X:     0.9032      Y:    -4.0559      Z:     1.0146     Total:     4.2773

*** Psi4 exiting successfully. Buy a developer a beer!
