                               Psi4 1.4a3.dev225

  ==> Input File <==

--------------------------------------------------------------------------
#psi4
#
memory 32 gb

molecule  {
0 1
  O       -0.4387840     2.7607480     0.8353900
  O       -2.1331470    -1.1223190    -0.8372800
  N       -1.8213880     1.6463300    -0.5966440
  N       -1.3631050    -2.2953590     0.9499780
  C        0.3530890     0.6863100    -0.0267190
  C        0.1273570    -0.7062790    -0.0589400
  C        1.6757520     1.1521170    -0.0434370
  C        1.2227880    -1.5827320    -0.1454420
  C        2.7536970     0.2775120    -0.1531960
  C        2.5274700    -1.0985820    -0.2079210
  C       -0.6853200     1.7746360     0.1326930
  C       -1.2296110    -1.3487220    -0.0223170
  H        1.8350890     2.2234210     0.0367700
  H        1.0390000    -2.6541090    -0.1799310
  H        3.7675570     0.6687350    -0.1864300
  H        3.3754020    -1.8050844    -0.2965876
  H       -2.0668670     0.7647910    -1.0387640
  H       -2.5394600     2.3415160    -0.4355780
  H       -0.7232160    -2.3232030     1.7312060
  H       -2.2766340    -2.7186030     1.0611610
units angstrom
no_reorient  #important for SAPT in psi4, default
symmetry c1  #important for SAPT in psi4, default
}

set PROPERTIES_ORIGIN ["COM"]
properties('MP2/aug-cc-pvtz', properties = ['dipole'])
--------------------------------------------------------------------------

    Molecular point group: c1
  Charge       = 0
  Multiplicity = 1
  Basis Set: AUG-CC-PVTZ
    Blend: AUG-CC-PVTZ
  Basis Set: (AUG-CC-PVTZ AUX)
    Blend: AUG-CC-PVTZ-JKFIT

    Orbital Energies [Eh]
    ---------------------

    Doubly Occupied:

       1A    -20.547151     2A    -20.515363     3A    -15.609033
       4A    -15.571879     5A    -11.386357     6A    -11.357600
       7A    -11.280678     8A    -11.273333     9A    -11.265885
      10A    -11.264158    11A    -11.258644    12A    -11.255777
      13A     -1.401540    14A     -1.369611    15A     -1.236939
      16A     -1.203646    17A     -1.174968    18A     -1.055113
      19A     -1.046528    20A     -0.908178    21A     -0.868511
      22A     -0.822421    23A     -0.787133    24A     -0.763466
      25A     -0.724093    26A     -0.701924    27A     -0.686511
      28A     -0.659153    29A     -0.648127    30A     -0.631852
      31A     -0.611035    32A     -0.592272    33A     -0.580850
      34A     -0.566321    35A     -0.538351    36A     -0.522638
      37A     -0.517384    38A     -0.455873    39A     -0.441018
      40A     -0.429064    41A     -0.402545    42A     -0.362988
      43A     -0.356408

  @DF-RHF Final Energy:  -566.47118992194510

   => Energetics <=

    Nuclear Repulsion Energy =            669.6956503813157724
    One-Electron Energy =               -2101.0290384084505604
    Two-Electron Energy =                 864.8621981051896910
    Total Energy =                       -566.4711899219450970
  Basis Set: (AUG-CC-PVTZ AUX)
    Blend: AUG-CC-PVTZ-RI
    Molecular point group: c1

    Geometry (in Angstrom), charge = 0, multiplicity = 1:

       Center              X                  Y                   Z               Mass
    ------------   -----------------  -----------------  -----------------  -----------------
         O           -0.424410428130     2.739784103816     0.839587013825    15.994914619570
         O           -2.118773428130    -1.143282896184    -0.833082986175    15.994914619570
         N           -1.807014428130     1.625366103816    -0.592446986175    14.003074004430
         N           -1.348731428130    -2.316322896184     0.954175013825    14.003074004430
         C            0.367462571870     0.665346103816    -0.022521986175    12.000000000000
         C            0.141730571870    -0.727242896184    -0.054742986175    12.000000000000
         C            1.690125571870     1.131153103816    -0.039239986175    12.000000000000
         C            1.237161571870    -1.603695896184    -0.141244986175    12.000000000000
         C            2.768070571870     0.256548103816    -0.148998986175    12.000000000000
         C            2.541843571870    -1.119545896184    -0.203723986175    12.000000000000
         C           -0.670946428130     1.753672103816     0.136890013825    12.000000000000
         C           -1.215237428130    -1.369685896184    -0.018119986175    12.000000000000
         H            1.849462571870     2.202457103816     0.040967013825     1.007825032230
         H            1.053373571870    -2.675072896184    -0.175733986175     1.007825032230
         H            3.781930571870     0.647771103816    -0.182232986175     1.007825032230
         H            3.389775571870    -1.826048296184    -0.292390586175     1.007825032230
         H           -2.052493428130     0.743827103816    -1.034566986175     1.007825032230
         H           -2.525086428130     2.320552103816    -0.431380986175     1.007825032230
         H           -0.708842428130    -2.344166896184     1.735403013825     1.007825032230
         H           -2.262260428130    -2.739566896184     1.065358013825     1.007825032230

  Basis Set: AUG-CC-PVTZ
    Blend: AUG-CC-PVTZ
  Basis Set: (AUG-CC-PVTZ AUX)
    Blend: AUG-CC-PVTZ-JKFIT
	 Reference Energy          =    -566.4711899219450970 [Eh]
	 Singles Energy            =      -0.0000000000000000 [Eh]
	 Same-Spin Energy          =      -0.5968548134260976 [Eh]
	 Opposite-Spin Energy      =      -1.7898644079559141 [Eh]
	 Correlation Energy        =      -2.3867192213820116 [Eh]
	 Total Energy              =    -568.8579091433271060 [Eh]

	 ================> DF-SCS-MP2 Energies <==================
	-----------------------------------------------------------
	 SCS Same-Spin Scale       =       0.3333333333333333 [-]
	 SCS Opposite-Spin Scale   =       1.2000000000000000 [-]
	 SCS Same-Spin Energy      =      -0.1989516044753659 [Eh]
	 SCS Opposite-Spin Energy  =      -2.1478372895470970 [Eh]
	 SCS Correlation Energy    =      -2.3467888940224628 [Eh]
	 SCS Total Energy          =    -568.8179788159675354 [Eh]
	-----------------------------------------------------------

  Dipole Moment: [D]
     X:     0.9239      Y:    -4.0269      Z:     1.0147     Total:     4.2543

*** Psi4 exiting successfully. Buy a developer a beer!
