                               Psi4 1.4a3.dev225

  ==> Input File <==

--------------------------------------------------------------------------
#psi4
#
memory 32 gb

molecule  {
0 1
  O       -0.4387840     2.7607480     0.8353900
  O       -2.1331470    -1.1223190    -0.8372800
  N       -1.8213880     1.6463300    -0.5966440
  N       -1.3631050    -2.2953590     0.9499780
  C        0.3530890     0.6863100    -0.0267190
  C        0.1273570    -0.7062790    -0.0589400
  C        1.6757520     1.1521170    -0.0434370
  C        1.2227880    -1.5827320    -0.1454420
  C        2.7536970     0.2775120    -0.1531960
  C        2.5274700    -1.0985820    -0.2079210
  C       -0.6853200     1.7746360     0.1326930
  C       -1.2296110    -1.3487220    -0.0223170
  H        1.8350890     2.2234210     0.0367700
  H        1.0390000    -2.6541090    -0.1799310
  H        3.7675570     0.6687350    -0.1864300
  H        3.3600860    -1.7923230    -0.2949860
  H       -2.0427125     0.8515321    -0.9952606
  H       -2.5394600     2.3415160    -0.4355780
  H       -0.7232160    -2.3232030     1.7312060
  H       -2.2766340    -2.7186030     1.0611610
units angstrom
no_reorient  #important for SAPT in psi4, default
symmetry c1  #important for SAPT in psi4, default
}

set PROPERTIES_ORIGIN ["COM"]
properties('MP2/aug-cc-pvtz', properties = ['dipole'])
--------------------------------------------------------------------------

    Molecular point group: c1
  Charge       = 0
  Multiplicity = 1
  Basis Set: AUG-CC-PVTZ
    Blend: AUG-CC-PVTZ
  Basis Set: (AUG-CC-PVTZ AUX)
    Blend: AUG-CC-PVTZ-JKFIT

    Orbital Energies [Eh]
    ---------------------

    Doubly Occupied:

       1A    -20.544325     2A    -20.517602     3A    -15.607264
       4A    -15.566592     5A    -11.383924     6A    -11.359742
       7A    -11.280464     8A    -11.273631     9A    -11.265317
      10A    -11.262212    11A    -11.258483    12A    -11.256100
      13A     -1.398345    14A     -1.372345    15A     -1.235125
      16A     -1.219735    17A     -1.175936    18A     -1.055560
      19A     -1.047054    20A     -0.908701    21A     -0.870685
      22A     -0.823387    23A     -0.794225    24A     -0.770187
      25A     -0.735712    26A     -0.703688    27A     -0.688417
      28A     -0.659864    29A     -0.649120    30A     -0.631346
      31A     -0.610237    32A     -0.597256    33A     -0.580893
      34A     -0.568005    35A     -0.539068    36A     -0.523640
      37A     -0.517728    38A     -0.454420    39A     -0.439224
      40A     -0.430897    41A     -0.406842    42A     -0.362775
      43A     -0.356672

  @DF-RHF Final Energy:  -566.46584014336008

   => Energetics <=

    Nuclear Repulsion Energy =            670.2043248473191852
    One-Electron Energy =               -2101.9348388538537620
    Two-Electron Energy =                 865.2646738631744938
    Total Energy =                       -566.4658401433600829
  Basis Set: (AUG-CC-PVTZ AUX)
    Blend: AUG-CC-PVTZ-RI
    Molecular point group: c1

    Geometry (in Angstrom), charge = 0, multiplicity = 1:

       Center              X                  Y                   Z               Mass
    ------------   -----------------  -----------------  -----------------  -----------------
         O           -0.424464723746     2.739172851958     0.839309930184    15.994914619570
         O           -2.118827723746    -1.143894148042    -0.833360069816    15.994914619570
         N           -1.807068723746     1.624754851958    -0.592724069816    14.003074004430
         N           -1.348785723746    -2.316934148042     0.953897930184    14.003074004430
         C            0.367408276254     0.664734851958    -0.022799069816    12.000000000000
         C            0.141676276254    -0.727854148042    -0.055020069816    12.000000000000
         C            1.690071276254     1.130541851958    -0.039517069816    12.000000000000
         C            1.237107276254    -1.604307148042    -0.141522069816    12.000000000000
         C            2.768016276254     0.255936851958    -0.149276069816    12.000000000000
         C            2.541789276254    -1.120157148042    -0.204001069816    12.000000000000
         C           -0.671000723746     1.753060851958     0.136612930184    12.000000000000
         C           -1.215291723746    -1.370297148042    -0.018397069816    12.000000000000
         H            1.849408276254     2.201845851958     0.040689930184     1.007825032230
         H            1.053319276254    -2.675684148042    -0.176011069816     1.007825032230
         H            3.781876276254     0.647159851958    -0.182510069816     1.007825032230
         H            3.374405276254    -1.813898148042    -0.291066069816     1.007825032230
         H           -2.028393223746     0.829956951958    -0.991340669816     1.007825032230
         H           -2.525140723746     2.319940851958    -0.431658069816     1.007825032230
         H           -0.708896723746    -2.344778148042     1.735125930184     1.007825032230
         H           -2.262314723746    -2.740178148042     1.065080930184     1.007825032230

  Basis Set: AUG-CC-PVTZ
    Blend: AUG-CC-PVTZ
  Basis Set: (AUG-CC-PVTZ AUX)
    Blend: AUG-CC-PVTZ-JKFIT
	 Reference Energy          =    -566.4658401433600829 [Eh]
	 Singles Energy            =      -0.0000000000000000 [Eh]
	 Same-Spin Energy          =      -0.5958282847522254 [Eh]
	 Opposite-Spin Energy      =      -1.7881431844443190 [Eh]
	 Correlation Energy        =      -2.3839714691965446 [Eh]
	 Total Energy              =    -568.8498116125566639 [Eh]

	 ================> DF-SCS-MP2 Energies <==================
	-----------------------------------------------------------
	 SCS Same-Spin Scale       =       0.3333333333333333 [-]
	 SCS Opposite-Spin Scale   =       1.2000000000000000 [-]
	 SCS Same-Spin Energy      =      -0.1986094282507418 [Eh]
	 SCS Opposite-Spin Energy  =      -2.1457718213331827 [Eh]
	 SCS Correlation Energy    =      -2.3443812495839245 [Eh]
	 SCS Total Energy          =    -568.8102213929439586 [Eh]
	-----------------------------------------------------------

  Dipole Moment: [D]
     X:     0.9665      Y:    -3.8256      Z:     1.0530     Total:     4.0839

*** Psi4 exiting successfully. Buy a developer a beer!
