                               Psi4 1.3.2 release

  ==> Input File <==

--------------------------------------------------------------------------
#psi4
#
memory 32 gb

molecule  {
0 1
  O       -1.4607440    -0.6783760    -0.0000110
  N        0.8364910    -1.0546300    -0.0000300
  N        2.0492790    -0.4487200    -0.0000870
  C       -0.1070996    -0.1416545    -0.0000325
  C        0.3504840     1.0933250    -0.0000620
  C        1.7415550     0.8590090    -0.0000990
  C       -2.4699820     0.3361590     0.0002330
  H       -0.1651650     2.0416990    -0.0000660
  H        0.7745000    -2.0647320    -0.0000170
  H        2.5420040     1.5875080    -0.0001330
  H       -3.4206380    -0.1946080     0.0003100
  H       -2.3886930     0.9604430    -0.8948830
  H       -2.3884390     0.9602630     0.8954520
units angstrom
no_reorient  #important for SAPT in psi4, default
symmetry c1  #important for SAPT in psi4, default
}

set PROPERTIES_ORIGIN ["COM"]
properties('MP2/aug-cc-pvtz', properties = ['dipole'])
--------------------------------------------------------------------------

    Molecular point group: c1
  Charge       = 0
  Multiplicity = 1
  Basis Set: AUG-CC-PVTZ
    Blend: AUG-CC-PVTZ
  Basis Set: (AUG-CC-PVTZ AUX)
    Blend: AUG-CC-PVTZ-JKFIT

    Orbital Energies [Eh]
    ---------------------

    Doubly Occupied:

       1A    -20.596583     2A    -15.634246     3A    -15.585305
       4A    -11.334691     5A    -11.289538     6A    -11.262662
       7A    -11.219045     8A     -1.411577     9A     -1.360015
      10A     -1.099851    11A     -1.068875    12A     -0.942379
      13A     -0.825743    14A     -0.813457    15A     -0.739628
      16A     -0.664708    17A     -0.646608    18A     -0.621910
      19A     -0.609706    20A     -0.601623    21A     -0.583337
      22A     -0.511460    23A     -0.487912    24A     -0.459228
      25A     -0.375743    26A     -0.342402

  @DF-RHF Final Energy:  -338.78557371729795

   => Energetics <=

    Nuclear Repulsion Energy =            296.1879008565110780
    One-Electron Energy =               -1047.7704842007183288
    Two-Electron Energy =                 412.7970096269093006
    Total Energy =                       -338.7855737172979502
  Basis Set: (AUG-CC-PVTZ AUX)
    Blend: AUG-CC-PVTZ-RI
    Molecular point group: c1

    Geometry (in Angstrom), charge = 0, multiplicity = 1:

       Center              X                  Y                   Z               Mass
    ------------   -----------------  -----------------  -----------------  -----------------
         O           -1.523353577153    -0.649576806794    -0.000004145035    15.994914619570
         N            0.773881422847    -1.025830806794    -0.000023145035    14.003074004430
         N            1.986669422847    -0.419920806794    -0.000080145035    14.003074004430
         C           -0.169709177153    -0.112855306794    -0.000025645035    12.000000000000
         C            0.287874422847     1.122124193206    -0.000055145035    12.000000000000
         C            1.678945422847     0.887808193206    -0.000092145035    12.000000000000
         C           -2.532591577153     0.364958193206     0.000239854965    12.000000000000
         H           -0.227774577153     2.070498193206    -0.000059145035     1.007825032230
         H            0.711890422847    -2.035932806794    -0.000010145035     1.007825032230
         H            2.479394422847     1.616307193206    -0.000126145035     1.007825032230
         H           -3.483247577153    -0.165808806794     0.000316854965     1.007825032230
         H           -2.451302577153     0.989242193206    -0.894876145035     1.007825032230
         H           -2.451048577153     0.989062193206     0.895458854965     1.007825032230

  Basis Set: AUG-CC-PVTZ
    Blend: AUG-CC-PVTZ
  Basis Set: (AUG-CC-PVTZ AUX)
    Blend: AUG-CC-PVTZ-JKFIT
	 Reference Energy          =    -338.7855737172979502 [Eh]
	 Singles Energy            =      -0.0000000000000000 [Eh]
	 Same-Spin Energy          =      -0.3529897426046230 [Eh]
	 Opposite-Spin Energy      =      -1.0838221632096952 [Eh]
	 Correlation Energy        =      -1.4368119058143183 [Eh]
	 Total Energy              =    -340.2223856231122454 [Eh]

	 ================> DF-SCS-MP2 Energies <==================
	-----------------------------------------------------------
	 SCS Same-Spin Scale       =       0.3333333333333333 [-]
	 SCS Opposite-Spin Scale   =       1.2000000000000000 [-]
	 SCS Same-Spin Energy      =      -0.1176632475348743 [Eh]
	 SCS Opposite-Spin Energy  =      -1.3005865958516341 [Eh]
	 SCS Correlation Energy    =      -1.4182498433865085 [Eh]
	 SCS Total Energy          =    -340.2038235606844410 [Eh]
	-----------------------------------------------------------

  Dipole Moment: [D]
     X:    -2.4882      Y:     0.7944      Z:     0.0003     Total:     2.6120

*** Psi4 exiting successfully. Buy a developer a beer!
