                               Psi4 1.3.2 release

  ==> Input File <==

--------------------------------------------------------------------------
#psi4
#
memory 32 gb

molecule  {
0 1
  O       -1.4607440    -0.6783760    -0.0000110
  N        0.8364910    -1.0546300    -0.0000300
  N        2.0492790    -0.4487200    -0.0000870
  C       -0.1688515    -0.1428716    -0.0000317
  C        0.3504840     1.0933250    -0.0000620
  C        1.7415550     0.8590090    -0.0000990
  C       -2.4699820     0.3361590     0.0002330
  H       -0.1651650     2.0416990    -0.0000660
  H        0.7745000    -2.0647320    -0.0000170
  H        2.5420040     1.5875080    -0.0001330
  H       -3.4206380    -0.1946080     0.0003100
  H       -2.3886930     0.9604430    -0.8948830
  H       -2.3884390     0.9602630     0.8954520
units angstrom
no_reorient  #important for SAPT in psi4, default
symmetry c1  #important for SAPT in psi4, default
}

set PROPERTIES_ORIGIN ["COM"]
properties('MP2/aug-cc-pvtz', properties = ['dipole'])
--------------------------------------------------------------------------

    Molecular point group: c1
  Charge       = 0
  Multiplicity = 1
  Basis Set: AUG-CC-PVTZ
    Blend: AUG-CC-PVTZ
  Basis Set: (AUG-CC-PVTZ AUX)
    Blend: AUG-CC-PVTZ-JKFIT

    Orbital Energies [Eh]
    ---------------------

    Doubly Occupied:

       1A    -20.606369     2A    -15.630008     3A    -15.584773
       4A    -11.338345     5A    -11.295362     6A    -11.259304
       7A    -11.219865     8A     -1.423289     9A     -1.357606
      10A     -1.090240    11A     -1.060801    12A     -0.953122
      13A     -0.820580    14A     -0.802446    15A     -0.747773
      16A     -0.672031    17A     -0.646324    18A     -0.626128
      19A     -0.602007    20A     -0.599029    21A     -0.581490
      22A     -0.524485    23A     -0.498867    24A     -0.456823
      25A     -0.370376    26A     -0.334085

  @DF-RHF Final Energy:  -338.79558976811143

   => Energetics <=

    Nuclear Repulsion Energy =            295.8219372237421112
    One-Electron Energy =               -1047.0320036442140008
    Two-Electron Energy =                 412.4144766523604630
    Total Energy =                       -338.7955897681114266
  Basis Set: (AUG-CC-PVTZ AUX)
    Blend: AUG-CC-PVTZ-RI
    Molecular point group: c1

    Geometry (in Angstrom), charge = 0, multiplicity = 1:

       Center              X                  Y                   Z               Mass
    ------------   -----------------  -----------------  -----------------  -----------------
         O           -1.515795822757    -0.649427847120    -0.000004242946    15.994914619570
         N            0.781439177243    -1.025681847120    -0.000023242946    14.003074004430
         N            1.994227177243    -0.419771847120    -0.000080242946    14.003074004430
         C           -0.223903322756    -0.113923447120    -0.000024942946    12.000000000000
         C            0.295432177243     1.122273152880    -0.000055242946    12.000000000000
         C            1.686503177243     0.887957152880    -0.000092242946    12.000000000000
         C           -2.525033822756     0.365107152880     0.000239757054    12.000000000000
         H           -0.220216822756     2.070647152880    -0.000059242946     1.007825032230
         H            0.719448177243    -2.035783847120    -0.000010242946     1.007825032230
         H            2.486952177243     1.616456152880    -0.000126242946     1.007825032230
         H           -3.475689822756    -0.165659847120     0.000316757054     1.007825032230
         H           -2.443744822756     0.989391152880    -0.894876242946     1.007825032230
         H           -2.443490822756     0.989211152880     0.895458757054     1.007825032230

  Basis Set: AUG-CC-PVTZ
    Blend: AUG-CC-PVTZ
  Basis Set: (AUG-CC-PVTZ AUX)
    Blend: AUG-CC-PVTZ-JKFIT
	 Reference Energy          =    -338.7955897681114266 [Eh]
	 Singles Energy            =      -0.0000000000000000 [Eh]
	 Same-Spin Energy          =      -0.3531663848044643 [Eh]
	 Opposite-Spin Energy      =      -1.0839052543280436 [Eh]
	 Correlation Energy        =      -1.4370716391325078 [Eh]
	 Total Energy              =    -340.2326614072439384 [Eh]

	 ================> DF-SCS-MP2 Energies <==================
	-----------------------------------------------------------
	 SCS Same-Spin Scale       =       0.3333333333333333 [-]
	 SCS Opposite-Spin Scale   =       1.2000000000000000 [-]
	 SCS Same-Spin Energy      =      -0.1177221282681548 [Eh]
	 SCS Opposite-Spin Energy  =      -1.3006863051936524 [Eh]
	 SCS Correlation Energy    =      -1.4184084334618072 [Eh]
	 SCS Total Energy          =    -340.2139982015732471 [Eh]
	-----------------------------------------------------------

  Dipole Moment: [D]
     X:    -2.8620      Y:     0.7680      Z:     0.0003     Total:     2.9633

*** Psi4 exiting successfully. Buy a developer a beer!
