                               Psi4 1.3.2 release

  ==> Input File <==

--------------------------------------------------------------------------
#psi4
#
memory 32 gb

molecule  {
0 1
  O       -1.4607440    -0.6783760    -0.0000110
  N        0.8364910    -1.0546300    -0.0000300
  N        2.0492790    -0.4487200    -0.0000870
  C       -0.2000590    -0.1785130    -0.0000310
  C        0.3504840     1.0933250    -0.0000620
  C        1.6429442     0.8756193    -0.0000964
  C       -2.4699820     0.3361590     0.0002330
  H       -0.1651650     2.0416990    -0.0000660
  H        0.7745000    -2.0647320    -0.0000170
  H        2.5420040     1.5875080    -0.0001330
  H       -3.4206380    -0.1946080     0.0003100
  H       -2.3886930     0.9604430    -0.8948830
  H       -2.3884390     0.9602630     0.8954520
units angstrom
no_reorient  #important for SAPT in psi4, default
symmetry c1  #important for SAPT in psi4, default
}

set PROPERTIES_ORIGIN ["COM"]
properties('MP2/aug-cc-pvtz', properties = ['dipole'])
--------------------------------------------------------------------------

    Molecular point group: c1
  Charge       = 0
  Multiplicity = 1
  Basis Set: AUG-CC-PVTZ
    Blend: AUG-CC-PVTZ
  Basis Set: (AUG-CC-PVTZ AUX)
    Blend: AUG-CC-PVTZ-JKFIT

    Orbital Energies [Eh]
    ---------------------

    Doubly Occupied:

       1A    -20.613536     2A    -15.634326     3A    -15.574962
       4A    -11.344681     5A    -11.302055     6A    -11.253708
       7A    -11.216045     8A     -1.441608     9A     -1.356082
      10A     -1.089082    11A     -1.061455    12A     -0.961397
      13A     -0.826703    14A     -0.793518    15A     -0.755401
      16A     -0.681642    17A     -0.651430    18A     -0.629841
      19A     -0.605075    20A     -0.601490    21A     -0.557781
      22A     -0.520028    23A     -0.507207    24A     -0.460870
      25A     -0.381647    26A     -0.315801

  @DF-RHF Final Energy:  -338.78044480687157

   => Energetics <=

    Nuclear Repulsion Energy =            296.9007065420793197
    One-Electron Energy =               -1049.0875639918988327
    Two-Electron Energy =                 413.4064126429479415
    Total Energy =                       -338.7804448068715715
  Basis Set: (AUG-CC-PVTZ AUX)
    Blend: AUG-CC-PVTZ-RI
    Molecular point group: c1

    Geometry (in Angstrom), charge = 0, multiplicity = 1:

       Center              X                  Y                   Z               Mass
    ------------   -----------------  -----------------  -----------------  -----------------
         O           -1.499907488509    -0.647098649481    -0.000004646830    15.994914619570
         N            0.797327511491    -1.023352649481    -0.000023646830    14.003074004430
         N            2.010115511491    -0.417442649481    -0.000080646830    14.003074004430
         C           -0.239222488509    -0.147235649481    -0.000024646830    12.000000000000
         C            0.311320511491     1.124602350519    -0.000055646830    12.000000000000
         C            1.603780711491     0.906896650519    -0.000090046830    12.000000000000
         C           -2.509145488509     0.367436350519     0.000239353170    12.000000000000
         H           -0.204328488509     2.072976350519    -0.000059646830     1.007825032230
         H            0.735336511491    -2.033454649481    -0.000010646830     1.007825032230
         H            2.502840511491     1.618785350519    -0.000126646830     1.007825032230
         H           -3.459801488509    -0.163330649481     0.000316353170     1.007825032230
         H           -2.427856488509     0.991720350519    -0.894876646830     1.007825032230
         H           -2.427602488509     0.991540350519     0.895458353170     1.007825032230

  Basis Set: AUG-CC-PVTZ
    Blend: AUG-CC-PVTZ
  Basis Set: (AUG-CC-PVTZ AUX)
    Blend: AUG-CC-PVTZ-JKFIT
	 Reference Energy          =    -338.7804448068715715 [Eh]
	 Singles Energy            =      -0.0000000000000000 [Eh]
	 Same-Spin Energy          =      -0.3553982483538618 [Eh]
	 Opposite-Spin Energy      =      -1.0865719274172485 [Eh]
	 Correlation Energy        =      -1.4419701757711103 [Eh]
	 Total Energy              =    -340.2224149826427038 [Eh]

	 ================> DF-SCS-MP2 Energies <==================
	-----------------------------------------------------------
	 SCS Same-Spin Scale       =       0.3333333333333333 [-]
	 SCS Opposite-Spin Scale   =       1.2000000000000000 [-]
	 SCS Same-Spin Energy      =      -0.1184660827846206 [Eh]
	 SCS Opposite-Spin Energy  =      -1.3038863129006981 [Eh]
	 SCS Correlation Energy    =      -1.4223523956853188 [Eh]
	 SCS Total Energy          =    -340.2027972025568943 [Eh]
	-----------------------------------------------------------

  Dipole Moment: [D]
     X:    -3.3088      Y:     0.6302      Z:     0.0003     Total:     3.3682

*** Psi4 exiting successfully. Buy a developer a beer!
