                               Psi4 1.4a3.dev225

  ==> Input File <==

--------------------------------------------------------------------------
#psi4
#
memory 32 gb

molecule  {
0 1
  O       -1.4607440    -0.6783760    -0.0000110
  N        0.8364910    -1.0546300    -0.0000300
  N        2.0492790    -0.4487200    -0.0000870
  C       -0.2153337    -0.1656024    -0.0000310
  C        0.3504840     1.0933250    -0.0000620
  C        1.7415550     0.8590090    -0.0000990
  C       -2.4699820     0.3361590     0.0002330
  H       -0.1651650     2.0416990    -0.0000660
  H        0.7745000    -2.0647320    -0.0000170
  H        2.5420040     1.5875080    -0.0001330
  H       -3.4206380    -0.1946080     0.0003100
  H       -2.3886930     0.9604430    -0.8948830
  H       -2.3884390     0.9602630     0.8954520
units angstrom
no_reorient  #important for SAPT in psi4, default
symmetry c1  #important for SAPT in psi4, default
}

set PROPERTIES_ORIGIN ["COM"]
properties('MP2/aug-cc-pvtz', properties = ['dipole'])
--------------------------------------------------------------------------

    Molecular point group: c1
  Charge       = 0
  Multiplicity = 1
  Basis Set: AUG-CC-PVTZ
    Blend: AUG-CC-PVTZ
  Basis Set: (AUG-CC-PVTZ AUX)
    Blend: AUG-CC-PVTZ-JKFIT

    Orbital Energies [Eh]
    ---------------------

    Doubly Occupied:

       1A    -20.614595     2A    -15.628100     3A    -15.581906
       4A    -11.343407     5A    -11.301099     6A    -11.256746
       7A    -11.220494     8A     -1.444177     9A     -1.352596
      10A     -1.086968    11A     -1.049397    12A     -0.963303
      13A     -0.817489    14A     -0.796584    15A     -0.755842
      16A     -0.681328    17A     -0.651931    18A     -0.627480
      19A     -0.597156    20A     -0.594496    21A     -0.579762
      22A     -0.530842    23A     -0.508644    24A     -0.453584
      25A     -0.365491    26A     -0.324996

  @DF-RHF Final Energy:  -338.79824778901337

   => Energetics <=

    Nuclear Repulsion Energy =            295.6334328255752553
    One-Electron Energy =               -1046.6065322026418016
    Two-Electron Energy =                 412.1748515880531727
    Total Energy =                       -338.7982477890133737
  Basis Set: (AUG-CC-PVTZ AUX)
    Blend: AUG-CC-PVTZ-RI
    Molecular point group: c1

    Geometry (in Angstrom), charge = 0, multiplicity = 1:

       Center              X                  Y                   Z               Mass
    ------------   -----------------  -----------------  -----------------  -----------------
         O           -1.510106911947    -0.646645846831    -0.000004328618    15.994914619570
         N            0.787128088053    -1.022899846831    -0.000023328618    14.003074004430
         N            1.999916088053    -0.416989846831    -0.000080328618    14.003074004430
         C           -0.264696611947    -0.133872246831    -0.000024328618    12.000000000000
         C            0.301121088053     1.125055153169    -0.000055328618    12.000000000000
         C            1.692192088053     0.890739153169    -0.000092328618    12.000000000000
         C           -2.519344911947     0.367889153169     0.000239671382    12.000000000000
         H           -0.214527911947     2.073429153169    -0.000059328618     1.007825032230
         H            0.725137088053    -2.033001846831    -0.000010328618     1.007825032230
         H            2.492641088053     1.619238153169    -0.000126328618     1.007825032230
         H           -3.470000911947    -0.162877846831     0.000316671382     1.007825032230
         H           -2.438055911947     0.992173153169    -0.894876328618     1.007825032230
         H           -2.437801911947     0.991993153169     0.895458671382     1.007825032230

  Basis Set: AUG-CC-PVTZ
    Blend: AUG-CC-PVTZ
  Basis Set: (AUG-CC-PVTZ AUX)
    Blend: AUG-CC-PVTZ-JKFIT
	 Reference Energy          =    -338.7982477890133737 [Eh]
	 Singles Energy            =      -0.0000000000000000 [Eh]
	 Same-Spin Energy          =      -0.3534526667673576 [Eh]
	 Opposite-Spin Energy      =      -1.0838262410254040 [Eh]
	 Correlation Energy        =      -1.4372789077927617 [Eh]
	 Total Energy              =    -340.2355266968061187 [Eh]

	 ================> DF-SCS-MP2 Energies <==================
	-----------------------------------------------------------
	 SCS Same-Spin Scale       =       0.3333333333333333 [-]
	 SCS Opposite-Spin Scale   =       1.2000000000000000 [-]
	 SCS Same-Spin Energy      =      -0.1178175555891192 [Eh]
	 SCS Opposite-Spin Energy  =      -1.3005914892304848 [Eh]
	 SCS Correlation Energy    =      -1.4184090448196041 [Eh]
	 SCS Total Energy          =    -340.2166568338329853 [Eh]
	-----------------------------------------------------------

  Dipole Moment: [D]
     X:    -3.1998      Y:     0.6783      Z:     0.0003     Total:     3.2709

*** Psi4 exiting successfully. Buy a developer a beer!
