                               Psi4 1.4a3.dev225

  ==> Input File <==

--------------------------------------------------------------------------
#psi4
#
memory 32 gb

molecule  {
0 1
  O       -1.4607440    -0.6783760    -0.0000110
  N        0.8364910    -1.0546300    -0.0000300
  N        2.0671704    -0.4397814    -0.0000878
  C       -0.2000590    -0.1785130    -0.0000310
  C        0.3504840     1.0933250    -0.0000620
  C        1.7415550     0.8590090    -0.0000990
  C       -2.4699820     0.3361590     0.0002330
  H       -0.1651650     2.0416990    -0.0000660
  H        0.7745000    -2.0647320    -0.0000170
  H        2.5420040     1.5875080    -0.0001330
  H       -3.4206380    -0.1946080     0.0003100
  H       -2.3886930     0.9604430    -0.8948830
  H       -2.3884390     0.9602630     0.8954520
units angstrom
no_reorient  #important for SAPT in psi4, default
symmetry c1  #important for SAPT in psi4, default
}

set PROPERTIES_ORIGIN ["COM"]
properties('MP2/aug-cc-pvtz', properties = ['dipole'])
--------------------------------------------------------------------------

    Molecular point group: c1
  Charge       = 0
  Multiplicity = 1
  Basis Set: AUG-CC-PVTZ
    Blend: AUG-CC-PVTZ
  Basis Set: (AUG-CC-PVTZ AUX)
    Blend: AUG-CC-PVTZ-JKFIT

    Orbital Energies [Eh]
    ---------------------

    Doubly Occupied:

       1A    -20.613669     2A    -15.628542     3A    -15.582109
       4A    -11.344983     5A    -11.300660     6A    -11.258408
       7A    -11.219935     8A     -1.440325     9A     -1.349565
      10A     -1.093533    11A     -1.046581    12A     -0.962536
      13A     -0.817128    14A     -0.797133    15A     -0.755329
      16A     -0.679754    17A     -0.650097    18A     -0.624321
      19A     -0.597944    20A     -0.597249    21A     -0.578694
      22A     -0.528158    23A     -0.506660    24A     -0.456025
      25A     -0.367016    26A     -0.327537

  @DF-RHF Final Energy:  -338.79895983179290

   => Energetics <=

    Nuclear Repulsion Energy =            295.3086173560530483
    One-Electron Energy =               -1045.9673684797692204
    Two-Electron Energy =                 411.8597912919233295
    Total Energy =                       -338.7989598317928994
  Basis Set: (AUG-CC-PVTZ AUX)
    Blend: AUG-CC-PVTZ-RI
    Molecular point group: c1

    Geometry (in Angstrom), charge = 0, multiplicity = 1:

       Center              X                  Y                   Z               Mass
    ------------   -----------------  -----------------  -----------------  -----------------
         O           -1.514531591099    -0.646342328974    -0.000004214363    15.994914619570
         N            0.782703408901    -1.022596328974    -0.000023214363    14.003074004430
         N            2.013382808901    -0.407747728974    -0.000081014363    14.003074004430
         C           -0.253846591099    -0.146479328974    -0.000024214363    12.000000000000
         C            0.296696408901     1.125358671026    -0.000055214363    12.000000000000
         C            1.687767408901     0.891042671026    -0.000092214363    12.000000000000
         C           -2.523769591099     0.368192671026     0.000239785637    12.000000000000
         H           -0.218952591099     2.073732671026    -0.000059214363     1.007825032230
         H            0.720712408901    -2.032698328974    -0.000010214363     1.007825032230
         H            2.488216408901     1.619541671026    -0.000126214363     1.007825032230
         H           -3.474425591099    -0.162574328974     0.000316785637     1.007825032230
         H           -2.442480591099     0.992476671026    -0.894876214363     1.007825032230
         H           -2.442226591099     0.992296671026     0.895458785637     1.007825032230

  Basis Set: AUG-CC-PVTZ
    Blend: AUG-CC-PVTZ
  Basis Set: (AUG-CC-PVTZ AUX)
    Blend: AUG-CC-PVTZ-JKFIT
	 Reference Energy          =    -338.7989598317928994 [Eh]
	 Singles Energy            =      -0.0000000000000000 [Eh]
	 Same-Spin Energy          =      -0.3530292109225803 [Eh]
	 Opposite-Spin Energy      =      -1.0834774791695208 [Eh]
	 Correlation Energy        =      -1.4365066900921011 [Eh]
	 Total Energy              =    -340.2354665218849732 [Eh]

	 ================> DF-SCS-MP2 Energies <==================
	-----------------------------------------------------------
	 SCS Same-Spin Scale       =       0.3333333333333333 [-]
	 SCS Opposite-Spin Scale   =       1.2000000000000000 [-]
	 SCS Same-Spin Energy      =      -0.1176764036408601 [Eh]
	 SCS Opposite-Spin Energy  =      -1.3001729750034248 [Eh]
	 SCS Correlation Energy    =      -1.4178493786442850 [Eh]
	 SCS Total Energy          =    -340.2168092104371908 [Eh]
	-----------------------------------------------------------

  Dipole Moment: [D]
     X:    -3.1515      Y:     0.6660      Z:     0.0003     Total:     3.2211

*** Psi4 exiting successfully. Buy a developer a beer!
