                               Psi4 1.3.2 release

  ==> Input File <==

--------------------------------------------------------------------------
#psi4
#
memory 32 gb

molecule  {
0 1
  O       -1.4607440    -0.6783760    -0.0000110
  N        0.8364910    -1.0546300    -0.0000300
  N        2.0492790    -0.4487200    -0.0000870
  C       -0.1364192    -0.1083411    -0.0000325
  C        0.3504840     1.0933250    -0.0000620
  C        1.7415550     0.8590090    -0.0000990
  C       -2.4699820     0.3361590     0.0002330
  H       -0.1651650     2.0416990    -0.0000660
  H        0.7745000    -2.0647320    -0.0000170
  H        2.5420040     1.5875080    -0.0001330
  H       -3.4206380    -0.1946080     0.0003100
  H       -2.3886930     0.9604430    -0.8948830
  H       -2.3884390     0.9602630     0.8954520
units angstrom
no_reorient  #important for SAPT in psi4, default
symmetry c1  #important for SAPT in psi4, default
}

set PROPERTIES_ORIGIN ["COM"]
properties('MP2/aug-cc-pvtz', properties = ['dipole'])
--------------------------------------------------------------------------

    Molecular point group: c1
  Charge       = 0
  Multiplicity = 1
  Basis Set: AUG-CC-PVTZ
    Blend: AUG-CC-PVTZ
  Basis Set: (AUG-CC-PVTZ AUX)
    Blend: AUG-CC-PVTZ-JKFIT

    Orbital Energies [Eh]
    ---------------------

    Doubly Occupied:

       1A    -20.600203     2A    -15.629468     3A    -15.588357
       4A    -11.333942     5A    -11.290778     6A    -11.261333
       7A    -11.219023     8A     -1.410261     9A     -1.356940
      10A     -1.090988    11A     -1.072458    12A     -0.945091
      13A     -0.823067    14A     -0.805410    15A     -0.741510
      16A     -0.665570    17A     -0.648213    18A     -0.624350
      19A     -0.604386    20A     -0.596937    21A     -0.582900
      22A     -0.518402    23A     -0.491098    24A     -0.459253
      25A     -0.376107    26A     -0.340925

  @DF-RHF Final Energy:  -338.78470063046359

   => Energetics <=

    Nuclear Repulsion Energy =            295.9883053963308157
    One-Electron Energy =               -1047.3920741979784452
    Two-Electron Energy =                 412.6190681711840398
    Total Energy =                       -338.7847006304635897
  Basis Set: (AUG-CC-PVTZ AUX)
    Blend: AUG-CC-PVTZ-RI
    Molecular point group: c1

    Geometry (in Angstrom), charge = 0, multiplicity = 1:

       Center              X                  Y                   Z               Mass
    ------------   -----------------  -----------------  -----------------  -----------------
         O           -1.519765180103    -0.653654001104    -0.000004145035    15.994914619570
         N            0.777469819897    -1.029908001104    -0.000023145035    14.003074004430
         N            1.990257819897    -0.423998001104    -0.000080145035    14.003074004430
         C           -0.195440380103    -0.083619101104    -0.000025645035    12.000000000000
         C            0.291462819897     1.118046998896    -0.000055145035    12.000000000000
         C            1.682533819897     0.883730998896    -0.000092145035    12.000000000000
         C           -2.529003180103     0.360880998896     0.000239854965    12.000000000000
         H           -0.224186180103     2.066420998896    -0.000059145035     1.007825032230
         H            0.715478819897    -2.040010001104    -0.000010145035     1.007825032230
         H            2.482982819897     1.612229998896    -0.000126145035     1.007825032230
         H           -3.479659180103    -0.169886001104     0.000316854965     1.007825032230
         H           -2.447714180103     0.985164998896    -0.894876145035     1.007825032230
         H           -2.447460180103     0.984984998896     0.895458854965     1.007825032230

  Basis Set: AUG-CC-PVTZ
    Blend: AUG-CC-PVTZ
  Basis Set: (AUG-CC-PVTZ AUX)
    Blend: AUG-CC-PVTZ-JKFIT
	 Reference Energy          =    -338.7847006304635897 [Eh]
	 Singles Energy            =      -0.0000000000000000 [Eh]
	 Same-Spin Energy          =      -0.3531738796553614 [Eh]
	 Opposite-Spin Energy      =      -1.0846881351688891 [Eh]
	 Correlation Energy        =      -1.4378620148242505 [Eh]
	 Total Energy              =    -340.2225626452878373 [Eh]

	 ================> DF-SCS-MP2 Energies <==================
	-----------------------------------------------------------
	 SCS Same-Spin Scale       =       0.3333333333333333 [-]
	 SCS Opposite-Spin Scale   =       1.2000000000000000 [-]
	 SCS Same-Spin Energy      =      -0.1177246265517871 [Eh]
	 SCS Opposite-Spin Energy  =      -1.3016257622026668 [Eh]
	 SCS Correlation Energy    =      -1.4193503887544539 [Eh]
	 SCS Total Energy          =    -340.2040510192180705 [Eh]
	-----------------------------------------------------------

  Dipole Moment: [D]
     X:    -2.6062      Y:     0.8897      Z:     0.0003     Total:     2.7539

*** Psi4 exiting successfully. Buy a developer a beer!
