                               Psi4 1.4a3.dev225

  ==> Input File <==

--------------------------------------------------------------------------
#psi4
#
memory 32 gb

molecule  {
0 1
  O       -1.4607440    -0.6783760    -0.0000110
  N        0.8364910    -1.0546300    -0.0000300
  N        2.0492790    -0.4487200    -0.0000870
  C       -0.2382458    -0.1462366    -0.0000310
  C        0.3504840     1.0933250    -0.0000620
  C        1.7415550     0.8590090    -0.0000990
  C       -2.4699820     0.3361590     0.0002330
  H       -0.1651650     2.0416990    -0.0000660
  H        0.7745000    -2.0647320    -0.0000170
  H        2.5420040     1.5875080    -0.0001330
  H       -3.4206380    -0.1946080     0.0003100
  H       -2.3886930     0.9604430    -0.8948830
  H       -2.3884390     0.9602630     0.8954520
units angstrom
no_reorient  #important for SAPT in psi4, default
symmetry c1  #important for SAPT in psi4, default
}

set PROPERTIES_ORIGIN ["COM"]
properties('MP2/aug-cc-pvtz', properties = ['dipole'])
--------------------------------------------------------------------------

    Molecular point group: c1
  Charge       = 0
  Multiplicity = 1
  Basis Set: AUG-CC-PVTZ
    Blend: AUG-CC-PVTZ
  Basis Set: (AUG-CC-PVTZ AUX)
    Blend: AUG-CC-PVTZ-JKFIT

    Orbital Energies [Eh]
    ---------------------

    Doubly Occupied:

       1A    -20.617631     2A    -15.624500     3A    -15.583465
       4A    -11.344176     5A    -11.302502     6A    -11.255762
       7A    -11.221028     8A     -1.450998     9A     -1.347080
      10A     -1.080832    11A     -1.050610    12A     -0.965986
      13A     -0.816923    14A     -0.792048    15A     -0.756655
      16A     -0.684283    17A     -0.654654    18A     -0.630547
      19A     -0.593304    20A     -0.589301    21A     -0.578525
      22A     -0.535162    23A     -0.511454    24A     -0.452789
      25A     -0.364442    26A     -0.323491

  @DF-RHF Final Energy:  -338.79449416859950

   => Energetics <=

    Nuclear Repulsion Energy =            295.5296290378575463
    One-Electron Energy =               -1046.3919471786341546
    Two-Electron Energy =                 412.0678239721770524
    Total Energy =                       -338.7944941685994991
  Basis Set: (AUG-CC-PVTZ AUX)
    Blend: AUG-CC-PVTZ-RI
    Molecular point group: c1

    Geometry (in Angstrom), charge = 0, multiplicity = 1:

       Center              X                  Y                   Z               Mass
    ------------   -----------------  -----------------  -----------------  -----------------
         O           -1.507302722529    -0.649016008075    -0.000004328618    15.994914619570
         N            0.789932277471    -1.025270008075    -0.000023328618    14.003074004430
         N            2.002720277471    -0.419360008075    -0.000080328618    14.003074004430
         C           -0.284804522529    -0.116876608075    -0.000024328618    12.000000000000
         C            0.303925277471     1.122684991925    -0.000055328618    12.000000000000
         C            1.694996277471     0.888368991925    -0.000092328618    12.000000000000
         C           -2.516540722529     0.365518991925     0.000239671382    12.000000000000
         H           -0.211723722529     2.071058991925    -0.000059328618     1.007825032230
         H            0.727941277471    -2.035372008075    -0.000010328618     1.007825032230
         H            2.495445277471     1.616867991925    -0.000126328618     1.007825032230
         H           -3.467196722529    -0.165248008075     0.000316671382     1.007825032230
         H           -2.435251722529     0.989802991925    -0.894876328618     1.007825032230
         H           -2.434997722529     0.989622991925     0.895458671382     1.007825032230

  Basis Set: AUG-CC-PVTZ
    Blend: AUG-CC-PVTZ
  Basis Set: (AUG-CC-PVTZ AUX)
    Blend: AUG-CC-PVTZ-JKFIT
	 Reference Energy          =    -338.7944941685994991 [Eh]
	 Singles Energy            =      -0.0000000000000000 [Eh]
	 Same-Spin Energy          =      -0.3537906304752778 [Eh]
	 Opposite-Spin Energy      =      -1.0846356309218896 [Eh]
	 Correlation Energy        =      -1.4384262613971674 [Eh]
	 Total Energy              =    -340.2329204299966818 [Eh]

	 ================> DF-SCS-MP2 Energies <==================
	-----------------------------------------------------------
	 SCS Same-Spin Scale       =       0.3333333333333333 [-]
	 SCS Opposite-Spin Scale   =       1.2000000000000000 [-]
	 SCS Same-Spin Energy      =      -0.1179302101584259 [Eh]
	 SCS Opposite-Spin Energy  =      -1.3015627571062676 [Eh]
	 SCS Correlation Energy    =      -1.4194929672646934 [Eh]
	 SCS Total Energy          =    -340.2139871358642154 [Eh]
	-----------------------------------------------------------

  Dipole Moment: [D]
     X:    -3.3097      Y:     0.7242      Z:     0.0003     Total:     3.3880

*** Psi4 exiting successfully. Buy a developer a beer!
