                               Psi4 1.3.2 release

  ==> Input File <==

--------------------------------------------------------------------------
#psi4
#
memory 32 gb

molecule  {
0 1
  O       -1.4607440    -0.6783760    -0.0000110
  N        0.8364910    -1.0546300    -0.0000300
  N        2.0492790    -0.4487200    -0.0000870
  C       -0.2000590    -0.1785130    -0.0000310
  C        0.3504840     1.0933250    -0.0000620
  C        1.9387767     0.8257884    -0.0001042
  C       -2.4699820     0.3361590     0.0002330
  H       -0.1651650     2.0416990    -0.0000660
  H        0.7745000    -2.0647320    -0.0000170
  H        2.5420040     1.5875080    -0.0001330
  H       -3.4206380    -0.1946080     0.0003100
  H       -2.3886930     0.9604430    -0.8948830
  H       -2.3884390     0.9602630     0.8954520
units angstrom
no_reorient  #important for SAPT in psi4, default
symmetry c1  #important for SAPT in psi4, default
}

set PROPERTIES_ORIGIN ["COM"]
properties('MP2/aug-cc-pvtz', properties = ['dipole'])
--------------------------------------------------------------------------

    Molecular point group: c1
  Charge       = 0
  Multiplicity = 1
  Basis Set: AUG-CC-PVTZ
    Blend: AUG-CC-PVTZ
  Basis Set: (AUG-CC-PVTZ AUX)
    Blend: AUG-CC-PVTZ-JKFIT

    Orbital Energies [Eh]
    ---------------------

    Doubly Occupied:

       1A    -20.611104     2A    -15.626378     3A    -15.591161
       4A    -11.339946     5A    -11.296905     6A    -11.265412
       7A    -11.222943     8A     -1.437238     9A     -1.357032
      10A     -1.112625    11A     -1.021115    12A     -0.959517
      13A     -0.834430    14A     -0.796439    15A     -0.749278
      16A     -0.676152    17A     -0.666286    18A     -0.645642
      19A     -0.598857    20A     -0.594443    21A     -0.571620
      22A     -0.527759    23A     -0.506637    24A     -0.423692
      25A     -0.365856    26A     -0.325444

  @DF-RHF Final Energy:  -338.76462681758824

   => Energetics <=

    Nuclear Repulsion Energy =            293.5824022378654377
    One-Electron Energy =               -1042.4462386009965940
    Two-Electron Energy =                 410.0992095455429762
    Total Energy =                       -338.7646268175882369
  Basis Set: (AUG-CC-PVTZ AUX)
    Blend: AUG-CC-PVTZ-RI
    Molecular point group: c1

    Geometry (in Angstrom), charge = 0, multiplicity = 1:

       Center              X                  Y                   Z               Mass
    ------------   -----------------  -----------------  -----------------  -----------------
         O           -1.536114137658    -0.640999894567    -0.000003692195    15.994914619570
         N            0.761120862342    -1.017253894567    -0.000022692195    14.003074004430
         N            1.973908862342    -0.411343894567    -0.000079692195    14.003074004430
         C           -0.275429137658    -0.141136894567    -0.000023692195    12.000000000000
         C            0.275113862342     1.130701105433    -0.000054692195    12.000000000000
         C            1.863406562342     0.863164505433    -0.000096892195    12.000000000000
         C           -2.545352137658     0.373535105433     0.000240307805    12.000000000000
         H           -0.240535137658     2.079075105433    -0.000058692195     1.007825032230
         H            0.699129862342    -2.027355894567    -0.000009692195     1.007825032230
         H            2.466633862342     1.624884105433    -0.000125692195     1.007825032230
         H           -3.496008137658    -0.157231894567     0.000317307805     1.007825032230
         H           -2.464063137658     0.997819105433    -0.894875692195     1.007825032230
         H           -2.463809137658     0.997639105433     0.895459307805     1.007825032230

  Basis Set: AUG-CC-PVTZ
    Blend: AUG-CC-PVTZ
  Basis Set: (AUG-CC-PVTZ AUX)
    Blend: AUG-CC-PVTZ-JKFIT
	 Reference Energy          =    -338.7646268175882369 [Eh]
	 Singles Energy            =      -0.0000000000000000 [Eh]
	 Same-Spin Energy          =      -0.3504984392725355 [Eh]
	 Opposite-Spin Energy      =      -1.0814053203668692 [Eh]
	 Correlation Energy        =      -1.4319037596394046 [Eh]
	 Total Energy              =    -340.1965305772276338 [Eh]

	 ================> DF-SCS-MP2 Energies <==================
	-----------------------------------------------------------
	 SCS Same-Spin Scale       =       0.3333333333333333 [-]
	 SCS Opposite-Spin Scale   =       1.2000000000000000 [-]
	 SCS Same-Spin Energy      =      -0.1168328130908452 [Eh]
	 SCS Opposite-Spin Energy  =      -1.2976863844402431 [Eh]
	 SCS Correlation Energy    =      -1.4145191975310882 [Eh]
	 SCS Total Energy          =    -340.1791460151193291 [Eh]
	-----------------------------------------------------------

  Dipole Moment: [D]
     X:    -2.6885      Y:     0.6348      Z:     0.0003     Total:     2.7625

*** Psi4 exiting successfully. Buy a developer a beer!
