                               Psi4 1.4a3.dev225

  ==> Input File <==

--------------------------------------------------------------------------
#psi4
#
memory 32 gb

molecule  {
0 1
  O       -1.4607440    -0.6783760    -0.0000110
  N        0.8364910    -1.0546300    -0.0000300
  N        2.0492790    -0.4487200    -0.0000870
  C       -0.2000590    -0.1785130    -0.0000310
  C        0.3504840     1.0933250    -0.0000620
  C        1.7612772     0.8556869    -0.0000995
  C       -2.4699820     0.3361590     0.0002330
  H       -0.1651650     2.0416990    -0.0000660
  H        0.7745000    -2.0647320    -0.0000170
  H        2.5420040     1.5875080    -0.0001330
  H       -3.4206380    -0.1946080     0.0003100
  H       -2.3886930     0.9604430    -0.8948830
  H       -2.3884390     0.9602630     0.8954520
units angstrom
no_reorient  #important for SAPT in psi4, default
symmetry c1  #important for SAPT in psi4, default
}

set PROPERTIES_ORIGIN ["COM"]
properties('MP2/aug-cc-pvtz', properties = ['dipole'])
--------------------------------------------------------------------------

    Molecular point group: c1
  Charge       = 0
  Multiplicity = 1
  Basis Set: AUG-CC-PVTZ
    Blend: AUG-CC-PVTZ
  Basis Set: (AUG-CC-PVTZ AUX)
    Blend: AUG-CC-PVTZ-JKFIT

    Orbital Energies [Eh]
    ---------------------

    Doubly Occupied:

       1A    -20.612421     2A    -15.629789     3A    -15.581904
       4A    -11.342674     5A    -11.299845     6A    -11.258053
       7A    -11.220804     8A     -1.439673     9A     -1.356422
      10A     -1.093180    11A     -1.045213    12A     -0.961424
      13A     -0.817800    14A     -0.800556    15A     -0.754562
      16A     -0.679166    17A     -0.649733    18A     -0.626461
      19A     -0.599645    20A     -0.596435    21A     -0.583954
      22A     -0.528098    23A     -0.506673    24A     -0.451968
      25A     -0.364521    26A     -0.327169

  @DF-RHF Final Energy:  -338.80000548154544

   => Energetics <=

    Nuclear Repulsion Energy =            295.4838887372284262
    One-Electron Energy =               -1046.3115081731764349
    Two-Electron Energy =                 412.0276139544025682
    Total Energy =                       -338.8000054815454405
  Basis Set: (AUG-CC-PVTZ AUX)
    Blend: AUG-CC-PVTZ-RI
    Molecular point group: c1

    Geometry (in Angstrom), charge = 0, multiplicity = 1:

       Center              X                  Y                   Z               Mass
    ------------   -----------------  -----------------  -----------------  -----------------
         O           -1.514390148169    -0.644659142620    -0.000004267424    15.994914619570
         N            0.782844851831    -1.020913142620    -0.000023267424    14.003074004430
         N            1.995632851831    -0.415003142620    -0.000080267424    14.003074004430
         C           -0.253705148169    -0.144796142620    -0.000024267424    12.000000000000
         C            0.296837851831     1.127041857380    -0.000055267424    12.000000000000
         C            1.707631051831     0.889403757380    -0.000092767424    12.000000000000
         C           -2.523628148169     0.369875857380     0.000239732576    12.000000000000
         H           -0.218811148169     2.075415857380    -0.000059267424     1.007825032230
         H            0.720853851831    -2.031015142620    -0.000010267424     1.007825032230
         H            2.488357851831     1.621224857380    -0.000126267424     1.007825032230
         H           -3.474284148169    -0.160891142620     0.000316732576     1.007825032230
         H           -2.442339148169     0.994159857380    -0.894876267424     1.007825032230
         H           -2.442085148169     0.993979857380     0.895458732576     1.007825032230

  Basis Set: AUG-CC-PVTZ
    Blend: AUG-CC-PVTZ
  Basis Set: (AUG-CC-PVTZ AUX)
    Blend: AUG-CC-PVTZ-JKFIT
	 Reference Energy          =    -338.8000054815454405 [Eh]
	 Singles Energy            =      -0.0000000000000000 [Eh]
	 Same-Spin Energy          =      -0.3528546854006595 [Eh]
	 Opposite-Spin Energy      =      -1.0828469567047248 [Eh]
	 Correlation Energy        =      -1.4357016421053843 [Eh]
	 Total Energy              =    -340.2357071236507977 [Eh]

	 ================> DF-SCS-MP2 Energies <==================
	-----------------------------------------------------------
	 SCS Same-Spin Scale       =       0.3333333333333333 [-]
	 SCS Opposite-Spin Scale   =       1.2000000000000000 [-]
	 SCS Same-Spin Energy      =      -0.1176182284668865 [Eh]
	 SCS Opposite-Spin Energy  =      -1.2994163480456697 [Eh]
	 SCS Correlation Energy    =      -1.4170345765125563 [Eh]
	 SCS Total Energy          =    -340.2170400580579894 [Eh]
	-----------------------------------------------------------

  Dipole Moment: [D]
     X:    -3.0891      Y:     0.6490      Z:     0.0003     Total:     3.1565

*** Psi4 exiting successfully. Buy a developer a beer!
