                               Psi4 1.3.2 release

  ==> Input File <==

--------------------------------------------------------------------------
#psi4
#
memory 32 gb

molecule  {
0 1
  O       -1.4607440    -0.6783760    -0.0000110
  N        0.8364910    -1.0546300    -0.0000300
  N        2.0720552    -0.4431503    -0.0000877
  C       -0.2000590    -0.1785130    -0.0000310
  C        0.3504840     1.0933250    -0.0000620
  C        1.7415550     0.8590090    -0.0000990
  C       -2.4699820     0.3361590     0.0002330
  H       -0.1651650     2.0416990    -0.0000660
  H        0.7745000    -2.0647320    -0.0000170
  H        2.5420040     1.5875080    -0.0001330
  H       -3.4206380    -0.1946080     0.0003100
  H       -2.3886930     0.9604430    -0.8948830
  H       -2.3884390     0.9602630     0.8954520
units angstrom
no_reorient  #important for SAPT in psi4, default
symmetry c1  #important for SAPT in psi4, default
}

set PROPERTIES_ORIGIN ["COM"]
properties('MP2/aug-cc-pvtz', properties = ['dipole'])
--------------------------------------------------------------------------

    Molecular point group: c1
  Charge       = 0
  Multiplicity = 1
  Basis Set: AUG-CC-PVTZ
    Blend: AUG-CC-PVTZ
  Basis Set: (AUG-CC-PVTZ AUX)
    Blend: AUG-CC-PVTZ-JKFIT

    Orbital Energies [Eh]
    ---------------------

    Doubly Occupied:

       1A    -20.613919     2A    -15.628476     3A    -15.582873
       4A    -11.345413     5A    -11.300839     6A    -11.259220
       7A    -11.220313     8A     -1.440456     9A     -1.348026
      10A     -1.092580    11A     -1.046796    12A     -0.962639
      13A     -0.817058    14A     -0.796776    15A     -0.755340
      16A     -0.679869    17A     -0.650150    18A     -0.623803
      19A     -0.597881    20A     -0.596646    21A     -0.577937
      22A     -0.528243    23A     -0.506593    24A     -0.457021
      25A     -0.366794    26A     -0.327538

  @DF-RHF Final Energy:  -338.79824729787191

   => Energetics <=

    Nuclear Repulsion Energy =            295.1440487505026340
    One-Electron Energy =               -1045.6381936530985968
    Two-Electron Energy =                 411.6958976047240526
    Total Energy =                       -338.7982472978719102
  Basis Set: (AUG-CC-PVTZ AUX)
    Blend: AUG-CC-PVTZ-RI
    Molecular point group: c1

    Geometry (in Angstrom), charge = 0, multiplicity = 1:

       Center              X                  Y                   Z               Mass
    ------------   -----------------  -----------------  -----------------  -----------------
         O           -1.515229231101    -0.645861187596    -0.000004228645    15.994914619570
         N            0.782005768899    -1.022115187596    -0.000023228645    14.003074004430
         N            2.017569968899    -0.410635487596    -0.000080928645    14.003074004430
         C           -0.254544231101    -0.145998187596    -0.000024228645    12.000000000000
         C            0.295998768899     1.125839812404    -0.000055228645    12.000000000000
         C            1.687069768899     0.891523812404    -0.000092228645    12.000000000000
         C           -2.524467231101     0.368673812404     0.000239771355    12.000000000000
         H           -0.219650231101     2.074213812404    -0.000059228645     1.007825032230
         H            0.720014768899    -2.032217187596    -0.000010228645     1.007825032230
         H            2.487518768899     1.620022812404    -0.000126228645     1.007825032230
         H           -3.475123231101    -0.162093187596     0.000316771355     1.007825032230
         H           -2.443178231101     0.992957812404    -0.894876228645     1.007825032230
         H           -2.442924231101     0.992777812404     0.895458771355     1.007825032230

  Basis Set: AUG-CC-PVTZ
    Blend: AUG-CC-PVTZ
  Basis Set: (AUG-CC-PVTZ AUX)
    Blend: AUG-CC-PVTZ-JKFIT
	 Reference Energy          =    -338.7982472978719102 [Eh]
	 Singles Energy            =      -0.0000000000000000 [Eh]
	 Same-Spin Energy          =      -0.3531435234225249 [Eh]
	 Opposite-Spin Energy      =      -1.0838076026396146 [Eh]
	 Correlation Energy        =      -1.4369511260621395 [Eh]
	 Total Energy              =    -340.2351984239340368 [Eh]

	 ================> DF-SCS-MP2 Energies <==================
	-----------------------------------------------------------
	 SCS Same-Spin Scale       =       0.3333333333333333 [-]
	 SCS Opposite-Spin Scale   =       1.2000000000000000 [-]
	 SCS Same-Spin Energy      =      -0.1177145078075083 [Eh]
	 SCS Opposite-Spin Energy  =      -1.3005691231675376 [Eh]
	 SCS Correlation Energy    =      -1.4182836309750460 [Eh]
	 SCS Total Energy          =    -340.2165309288469643 [Eh]
	-----------------------------------------------------------

  Dipole Moment: [D]
     X:    -3.1651      Y:     0.6737      Z:     0.0003     Total:     3.2361

*** Psi4 exiting successfully. Buy a developer a beer!
