                               Psi4 1.3.2 release

  ==> Input File <==

--------------------------------------------------------------------------
#psi4
#
memory 32 gb

molecule  {
0 1
  O       -1.4607440    -0.6783760    -0.0000110
  N        0.8364910    -1.0546300    -0.0000300
  N        2.0492790    -0.4487200    -0.0000870
  C       -0.2000590    -0.1785130    -0.0000310
  C        0.3504840     1.0933250    -0.0000620
  C        1.6957439     1.0536917    -0.0001008
  C       -2.4699820     0.3361590     0.0002330
  H       -0.1651650     2.0416990    -0.0000660
  H        0.7745000    -2.0647320    -0.0000170
  H        2.5420040     1.5875080    -0.0001330
  H       -3.4206380    -0.1946080     0.0003100
  H       -2.3886930     0.9604430    -0.8948830
  H       -2.3884390     0.9602630     0.8954520
units angstrom
no_reorient  #important for SAPT in psi4, default
symmetry c1  #important for SAPT in psi4, default
}

set PROPERTIES_ORIGIN ["COM"]
properties('MP2/aug-cc-pvtz', properties = ['dipole'])
--------------------------------------------------------------------------

    Molecular point group: c1
  Charge       = 0
  Multiplicity = 1
  Basis Set: AUG-CC-PVTZ
    Blend: AUG-CC-PVTZ
  Basis Set: (AUG-CC-PVTZ AUX)
    Blend: AUG-CC-PVTZ-JKFIT

    Orbital Energies [Eh]
    ---------------------

    Doubly Occupied:

       1A    -20.612768     2A    -15.646105     3A    -15.583528
       4A    -11.341186     5A    -11.301242     6A    -11.262261
       7A    -11.227989     8A     -1.439826     9A     -1.338002
      10A     -1.076648    11A     -1.044912    12A     -0.955306
      13A     -0.844077    14A     -0.799812    15A     -0.754349
      16A     -0.680228    17A     -0.662396    18A     -0.623814
      19A     -0.612867    20A     -0.591865    21A     -0.567898
      22A     -0.533097    23A     -0.502918    24A     -0.431413
      25A     -0.380397    26A     -0.297588

  @DF-RHF Final Energy:  -338.74518444174646

   => Energetics <=

    Nuclear Repulsion Energy =            293.4653999192832430
    One-Electron Energy =               -1042.1961823450603788
    Two-Electron Energy =                 409.9855979840306190
    Total Energy =                       -338.7451844417464599
  Basis Set: (AUG-CC-PVTZ AUX)
    Blend: AUG-CC-PVTZ-RI
    Molecular point group: c1

    Geometry (in Angstrom), charge = 0, multiplicity = 1:

       Center              X                  Y                   Z               Mass
    ------------   -----------------  -----------------  -----------------  -----------------
         O           -1.506369591940    -0.668892755639    -0.000004108318    15.994914619570
         N            0.790865408060    -1.045146755639    -0.000023108318    14.003074004430
         N            2.003653408060    -0.439236755639    -0.000080108318    14.003074004430
         C           -0.245684591940    -0.169029755639    -0.000024108318    12.000000000000
         C            0.304858408060     1.102808244361    -0.000055108318    12.000000000000
         C            1.650118308060     1.063174944361    -0.000093908318    12.000000000000
         C           -2.515607591940     0.345642244361     0.000239891682    12.000000000000
         H           -0.210790591940     2.051182244361    -0.000059108318     1.007825032230
         H            0.728874408060    -2.055248755639    -0.000010108318     1.007825032230
         H            2.496378408060     1.596991244361    -0.000126108318     1.007825032230
         H           -3.466263591940    -0.185124755639     0.000316891682     1.007825032230
         H           -2.434318591940     0.969926244361    -0.894876108318     1.007825032230
         H           -2.434064591940     0.969746244361     0.895458891682     1.007825032230

  Basis Set: AUG-CC-PVTZ
    Blend: AUG-CC-PVTZ
  Basis Set: (AUG-CC-PVTZ AUX)
    Blend: AUG-CC-PVTZ-JKFIT
	 Reference Energy          =    -338.7451844417464599 [Eh]
	 Singles Energy            =      -0.0000000000000000 [Eh]
	 Same-Spin Energy          =      -0.3595407462951421 [Eh]
	 Opposite-Spin Energy      =      -1.0957861301663119 [Eh]
	 Correlation Energy        =      -1.4553268764614540 [Eh]
	 Total Energy              =    -340.2005113182079299 [Eh]

	 ================> DF-SCS-MP2 Energies <==================
	-----------------------------------------------------------
	 SCS Same-Spin Scale       =       0.3333333333333333 [-]
	 SCS Opposite-Spin Scale   =       1.2000000000000000 [-]
	 SCS Same-Spin Energy      =      -0.1198469154317140 [Eh]
	 SCS Opposite-Spin Energy  =      -1.3149433561995743 [Eh]
	 SCS Correlation Energy    =      -1.4347902716312884 [Eh]
	 SCS Total Energy          =    -340.1799747133777601 [Eh]
	-----------------------------------------------------------

  Dipole Moment: [D]
     X:    -3.2408      Y:     0.6201      Z:     0.0003     Total:     3.2996

*** Psi4 exiting successfully. Buy a developer a beer!
