                               Psi4 1.3.2 release

  ==> Input File <==

--------------------------------------------------------------------------
#psi4
#
memory 32 gb

molecule  {
0 1
  O       -1.4607440    -0.6783760    -0.0000110
  N        0.8364910    -1.0546300    -0.0000300
  N        2.0492790    -0.4487200    -0.0000870
  C       -0.2000590    -0.1785130    -0.0000310
  C        0.3504840     1.0933250    -0.0000620
  C        1.7873661     0.6643263    -0.0000972
  C       -2.4699820     0.3361590     0.0002330
  H       -0.1651650     2.0416990    -0.0000660
  H        0.7745000    -2.0647320    -0.0000170
  H        2.5420040     1.5875080    -0.0001330
  H       -3.4206380    -0.1946080     0.0003100
  H       -2.3886930     0.9604430    -0.8948830
  H       -2.3884390     0.9602630     0.8954520
units angstrom
no_reorient  #important for SAPT in psi4, default
symmetry c1  #important for SAPT in psi4, default
}

set PROPERTIES_ORIGIN ["COM"]
properties('MP2/aug-cc-pvtz', properties = ['dipole'])
--------------------------------------------------------------------------

    Molecular point group: c1
  Charge       = 0
  Multiplicity = 1
  Basis Set: AUG-CC-PVTZ
    Blend: AUG-CC-PVTZ
  Basis Set: (AUG-CC-PVTZ AUX)
    Blend: AUG-CC-PVTZ-JKFIT

    Orbital Energies [Eh]
    ---------------------

    Doubly Occupied:

       1A    -20.612225     2A    -15.618883     3A    -15.569871
       4A    -11.344193     5A    -11.298889     6A    -11.252349
       7A    -11.215874     8A     -1.443351     9A     -1.396705
      10A     -1.141179    11A     -1.034413    12A     -0.966184
      13A     -0.807548    14A     -0.786353    15A     -0.760384
      16A     -0.680287    17A     -0.648826    18A     -0.638338
      19A     -0.619968    20A     -0.592138    21A     -0.571511
      22A     -0.529343    23A     -0.514298    24A     -0.429325
      25A     -0.386598    26A     -0.333680

  @DF-RHF Final Energy:  -338.75037543887822

   => Energetics <=

    Nuclear Repulsion Energy =            298.5190257738786954
    One-Electron Energy =               -1052.1533745751848983
    Two-Electron Energy =                 414.8839733624280370
    Total Energy =                       -338.7503754388782227
  Basis Set: (AUG-CC-PVTZ AUX)
    Blend: AUG-CC-PVTZ-RI
    Molecular point group: c1

    Geometry (in Angstrom), charge = 0, multiplicity = 1:

       Center              X                  Y                   Z               Mass
    ------------   -----------------  -----------------  -----------------  -----------------
         O           -1.517583143019    -0.621238706714    -0.000004548918    15.994914619570
         N            0.779651856981    -0.997492706714    -0.000023548918    14.003074004430
         N            1.992439856981    -0.391582706714    -0.000080548918    14.003074004430
         C           -0.256898143019    -0.121375706714    -0.000024548918    12.000000000000
         C            0.293644856981     1.150462293286    -0.000055548918    12.000000000000
         C            1.730526956981     0.721463593286    -0.000090748918    12.000000000000
         C           -2.526821143019     0.393296293286     0.000239451082    12.000000000000
         H           -0.222004143019     2.098836293286    -0.000059548918     1.007825032230
         H            0.717660856981    -2.007594706714    -0.000010548918     1.007825032230
         H            2.485164856981     1.644645293286    -0.000126548918     1.007825032230
         H           -3.477477143019    -0.137470706714     0.000316451082     1.007825032230
         H           -2.445532143019     1.017580293286    -0.894876548918     1.007825032230
         H           -2.445278143019     1.017400293286     0.895458451082     1.007825032230

  Basis Set: AUG-CC-PVTZ
    Blend: AUG-CC-PVTZ
  Basis Set: (AUG-CC-PVTZ AUX)
    Blend: AUG-CC-PVTZ-JKFIT
	 Reference Energy          =    -338.7503754388782227 [Eh]
	 Singles Energy            =      -0.0000000000000000 [Eh]
	 Same-Spin Energy          =      -0.3485704155596452 [Eh]
	 Opposite-Spin Energy      =      -1.0750634619820538 [Eh]
	 Correlation Energy        =      -1.4236338775416990 [Eh]
	 Total Energy              =    -340.1740093164199266 [Eh]

	 ================> DF-SCS-MP2 Energies <==================
	-----------------------------------------------------------
	 SCS Same-Spin Scale       =       0.3333333333333333 [-]
	 SCS Opposite-Spin Scale   =       1.2000000000000000 [-]
	 SCS Same-Spin Energy      =      -0.1161901385198817 [Eh]
	 SCS Opposite-Spin Energy  =      -1.2900761543784645 [Eh]
	 SCS Correlation Energy    =      -1.4062662928983463 [Eh]
	 SCS Total Energy          =    -340.1566417317765740 [Eh]
	-----------------------------------------------------------

  Dipole Moment: [D]
     X:    -2.8814      Y:     0.5313      Z:     0.0003     Total:     2.9300

*** Psi4 exiting successfully. Buy a developer a beer!
