                               Psi4 1.3.2 release

  ==> Input File <==

--------------------------------------------------------------------------
#psi4
#
memory 32 gb

molecule  {
0 1
  O       -1.4607440    -0.6783760    -0.0000110
  N        0.8364910    -1.0546300    -0.0000300
  N        2.0492790    -0.4487200    -0.0000870
  C       -0.2000590    -0.1785130    -0.0000310
  C        0.3825971     1.2374479    -0.0000651
  C        1.7415550     0.8590090    -0.0000990
  C       -2.4699820     0.3361590     0.0002330
  H       -0.1651650     2.0416990    -0.0000660
  H        0.7745000    -2.0647320    -0.0000170
  H        2.5420040     1.5875080    -0.0001330
  H       -3.4206380    -0.1946080     0.0003100
  H       -2.3886930     0.9604430    -0.8948830
  H       -2.3884390     0.9602630     0.8954520
units angstrom
no_reorient  #important for SAPT in psi4, default
symmetry c1  #important for SAPT in psi4, default
}

set PROPERTIES_ORIGIN ["COM"]
properties('MP2/aug-cc-pvtz', properties = ['dipole'])
--------------------------------------------------------------------------

    Molecular point group: c1
  Charge       = 0
  Multiplicity = 1
  Basis Set: AUG-CC-PVTZ
    Blend: AUG-CC-PVTZ
  Basis Set: (AUG-CC-PVTZ AUX)
    Blend: AUG-CC-PVTZ-JKFIT

    Orbital Energies [Eh]
    ---------------------

    Doubly Occupied:

       1A    -20.617705     2A    -15.639835     3A    -15.574486
       4A    -11.361742     5A    -11.302728     6A    -11.261471
       7A    -11.227662     8A     -1.442965     9A     -1.353991
      10A     -1.093579    11A     -1.032360    12A     -0.962648
      13A     -0.825914    14A     -0.804028    15A     -0.755206
      16A     -0.680122    17A     -0.666077    18A     -0.633361
      19A     -0.606728    20A     -0.597630    21A     -0.570346
      22A     -0.513274    23A     -0.509202    24A     -0.453815
      25A     -0.370535    26A     -0.311762

  @DF-RHF Final Energy:  -338.76879264539951

   => Energetics <=

    Nuclear Repulsion Energy =            293.1567643436350181
    One-Electron Energy =               -1041.5127724305914398
    Two-Electron Energy =                 409.5872154415569071
    Total Energy =                       -338.7687926453995146
  Basis Set: (AUG-CC-PVTZ AUX)
    Blend: AUG-CC-PVTZ-RI
    Molecular point group: c1

    Geometry (in Angstrom), charge = 0, multiplicity = 1:

       Center              X                  Y                   Z               Mass
    ------------   -----------------  -----------------  -----------------  -----------------
         O           -1.515906658251    -0.662704791369    -0.000003949212    15.994914619570
         N            0.781328341749    -1.038958791369    -0.000022949212    14.003074004430
         N            1.994116341749    -0.433048791369    -0.000079949212    14.003074004430
         C           -0.255221658251    -0.162841791369    -0.000023949212    12.000000000000
         C            0.327434441749     1.253119108631    -0.000058049212    12.000000000000
         C            1.686392341749     0.874680208631    -0.000091949212    12.000000000000
         C           -2.525144658251     0.351830208631     0.000240050788    12.000000000000
         H           -0.220327658251     2.057370208631    -0.000058949212     1.007825032230
         H            0.719337341749    -2.049060791369    -0.000009949212     1.007825032230
         H            2.486841341749     1.603179208631    -0.000125949212     1.007825032230
         H           -3.475800658251    -0.178936791369     0.000317050788     1.007825032230
         H           -2.443855658251     0.976114208631    -0.894875949212     1.007825032230
         H           -2.443601658251     0.975934208631     0.895459050788     1.007825032230

  Basis Set: AUG-CC-PVTZ
    Blend: AUG-CC-PVTZ
  Basis Set: (AUG-CC-PVTZ AUX)
    Blend: AUG-CC-PVTZ-JKFIT
	 Reference Energy          =    -338.7687926453995146 [Eh]
	 Singles Energy            =      -0.0000000000000000 [Eh]
	 Same-Spin Energy          =      -0.3539670235534077 [Eh]
	 Opposite-Spin Energy      =      -1.0856494395801259 [Eh]
	 Correlation Energy        =      -1.4396164631335338 [Eh]
	 Total Energy              =    -340.2084091085330328 [Eh]

	 ================> DF-SCS-MP2 Energies <==================
	-----------------------------------------------------------
	 SCS Same-Spin Scale       =       0.3333333333333333 [-]
	 SCS Opposite-Spin Scale   =       1.2000000000000000 [-]
	 SCS Same-Spin Energy      =      -0.1179890078511359 [Eh]
	 SCS Opposite-Spin Energy  =      -1.3027793274961510 [Eh]
	 SCS Correlation Energy    =      -1.4207683353472869 [Eh]
	 SCS Total Energy          =    -340.1895609807468190 [Eh]
	-----------------------------------------------------------

  Dipole Moment: [D]
     X:    -3.2492      Y:     0.4396      Z:     0.0004     Total:     3.2788

*** Psi4 exiting successfully. Buy a developer a beer!
