                               Psi4 1.3.2 release

  ==> Input File <==

--------------------------------------------------------------------------
#psi4
#
memory 32 gb

molecule  {
0 1
  O       -1.4607440    -0.6783760    -0.0000110
  N        0.8364910    -1.0546300    -0.0000300
  N        2.0492790    -0.4487200    -0.0000870
  C       -0.2000590    -0.1785130    -0.0000310
  C        0.3504840     1.0933250    -0.0000620
  C        1.7584273     1.0056991    -0.0001025
  C       -2.4699820     0.3361590     0.0002330
  H       -0.1651650     2.0416990    -0.0000660
  H        0.7745000    -2.0647320    -0.0000170
  H        2.5420040     1.5875080    -0.0001330
  H       -3.4206380    -0.1946080     0.0003100
  H       -2.3886930     0.9604430    -0.8948830
  H       -2.3884390     0.9602630     0.8954520
units angstrom
no_reorient  #important for SAPT in psi4, default
symmetry c1  #important for SAPT in psi4, default
}

set PROPERTIES_ORIGIN ["COM"]
properties('MP2/aug-cc-pvtz', properties = ['dipole'])
--------------------------------------------------------------------------

    Molecular point group: c1
  Charge       = 0
  Multiplicity = 1
  Basis Set: AUG-CC-PVTZ
    Blend: AUG-CC-PVTZ
  Basis Set: (AUG-CC-PVTZ AUX)
    Blend: AUG-CC-PVTZ-JKFIT

    Orbital Energies [Eh]
    ---------------------

    Doubly Occupied:

       1A    -20.612713     2A    -15.641265     3A    -15.588213
       4A    -11.341505     5A    -11.300420     6A    -11.263619
       7A    -11.228996     8A     -1.439464     9A     -1.340697
      10A     -1.071979    11A     -1.045748    12A     -0.957215
      13A     -0.841875    14A     -0.800214    15A     -0.753392
      16A     -0.679438    17A     -0.658626    18A     -0.618045
      19A     -0.615489    20A     -0.592406    21A     -0.578510
      22A     -0.532272    23A     -0.503418    24A     -0.438271
      25A     -0.367832    26A     -0.308395

  @DF-RHF Final Energy:  -338.76060302198164

   => Energetics <=

    Nuclear Repulsion Energy =            293.2695084160928332
    One-Electron Energy =               -1041.8201900056903924
    Two-Electron Energy =                 409.7900785676159785
    Total Energy =                       -338.7606030219816375
  Basis Set: (AUG-CC-PVTZ AUX)
    Blend: AUG-CC-PVTZ-RI
    Molecular point group: c1

    Geometry (in Angstrom), charge = 0, multiplicity = 1:

       Center              X                  Y                   Z               Mass
    ------------   -----------------  -----------------  -----------------  -----------------
         O           -1.514041351707    -0.663018988456    -0.000003900257    15.994914619570
         N            0.783193648293    -1.039272988456    -0.000022900257    14.003074004430
         N            1.995981648293    -0.433362988456    -0.000079900257    14.003074004430
         C           -0.253356351707    -0.163155988456    -0.000023900257    12.000000000000
         C            0.297186648293     1.108682011544    -0.000054900257    12.000000000000
         C            1.705129948293     1.021056111544    -0.000095400257    12.000000000000
         C           -2.523279351707     0.351516011544     0.000240099743    12.000000000000
         H           -0.218462351707     2.057056011544    -0.000058900257     1.007825032230
         H            0.721202648293    -2.049374988456    -0.000009900257     1.007825032230
         H            2.488706648293     1.602865011544    -0.000125900257     1.007825032230
         H           -3.473935351707    -0.179250988456     0.000317099743     1.007825032230
         H           -2.441990351707     0.975800011544    -0.894875900257     1.007825032230
         H           -2.441736351707     0.975620011544     0.895459099743     1.007825032230

  Basis Set: AUG-CC-PVTZ
    Blend: AUG-CC-PVTZ
  Basis Set: (AUG-CC-PVTZ AUX)
    Blend: AUG-CC-PVTZ-JKFIT
	 Reference Energy          =    -338.7606030219816375 [Eh]
	 Singles Energy            =      -0.0000000000000000 [Eh]
	 Same-Spin Energy          =      -0.3572893642097709 [Eh]
	 Opposite-Spin Energy      =      -1.0919479546550004 [Eh]
	 Correlation Energy        =      -1.4492373188647711 [Eh]
	 Total Energy              =    -340.2098403408464264 [Eh]

	 ================> DF-SCS-MP2 Energies <==================
	-----------------------------------------------------------
	 SCS Same-Spin Scale       =       0.3333333333333333 [-]
	 SCS Opposite-Spin Scale   =       1.2000000000000000 [-]
	 SCS Same-Spin Energy      =      -0.1190964547365903 [Eh]
	 SCS Opposite-Spin Energy  =      -1.3103375455860005 [Eh]
	 SCS Correlation Energy    =      -1.4294340003225907 [Eh]
	 SCS Total Energy          =    -340.1900370223042387 [Eh]
	-----------------------------------------------------------

  Dipole Moment: [D]
     X:    -3.1883      Y:     0.6167      Z:     0.0003     Total:     3.2474

*** Psi4 exiting successfully. Buy a developer a beer!
