                               Psi4 1.3.2 release

  ==> Input File <==

--------------------------------------------------------------------------
#psi4
#
memory 32 gb

molecule  {
0 1
  O       -1.4607440    -0.6783760    -0.0000110
  N        0.8364910    -1.0546300    -0.0000300
  N        2.0040586    -0.3655962    -0.0000886
  C       -0.2000590    -0.1785130    -0.0000310
  C        0.3504840     1.0933250    -0.0000620
  C        1.7415550     0.8590090    -0.0000990
  C       -2.4699820     0.3361590     0.0002330
  H       -0.1651650     2.0416990    -0.0000660
  H        0.7745000    -2.0647320    -0.0000170
  H        2.5420040     1.5875080    -0.0001330
  H       -3.4206380    -0.1946080     0.0003100
  H       -2.3886930     0.9604430    -0.8948830
  H       -2.3884390     0.9602630     0.8954520
units angstrom
no_reorient  #important for SAPT in psi4, default
symmetry c1  #important for SAPT in psi4, default
}

set PROPERTIES_ORIGIN ["COM"]
properties('MP2/aug-cc-pvtz', properties = ['dipole'])
--------------------------------------------------------------------------

    Molecular point group: c1
  Charge       = 0
  Multiplicity = 1
  Basis Set: AUG-CC-PVTZ
    Blend: AUG-CC-PVTZ
  Basis Set: (AUG-CC-PVTZ AUX)
    Blend: AUG-CC-PVTZ-JKFIT

    Orbital Energies [Eh]
    ---------------------

    Doubly Occupied:

       1A    -20.610789     2A    -15.626875     3A    -15.569183
       4A    -11.340317     5A    -11.298082     6A    -11.244969
       7A    -11.212753     8A     -1.439057     9A     -1.367988
      10A     -1.115877    11A     -1.039357    12A     -0.962029
      13A     -0.817815    14A     -0.799994    15A     -0.755083
      16A     -0.678257    17A     -0.651886    18A     -0.631376
      19A     -0.605323    20A     -0.602690    21A     -0.583870
      22A     -0.526863    23A     -0.507730    24A     -0.437812
      25A     -0.374596    26A     -0.328226

  @DF-RHF Final Energy:  -338.79881826433609

   => Energetics <=

    Nuclear Repulsion Energy =            297.7820118228482897
    One-Electron Energy =               -1050.9040680784064534
    Two-Electron Energy =                 414.3232379912220722
    Total Energy =                       -338.7988182643360915
  Basis Set: (AUG-CC-PVTZ AUX)
    Blend: AUG-CC-PVTZ-RI
    Molecular point group: c1

    Geometry (in Angstrom), charge = 0, multiplicity = 1:

       Center              X                  Y                   Z               Mass
    ------------   -----------------  -----------------  -----------------  -----------------
         O           -1.505518055990    -0.656937350900    -0.000004100109    15.994914619570
         N            0.791716944010    -1.033191350900    -0.000023100109    14.003074004430
         N            1.959284544010    -0.344157550900    -0.000081700109    14.003074004430
         C           -0.244833055990    -0.157074350900    -0.000024100109    12.000000000000
         C            0.305709944010     1.114763649100    -0.000055100109    12.000000000000
         C            1.696780944010     0.880447649100    -0.000092100109    12.000000000000
         C           -2.514756055990     0.357597649100     0.000239899891    12.000000000000
         H           -0.209939055990     2.063137649100    -0.000059100109     1.007825032230
         H            0.729725944010    -2.043293350900    -0.000010100109     1.007825032230
         H            2.497229944010     1.608946649100    -0.000126100109     1.007825032230
         H           -3.465412055990    -0.173169350900     0.000316899891     1.007825032230
         H           -2.433467055990     0.981881649100    -0.894876100109     1.007825032230
         H           -2.433213055990     0.981701649100     0.895458899891     1.007825032230

  Basis Set: AUG-CC-PVTZ
    Blend: AUG-CC-PVTZ
  Basis Set: (AUG-CC-PVTZ AUX)
    Blend: AUG-CC-PVTZ-JKFIT
	 Reference Energy          =    -338.7988182643360915 [Eh]
	 Singles Energy            =      -0.0000000000000000 [Eh]
	 Same-Spin Energy          =      -0.3509375624816804 [Eh]
	 Opposite-Spin Energy      =      -1.0784698050091135 [Eh]
	 Correlation Energy        =      -1.4294073674907939 [Eh]
	 Total Energy              =    -340.2282256318268878 [Eh]

	 ================> DF-SCS-MP2 Energies <==================
	-----------------------------------------------------------
	 SCS Same-Spin Scale       =       0.3333333333333333 [-]
	 SCS Opposite-Spin Scale   =       1.2000000000000000 [-]
	 SCS Same-Spin Energy      =      -0.1169791874938935 [Eh]
	 SCS Opposite-Spin Energy  =      -1.2941637660109362 [Eh]
	 SCS Correlation Energy    =      -1.4111429535048297 [Eh]
	 SCS Total Energy          =    -340.2099612178409416 [Eh]
	-----------------------------------------------------------

  Dipole Moment: [D]
     X:    -2.9106      Y:     0.5361      Z:     0.0003     Total:     2.9596

*** Psi4 exiting successfully. Buy a developer a beer!
