                               Psi4 1.3.2 release

  ==> Input File <==

--------------------------------------------------------------------------
#psi4
#
memory 32 gb

molecule  {
0 1
  O       -1.4607440    -0.6783760    -0.0000110
  N        0.8364910    -1.0546300    -0.0000300
  N        2.0492790    -0.4487200    -0.0000870
  C       -0.2000590    -0.1785130    -0.0000310
  C        0.3466065     1.0690118    -0.0000615
  C        1.7415550     0.8590090    -0.0000990
  C       -2.4699820     0.3361590     0.0002330
  H       -0.1651650     2.0416990    -0.0000660
  H        0.7745000    -2.0647320    -0.0000170
  H        2.5420040     1.5875080    -0.0001330
  H       -3.4206380    -0.1946080     0.0003100
  H       -2.3886930     0.9604430    -0.8948830
  H       -2.3884390     0.9602630     0.8954520
units angstrom
no_reorient  #important for SAPT in psi4, default
symmetry c1  #important for SAPT in psi4, default
}

set PROPERTIES_ORIGIN ["COM"]
properties('MP2/aug-cc-pvtz', properties = ['dipole'])
--------------------------------------------------------------------------

    Molecular point group: c1
  Charge       = 0
  Multiplicity = 1
  Basis Set: AUG-CC-PVTZ
    Blend: AUG-CC-PVTZ
  Basis Set: (AUG-CC-PVTZ AUX)
    Blend: AUG-CC-PVTZ-JKFIT

    Orbital Energies [Eh]
    ---------------------

    Doubly Occupied:

       1A    -20.611722     2A    -15.628786     3A    -15.582021
       4A    -11.339229     5A    -11.299721     6A    -11.257008
       7A    -11.219050     8A     -1.439520     9A     -1.357025
      10A     -1.090985    11A     -1.052092    12A     -0.961320
      13A     -0.818556    14A     -0.798093    15A     -0.755059
      16A     -0.679540    17A     -0.649769    18A     -0.625406
      19A     -0.600447    20A     -0.594031    21A     -0.580837
      22A     -0.528790    23A     -0.506309    24A     -0.453829
      25A     -0.366269    26A     -0.328347

  @DF-RHF Final Energy:  -338.79916536423832

   => Energetics <=

    Nuclear Repulsion Energy =            296.1676961113128641
    One-Electron Energy =               -1047.6862033150821389
    Two-Electron Energy =                 412.7193418395310118
    Total Energy =                       -338.7991653642383199
  Basis Set: (AUG-CC-PVTZ AUX)
    Blend: AUG-CC-PVTZ-RI
    Molecular point group: c1

    Geometry (in Angstrom), charge = 0, multiplicity = 1:

       Center              X                  Y                   Z               Mass
    ------------   -----------------  -----------------  -----------------  -----------------
         O           -1.511501804062    -0.642090062505    -0.000004389813    15.994914619570
         N            0.785733195938    -1.018344062505    -0.000023389813    14.003074004430
         N            1.998521195938    -0.412434062505    -0.000080389813    14.003074004430
         C           -0.250816804062    -0.142227062505    -0.000024389813    12.000000000000
         C            0.295848695938     1.105297737495    -0.000054889813    12.000000000000
         C            1.690797195938     0.895294937495    -0.000092389813    12.000000000000
         C           -2.520739804062     0.372444937495     0.000239610187    12.000000000000
         H           -0.215922804062     2.077984937495    -0.000059389813     1.007825032230
         H            0.723742195938    -2.028446062505    -0.000010389813     1.007825032230
         H            2.491246195938     1.623793937495    -0.000126389813     1.007825032230
         H           -3.471395804062    -0.158322062505     0.000316610187     1.007825032230
         H           -2.439450804062     0.996728937495    -0.894876389813     1.007825032230
         H           -2.439196804062     0.996548937495     0.895458610187     1.007825032230

  Basis Set: AUG-CC-PVTZ
    Blend: AUG-CC-PVTZ
  Basis Set: (AUG-CC-PVTZ AUX)
    Blend: AUG-CC-PVTZ-JKFIT
	 Reference Energy          =    -338.7991653642383199 [Eh]
	 Singles Energy            =      -0.0000000000000000 [Eh]
	 Same-Spin Energy          =      -0.3531605420441010 [Eh]
	 Opposite-Spin Energy      =      -1.0831256705819345 [Eh]
	 Correlation Energy        =      -1.4362862126260354 [Eh]
	 Total Energy              =    -340.2354515768643637 [Eh]

	 ================> DF-SCS-MP2 Energies <==================
	-----------------------------------------------------------
	 SCS Same-Spin Scale       =       0.3333333333333333 [-]
	 SCS Opposite-Spin Scale   =       1.2000000000000000 [-]
	 SCS Same-Spin Energy      =      -0.1177201806813670 [Eh]
	 SCS Opposite-Spin Energy  =      -1.2997508046983215 [Eh]
	 SCS Correlation Energy    =      -1.4174709853796885 [Eh]
	 SCS Total Energy          =    -340.2166363496179997 [Eh]
	-----------------------------------------------------------

  Dipole Moment: [D]
     X:    -3.1040      Y:     0.6801      Z:     0.0003     Total:     3.1777

*** Psi4 exiting successfully. Buy a developer a beer!
