                               Psi4 1.3.2 release

  ==> Input File <==

--------------------------------------------------------------------------
#psi4
#
memory 32 gb

molecule  {
0 1
  O       -1.4607440    -0.6783760    -0.0000110
  N        0.8364910    -1.0546300    -0.0000300
  N        2.0492790    -0.4487200    -0.0000870
  C       -0.2000590    -0.1785130    -0.0000310
  C        0.3504840     1.0933250    -0.0000620
  C        1.7644606     0.7616677    -0.0000981
  C       -2.4699820     0.3361590     0.0002330
  H       -0.1651650     2.0416990    -0.0000660
  H        0.7745000    -2.0647320    -0.0000170
  H        2.5420040     1.5875080    -0.0001330
  H       -3.4206380    -0.1946080     0.0003100
  H       -2.3886930     0.9604430    -0.8948830
  H       -2.3884390     0.9602630     0.8954520
units angstrom
no_reorient  #important for SAPT in psi4, default
symmetry c1  #important for SAPT in psi4, default
}

set PROPERTIES_ORIGIN ["COM"]
properties('MP2/aug-cc-pvtz', properties = ['dipole'])
--------------------------------------------------------------------------

    Molecular point group: c1
  Charge       = 0
  Multiplicity = 1
  Basis Set: AUG-CC-PVTZ
    Blend: AUG-CC-PVTZ
  Basis Set: (AUG-CC-PVTZ AUX)
    Blend: AUG-CC-PVTZ-JKFIT

    Orbital Energies [Eh]
    ---------------------

    Doubly Occupied:

       1A    -20.612314     2A    -15.623671     3A    -15.576431
       4A    -11.343537     5A    -11.299495     6A    -11.255033
       7A    -11.217664     8A     -1.440588     9A     -1.373213
      10A     -1.113950    11A     -1.042167    12A     -0.964089
      13A     -0.806338    14A     -0.799196    15A     -0.756970
      16A     -0.679450    17A     -0.648308    18A     -0.633400
      19A     -0.607563    20A     -0.592352    21A     -0.575790
      22A     -0.527096    23A     -0.509833    24A     -0.448725
      25A     -0.369971    26A     -0.334701

  @DF-RHF Final Energy:  -338.79409111431767

   => Energetics <=

    Nuclear Repulsion Energy =            297.0120223764467937
    One-Electron Energy =               -1049.3085353627870973
    Two-Electron Energy =                 413.5024218720226372
    Total Energy =                       -338.7940911143176663
  Basis Set: (AUG-CC-PVTZ AUX)
    Blend: AUG-CC-PVTZ-RI
    Molecular point group: c1

    Geometry (in Angstrom), charge = 0, multiplicity = 1:

       Center              X                  Y                   Z               Mass
    ------------   -----------------  -----------------  -----------------  -----------------
         O           -1.514779761368    -0.633152225064    -0.000004438768    15.994914619570
         N            0.782455238632    -1.009406225064    -0.000023438768    14.003074004430
         N            1.995243238632    -0.403496225064    -0.000080438768    14.003074004430
         C           -0.254094761368    -0.133289225064    -0.000024438768    12.000000000000
         C            0.296448238632     1.138548774936    -0.000055438768    12.000000000000
         C            1.710424838632     0.806891474936    -0.000091538768    12.000000000000
         C           -2.524017761368     0.381382774936     0.000239561232    12.000000000000
         H           -0.219200761368     2.086922774936    -0.000059438768     1.007825032230
         H            0.720464238632    -2.019508225064    -0.000010438768     1.007825032230
         H            2.487968238632     1.632731774936    -0.000126438768     1.007825032230
         H           -3.474673761368    -0.149384225064     0.000316561232     1.007825032230
         H           -2.442728761368     1.005666774936    -0.894876438768     1.007825032230
         H           -2.442474761368     1.005486774936     0.895458561232     1.007825032230

  Basis Set: AUG-CC-PVTZ
    Blend: AUG-CC-PVTZ
  Basis Set: (AUG-CC-PVTZ AUX)
    Blend: AUG-CC-PVTZ-JKFIT
	 Reference Energy          =    -338.7940911143176663 [Eh]
	 Singles Energy            =      -0.0000000000000000 [Eh]
	 Same-Spin Energy          =      -0.3506054212821787 [Eh]
	 Opposite-Spin Energy      =      -1.0785781093287985 [Eh]
	 Correlation Energy        =      -1.4291835306109772 [Eh]
	 Total Energy              =    -340.2232746449286651 [Eh]

	 ================> DF-SCS-MP2 Energies <==================
	-----------------------------------------------------------
	 SCS Same-Spin Scale       =       0.3333333333333333 [-]
	 SCS Opposite-Spin Scale   =       1.2000000000000000 [-]
	 SCS Same-Spin Energy      =      -0.1168684737607262 [Eh]
	 SCS Opposite-Spin Energy  =      -1.2942937311945582 [Eh]
	 SCS Correlation Energy    =      -1.4111622049552843 [Eh]
	 SCS Total Energy          =    -340.2052533192729697 [Eh]
	-----------------------------------------------------------

  Dipole Moment: [D]
     X:    -3.0157      Y:     0.6208      Z:     0.0003     Total:     3.0790

*** Psi4 exiting successfully. Buy a developer a beer!
