                               Psi4 1.3.2 release

  ==> Input File <==

--------------------------------------------------------------------------
#psi4
#
memory 32 gb

molecule  {
0 1
  O       -1.4607440    -0.6783760    -0.0000110
  N        0.8364910    -1.0546300    -0.0000300
  N        2.0492790    -0.4487200    -0.0000870
  C       -0.0640998    -0.2290932    -0.0000330
  C        0.3504840     1.0933250    -0.0000620
  C        1.7415550     0.8590090    -0.0000990
  C       -2.4699820     0.3361590     0.0002330
  H       -0.1651650     2.0416990    -0.0000660
  H        0.7745000    -2.0647320    -0.0000170
  H        2.5420040     1.5875080    -0.0001330
  H       -3.4206380    -0.1946080     0.0003100
  H       -2.3886930     0.9604430    -0.8948830
  H       -2.3884390     0.9602630     0.8954520
units angstrom
no_reorient  #important for SAPT in psi4, default
symmetry c1  #important for SAPT in psi4, default
}

set PROPERTIES_ORIGIN ["COM"]
properties('MP2/aug-cc-pvtz', properties = ['dipole'])
--------------------------------------------------------------------------

    Molecular point group: c1
  Charge       = 0
  Multiplicity = 1
  Basis Set: AUG-CC-PVTZ
    Blend: AUG-CC-PVTZ
  Basis Set: (AUG-CC-PVTZ AUX)
    Blend: AUG-CC-PVTZ-JKFIT

    Orbital Energies [Eh]
    ---------------------

    Doubly Occupied:

       1A    -20.592595     2A    -15.643792     3A    -15.576894
       4A    -11.338057     5A    -11.289596     6A    -11.263895
       7A    -11.219229     8A     -1.428083     9A     -1.363676
      10A     -1.123141    11A     -1.053187    12A     -0.940818
      13A     -0.838713    14A     -0.821193    15A     -0.738041
      16A     -0.669945    17A     -0.641709    18A     -0.620028
      19A     -0.619481    20A     -0.608348    21A     -0.580417
      22A     -0.498585    23A     -0.485239    24A     -0.457447
      25A     -0.382198    26A     -0.334040

  @DF-RHF Final Energy:  -338.77206796269240

   => Energetics <=

    Nuclear Repulsion Energy =            296.5761515421280592
    One-Electron Energy =               -1048.4397489486436825
    Two-Electron Energy =                 413.0915294438232195
    Total Energy =                       -338.7720679626924039
  Basis Set: (AUG-CC-PVTZ AUX)
    Blend: AUG-CC-PVTZ-RI
    Molecular point group: c1

    Geometry (in Angstrom), charge = 0, multiplicity = 1:

       Center              X                  Y                   Z               Mass
    ------------   -----------------  -----------------  -----------------  -----------------
         O           -1.528616280447    -0.638875270171    -0.000004083840    15.994914619570
         N            0.768618719553    -1.015129270171    -0.000023083840    14.003074004430
         N            1.981406719553    -0.409219270171    -0.000080083840    14.003074004430
         C           -0.131972080447    -0.189592470171    -0.000026083840    12.000000000000
         C            0.282611719553     1.132825729829    -0.000055083840    12.000000000000
         C            1.673682719553     0.898509729829    -0.000092083840    12.000000000000
         C           -2.537854280447     0.375659729829     0.000239916160    12.000000000000
         H           -0.233037280447     2.081199729829    -0.000059083840     1.007825032230
         H            0.706627719553    -2.025231270171    -0.000010083840     1.007825032230
         H            2.474131719553     1.627008729829    -0.000126083840     1.007825032230
         H           -3.488510280447    -0.155107270171     0.000316916160     1.007825032230
         H           -2.456565280447     0.999943729829    -0.894876083840     1.007825032230
         H           -2.456311280447     0.999763729829     0.895458916160     1.007825032230

  Basis Set: AUG-CC-PVTZ
    Blend: AUG-CC-PVTZ
  Basis Set: (AUG-CC-PVTZ AUX)
    Blend: AUG-CC-PVTZ-JKFIT
	 Reference Energy          =    -338.7720679626924039 [Eh]
	 Singles Energy            =      -0.0000000000000000 [Eh]
	 Same-Spin Energy          =      -0.3524083746744326 [Eh]
	 Opposite-Spin Energy      =      -1.0816680613514822 [Eh]
	 Correlation Energy        =      -1.4340764360259148 [Eh]
	 Total Energy              =    -340.2061443987183225 [Eh]

	 ================> DF-SCS-MP2 Energies <==================
	-----------------------------------------------------------
	 SCS Same-Spin Scale       =       0.3333333333333333 [-]
	 SCS Opposite-Spin Scale   =       1.2000000000000000 [-]
	 SCS Same-Spin Energy      =      -0.1174694582248109 [Eh]
	 SCS Opposite-Spin Energy  =      -1.2980016736217785 [Eh]
	 SCS Correlation Energy    =      -1.4154711318465893 [Eh]
	 SCS Total Energy          =    -340.1875390945389768 [Eh]
	-----------------------------------------------------------

  Dipole Moment: [D]
     X:    -2.4046      Y:     0.5248      Z:     0.0003     Total:     2.4612

*** Psi4 exiting successfully. Buy a developer a beer!
