                               Psi4 1.3.2 release

  ==> Input File <==

--------------------------------------------------------------------------
#psi4
#
memory 32 gb

molecule  {
0 1
  O       -1.4607440    -0.6783760    -0.0000110
  N        0.8364910    -1.0546300    -0.0000300
  N        2.0492790    -0.4487200    -0.0000870
  C       -0.2221718    -0.1687110    -0.0000307
  C        0.3504840     1.0933250    -0.0000620
  C        1.7415550     0.8590090    -0.0000990
  C       -2.4699820     0.3361590     0.0002330
  H       -0.1651650     2.0416990    -0.0000660
  H        0.7745000    -2.0647320    -0.0000170
  H        2.5420040     1.5875080    -0.0001330
  H       -3.4206380    -0.1946080     0.0003100
  H       -2.3886930     0.9604430    -0.8948830
  H       -2.3884390     0.9602630     0.8954520
units angstrom
no_reorient  #important for SAPT in psi4, default
symmetry c1  #important for SAPT in psi4, default
}

set PROPERTIES_ORIGIN ["COM"]
properties('MP2/aug-cc-pvtz', properties = ['dipole'])
--------------------------------------------------------------------------

    Molecular point group: c1
  Charge       = 0
  Multiplicity = 1
  Basis Set: AUG-CC-PVTZ
    Blend: AUG-CC-PVTZ
  Basis Set: (AUG-CC-PVTZ AUX)
    Blend: AUG-CC-PVTZ-JKFIT

    Orbital Energies [Eh]
    ---------------------

    Doubly Occupied:

       1A    -20.615838     2A    -15.627747     3A    -15.581468
       4A    -11.344185     5A    -11.301973     6A    -11.256375
       7A    -11.220553     8A     -1.447702     9A     -1.351637
      10A     -1.086473    11A     -1.047812    12A     -0.964811
      13A     -0.817103    14A     -0.795806    15A     -0.756994
      16A     -0.682853    17A     -0.653138    18A     -0.627636
      19A     -0.596449    20A     -0.593585    21A     -0.579574
      22A     -0.531450    23A     -0.510082    24A     -0.453051
      25A     -0.364820    26A     -0.323614

  @DF-RHF Final Energy:  -338.79792581540681

   => Energetics <=

    Nuclear Repulsion Energy =            295.6117097612473685
    One-Electron Energy =               -1046.5538131517046168
    Two-Electron Energy =                 412.1441775750504917
    Total Energy =                       -338.7979258154068134
  Basis Set: (AUG-CC-PVTZ AUX)
    Blend: AUG-CC-PVTZ-RI
    Molecular point group: c1

    Geometry (in Angstrom), charge = 0, multiplicity = 1:

       Center              X                  Y                   Z               Mass
    ------------   -----------------  -----------------  -----------------  -----------------
         O           -1.509270003603    -0.646265388330    -0.000004365335    15.994914619570
         N            0.787964996397    -1.022519388330    -0.000023365335    14.003074004430
         N            2.000752996397    -0.416609388330    -0.000080365335    14.003074004430
         C           -0.270697803603    -0.136600388330    -0.000024065335    12.000000000000
         C            0.301957996397     1.125435611670    -0.000055365335    12.000000000000
         C            1.693028996397     0.891119611670    -0.000092365335    12.000000000000
         C           -2.518508003603     0.368269611670     0.000239634665    12.000000000000
         H           -0.213691003603     2.073809611670    -0.000059365335     1.007825032230
         H            0.725973996397    -2.032621388330    -0.000010365335     1.007825032230
         H            2.493477996397     1.619618611670    -0.000126365335     1.007825032230
         H           -3.469164003603    -0.162497388330     0.000316634665     1.007825032230
         H           -2.437219003603     0.992553611670    -0.894876365335     1.007825032230
         H           -2.436965003603     0.992373611670     0.895458634665     1.007825032230

  Basis Set: AUG-CC-PVTZ
    Blend: AUG-CC-PVTZ
  Basis Set: (AUG-CC-PVTZ AUX)
    Blend: AUG-CC-PVTZ-JKFIT
	 Reference Energy          =    -338.7979258154068134 [Eh]
	 Singles Energy            =      -0.0000000000000000 [Eh]
	 Same-Spin Energy          =      -0.3535115179629934 [Eh]
	 Opposite-Spin Energy      =      -1.0838499461543329 [Eh]
	 Correlation Energy        =      -1.4373614641173265 [Eh]
	 Total Energy              =    -340.2352872795241296 [Eh]

	 ================> DF-SCS-MP2 Energies <==================
	-----------------------------------------------------------
	 SCS Same-Spin Scale       =       0.3333333333333333 [-]
	 SCS Opposite-Spin Scale   =       1.2000000000000000 [-]
	 SCS Same-Spin Energy      =      -0.1178371726543311 [Eh]
	 SCS Opposite-Spin Energy  =      -1.3006199353851995 [Eh]
	 SCS Correlation Energy    =      -1.4184571080395307 [Eh]
	 SCS Total Energy          =    -340.2163829234463606 [Eh]
	-----------------------------------------------------------

  Dipole Moment: [D]
     X:    -3.2511      Y:     0.6657      Z:     0.0003     Total:     3.3185

*** Psi4 exiting successfully. Buy a developer a beer!
