                               Psi4 1.4a3.dev225

  ==> Input File <==

--------------------------------------------------------------------------
#psi4
#
memory 32 gb

molecule  {
0 1
  O       -1.4607440    -0.6783760    -0.0000110
  N        0.8364910    -1.0546300    -0.0000300
  N        2.0492790    -0.4487200    -0.0000870
  C       -0.2000590    -0.1785130    -0.0000310
  C        0.3504840     1.0933250    -0.0000620
  C        1.7908604     0.8507039    -0.0001003
  C       -2.4699820     0.3361590     0.0002330
  H       -0.1651650     2.0416990    -0.0000660
  H        0.7745000    -2.0647320    -0.0000170
  H        2.5420040     1.5875080    -0.0001330
  H       -3.4206380    -0.1946080     0.0003100
  H       -2.3886930     0.9604430    -0.8948830
  H       -2.3884390     0.9602630     0.8954520
units angstrom
no_reorient  #important for SAPT in psi4, default
symmetry c1  #important for SAPT in psi4, default
}

set PROPERTIES_ORIGIN ["COM"]
properties('MP2/aug-cc-pvtz', properties = ['dipole'])
--------------------------------------------------------------------------

    Molecular point group: c1
  Charge       = 0
  Multiplicity = 1
  Basis Set: AUG-CC-PVTZ
    Blend: AUG-CC-PVTZ
  Basis Set: (AUG-CC-PVTZ AUX)
    Blend: AUG-CC-PVTZ-JKFIT

    Orbital Energies [Eh]
    ---------------------

    Doubly Occupied:

       1A    -20.612189     2A    -15.628922     3A    -15.583469
       4A    -11.342226     5A    -11.299334     6A    -11.259056
       7A    -11.221587     8A     -1.439244     9A     -1.356543
      10A     -1.096264    11A     -1.040373    12A     -0.961263
      13A     -0.818466    14A     -0.800782    15A     -0.753814
      16A     -0.678620    17A     -0.649252    18A     -0.629660
      19A     -0.599372    20A     -0.594311    21A     -0.587390
      22A     -0.528417    23A     -0.506623    24A     -0.448510
      25A     -0.362298    26A     -0.328796

  @DF-RHF Final Energy:  -338.79882643240836

   => Energetics <=

    Nuclear Repulsion Energy =            295.1537731409169965
    One-Electron Energy =               -1045.6516321809160672
    Two-Electron Energy =                 411.6990326075907092
    Total Energy =                       -338.7988264324083616
  Basis Set: (AUG-CC-PVTZ AUX)
    Blend: AUG-CC-PVTZ-RI
    Molecular point group: c1

    Geometry (in Angstrom), charge = 0, multiplicity = 1:

       Center              X                  Y                   Z               Mass
    ------------   -----------------  -----------------  -----------------  -----------------
         O           -1.518010806964    -0.644049278143    -0.000004169513    15.994914619570
         N            0.779224193036    -1.020303278143    -0.000023169513    14.003074004430
         N            1.992012193036    -0.414393278143    -0.000080169513    14.003074004430
         C           -0.257325806964    -0.144186278143    -0.000024169513    12.000000000000
         C            0.293217193036     1.127651721857    -0.000055169513    12.000000000000
         C            1.733593593036     0.885030621857    -0.000093469513    12.000000000000
         C           -2.527248806964     0.370485721857     0.000239830487    12.000000000000
         H           -0.222431806964     2.076025721857    -0.000059169513     1.007825032230
         H            0.717233193036    -2.030405278143    -0.000010169513     1.007825032230
         H            2.484737193036     1.621834721857    -0.000126169513     1.007825032230
         H           -3.477904806964    -0.160281278143     0.000316830487     1.007825032230
         H           -2.445959806964     0.994769721857    -0.894876169513     1.007825032230
         H           -2.445705806964     0.994589721857     0.895458830487     1.007825032230

  Basis Set: AUG-CC-PVTZ
    Blend: AUG-CC-PVTZ
  Basis Set: (AUG-CC-PVTZ AUX)
    Blend: AUG-CC-PVTZ-JKFIT
	 Reference Energy          =    -338.7988264324083616 [Eh]
	 Singles Energy            =      -0.0000000000000000 [Eh]
	 Same-Spin Energy          =      -0.3523074034776543 [Eh]
	 Opposite-Spin Energy      =      -1.0822437241392726 [Eh]
	 Correlation Energy        =      -1.4345511276169269 [Eh]
	 Total Energy              =    -340.2333775600253034 [Eh]

	 ================> DF-SCS-MP2 Energies <==================
	-----------------------------------------------------------
	 SCS Same-Spin Scale       =       0.3333333333333333 [-]
	 SCS Opposite-Spin Scale   =       1.2000000000000000 [-]
	 SCS Same-Spin Energy      =      -0.1174358011592181 [Eh]
	 SCS Opposite-Spin Energy  =      -1.2986924689671271 [Eh]
	 SCS Correlation Energy    =      -1.4161282701263451 [Eh]
	 SCS Total Energy          =    -340.2149547025347260 [Eh]
	-----------------------------------------------------------

  Dipole Moment: [D]
     X:    -3.0280      Y:     0.6510      Z:     0.0003     Total:     3.0972

*** Psi4 exiting successfully. Buy a developer a beer!
