                               Psi4 1.3.2 release

  ==> Input File <==

--------------------------------------------------------------------------
#psi4
#
memory 32 gb

molecule  {
0 1
  O       -1.4015879    -0.8074152    -0.0000099
  N        0.8364910    -1.0546300    -0.0000300
  N        2.0492790    -0.4487200    -0.0000870
  C       -0.2000590    -0.1785130    -0.0000310
  C        0.3504840     1.0933250    -0.0000620
  C        1.7415550     0.8590090    -0.0000990
  C       -2.4699820     0.3361590     0.0002330
  H       -0.1651650     2.0416990    -0.0000660
  H        0.7745000    -2.0647320    -0.0000170
  H        2.5420040     1.5875080    -0.0001330
  H       -3.4206380    -0.1946080     0.0003100
  H       -2.3886930     0.9604430    -0.8948830
  H       -2.3884390     0.9602630     0.8954520
units angstrom
no_reorient  #important for SAPT in psi4, default
symmetry c1  #important for SAPT in psi4, default
}

set PROPERTIES_ORIGIN ["COM"]
properties('MP2/aug-cc-pvtz', properties = ['dipole'])
--------------------------------------------------------------------------

    Molecular point group: c1
  Charge       = 0
  Multiplicity = 1
  Basis Set: AUG-CC-PVTZ
    Blend: AUG-CC-PVTZ
  Basis Set: (AUG-CC-PVTZ AUX)
    Blend: AUG-CC-PVTZ-JKFIT

    Orbital Energies [Eh]
    ---------------------

    Doubly Occupied:

       1A    -20.615395     2A    -15.622254     3A    -15.577111
       4A    -11.338437     5A    -11.314880     6A    -11.254877
       7A    -11.220744     8A     -1.419985     9A     -1.344812
      10A     -1.084190    11A     -1.042076    12A     -0.963823
      13A     -0.814511    14A     -0.797620    15A     -0.739140
      16A     -0.664775    17A     -0.633407    18A     -0.619427
      19A     -0.597998    20A     -0.589068    21A     -0.579464
      22A     -0.539049    23A     -0.518460    24A     -0.448500
      25A     -0.363768    26A     -0.322399

  @DF-RHF Final Energy:  -338.78093818537650

   => Energetics <=

    Nuclear Repulsion Energy =            294.2296038449213711
    One-Electron Energy =               -1043.9687451123197661
    Two-Electron Energy =                 410.9582030820218961
    Total Energy =                       -338.7809381853764990
  Basis Set: (AUG-CC-PVTZ AUX)
    Blend: AUG-CC-PVTZ-RI
    Molecular point group: c1

    Geometry (in Angstrom), charge = 0, multiplicity = 1:

       Center              X                  Y                   Z               Mass
    ------------   -----------------  -----------------  -----------------  -----------------
         O           -1.462470608588    -0.753054316001    -0.000003408065    15.994914619570
         N            0.775608291412    -1.000269116001    -0.000023508065    14.003074004430
         N            1.988396291412    -0.394359116001    -0.000080508065    14.003074004430
         C           -0.260941708588    -0.124152116001    -0.000024508065    12.000000000000
         C            0.289601291412     1.147685883999    -0.000055508065    12.000000000000
         C            1.680672291412     0.913369883999    -0.000092508065    12.000000000000
         C           -2.530864708588     0.390519883999     0.000239491935    12.000000000000
         H           -0.226047708588     2.096059883999    -0.000059508065     1.007825032230
         H            0.713617291412    -2.010371116001    -0.000010508065     1.007825032230
         H            2.481121291412     1.641868883999    -0.000126508065     1.007825032230
         H           -3.481520708588    -0.140247116001     0.000316491935     1.007825032230
         H           -2.449575708588     1.014803883999    -0.894876508065     1.007825032230
         H           -2.449321708588     1.014623883999     0.895458491935     1.007825032230

  Basis Set: AUG-CC-PVTZ
    Blend: AUG-CC-PVTZ
  Basis Set: (AUG-CC-PVTZ AUX)
    Blend: AUG-CC-PVTZ-JKFIT
	 Reference Energy          =    -338.7809381853764990 [Eh]
	 Singles Energy            =      -0.0000000000000000 [Eh]
	 Same-Spin Energy          =      -0.3544736640540924 [Eh]
	 Opposite-Spin Energy      =      -1.0879171466792441 [Eh]
	 Correlation Energy        =      -1.4423908107333365 [Eh]
	 Total Energy              =    -340.2233289961098421 [Eh]

	 ================> DF-SCS-MP2 Energies <==================
	-----------------------------------------------------------
	 SCS Same-Spin Scale       =       0.3333333333333333 [-]
	 SCS Opposite-Spin Scale   =       1.2000000000000000 [-]
	 SCS Same-Spin Energy      =      -0.1181578880180308 [Eh]
	 SCS Opposite-Spin Energy  =      -1.3055005760150928 [Eh]
	 SCS Correlation Energy    =      -1.4236584640331236 [Eh]
	 SCS Total Energy          =    -340.2045966494096092 [Eh]
	-----------------------------------------------------------

  Dipole Moment: [D]
     X:    -3.4790      Y:     0.9499      Z:     0.0004     Total:     3.6064

*** Psi4 exiting successfully. Buy a developer a beer!
