                               Psi4 1.3.2 release

  ==> Input File <==

--------------------------------------------------------------------------
#psi4
#
memory 32 gb

molecule  {
0 1
  O       -1.4607440    -0.6783760    -0.0000110
  N        0.8364910    -1.0546300    -0.0000300
  N        2.0492790    -0.4487200    -0.0000870
  C       -0.2000590    -0.1785130    -0.0000310
  C        0.3504840     1.0933250    -0.0000620
  C        1.7415550     0.8590090    -0.0000990
  C       -2.4699820     0.3361590     0.0002330
  H       -0.1651650     2.0416990    -0.0000660
  H        0.7745000    -2.0647320    -0.0000170
  H        2.5420040     1.5875080    -0.0001330
  H       -3.4206380    -0.1946080     0.0003100
  H       -2.3886930     0.9604430    -0.8948830
  H       -2.3884390     0.9602630     0.8954520
units angstrom
no_reorient  #important for SAPT in psi4, default
symmetry c1  #important for SAPT in psi4, default
}

set PROPERTIES_ORIGIN ["COM"]
properties('MP2/aug-cc-pvtz', properties = ['dipole'])
--------------------------------------------------------------------------

    Molecular point group: c1
  Charge       = 0
  Multiplicity = 1
  Basis Set: AUG-CC-PVTZ
    Blend: AUG-CC-PVTZ
  Basis Set: (AUG-CC-PVTZ AUX)
    Blend: AUG-CC-PVTZ-JKFIT

    Orbital Energies [Eh]
    ---------------------

    Doubly Occupied:

       1A    -20.612583     2A    -15.630430     3A    -15.580829
       4A    -11.342980     5A    -11.300194     6A    -11.257388
       7A    -11.220190     8A     -1.439969     9A     -1.356343
      10A     -1.091295    11A     -1.048536    12A     -0.961496
      13A     -0.818164    14A     -0.799886    15A     -0.754975
      16A     -0.679543    17A     -0.650053    18A     -0.625523
      19A     -0.599863    20A     -0.598123    21A     -0.580208
      22A     -0.527692    23A     -0.506722    24A     -0.453996
      25A     -0.366544    26A     -0.325707

  @DF-RHF Final Energy:  -338.79955696416658

   => Energetics <=

    Nuclear Repulsion Energy =            295.7084744521601465
    One-Electron Energy =               -1046.7576060893932208
    Two-Electron Energy =                 412.2495746730665473
    Total Energy =                       -338.7995569641665838
  Basis Set: (AUG-CC-PVTZ AUX)
    Blend: AUG-CC-PVTZ-RI
    Molecular point group: c1

    Geometry (in Angstrom), charge = 0, multiplicity = 1:

       Center              X                  Y                   Z               Mass
    ------------   -----------------  -----------------  -----------------  -----------------
         O           -1.511976367479    -0.645065731176    -0.000004328618    15.994914619570
         N            0.785258632521    -1.021319731176    -0.000023328618    14.003074004430
         N            1.998046632521    -0.415409731176    -0.000080328618    14.003074004430
         C           -0.251291367479    -0.145202731176    -0.000024328618    12.000000000000
         C            0.299251632521     1.126635268824    -0.000055328618    12.000000000000
         C            1.690322632521     0.892319268824    -0.000092328618    12.000000000000
         C           -2.521214367479     0.369469268824     0.000239671382    12.000000000000
         H           -0.216397367479     2.075009268824    -0.000059328618     1.007825032230
         H            0.723267632521    -2.031421731176    -0.000010328618     1.007825032230
         H            2.490771632521     1.620818268824    -0.000126328618     1.007825032230
         H           -3.471870367479    -0.161297731176     0.000316671382     1.007825032230
         H           -2.439925367479     0.993753268824    -0.894876328618     1.007825032230
         H           -2.439671367479     0.993573268824     0.895458671382     1.007825032230

  Basis Set: AUG-CC-PVTZ
    Blend: AUG-CC-PVTZ
  Basis Set: (AUG-CC-PVTZ AUX)
    Blend: AUG-CC-PVTZ-JKFIT
	 Reference Energy          =    -338.7995569641665838 [Eh]
	 Singles Energy            =      -0.0000000000000000 [Eh]
	 Same-Spin Energy          =      -0.3532445776134695 [Eh]
	 Opposite-Spin Energy      =      -1.0833264942075331 [Eh]
	 Correlation Energy        =      -1.4365710718210027 [Eh]
	 Total Energy              =    -340.2361280359875764 [Eh]

	 ================> DF-SCS-MP2 Energies <==================
	-----------------------------------------------------------
	 SCS Same-Spin Scale       =       0.3333333333333333 [-]
	 SCS Opposite-Spin Scale   =       1.2000000000000000 [-]
	 SCS Same-Spin Energy      =      -0.1177481925378232 [Eh]
	 SCS Opposite-Spin Energy  =      -1.2999917930490397 [Eh]
	 SCS Correlation Energy    =      -1.4177399855868629 [Eh]
	 SCS Total Energy          =    -340.2172969497534609 [Eh]
	-----------------------------------------------------------

  Dipole Moment: [D]
     X:    -3.1284      Y:     0.6469      Z:     0.0003     Total:     3.1946

*** Psi4 exiting successfully. Buy a developer a beer!
