                               Psi4 1.4a3.dev225

  ==> Input File <==

--------------------------------------------------------------------------
#psi4
#
memory 32 gb

molecule  {
0 1
  O       -1.4607440    -0.6783760    -0.0000110
  N        0.8364910    -1.0546300    -0.0000300
  N        2.0492790    -0.4487200    -0.0000870
  C       -0.2000590    -0.1785130    -0.0000310
  C        0.3504840     1.0933250    -0.0000620
  C        1.7415550     0.8590090    -0.0000990
  C       -2.4699820     0.3361590     0.0002330
  H       -0.1651650     2.0416990    -0.0000660
  H        0.7745000    -2.0647320    -0.0000170
  H        2.5789822     1.6211623    -0.0001346
  H       -3.4206380    -0.1946080     0.0003100
  H       -2.3886930     0.9604430    -0.8948830
  H       -2.3884390     0.9602630     0.8954520
units angstrom
no_reorient  #important for SAPT in psi4, default
symmetry c1  #important for SAPT in psi4, default
}

set PROPERTIES_ORIGIN ["COM"]
properties('MP2/aug-cc-pvtz', properties = ['dipole'])
--------------------------------------------------------------------------

    Molecular point group: c1
  Charge       = 0
  Multiplicity = 1
  Basis Set: AUG-CC-PVTZ
    Blend: AUG-CC-PVTZ
  Basis Set: (AUG-CC-PVTZ AUX)
    Blend: AUG-CC-PVTZ-JKFIT

    Orbital Energies [Eh]
    ---------------------

    Doubly Occupied:

       1A    -20.612810     2A    -15.630706     3A    -15.581131
       4A    -11.343312     5A    -11.300331     6A    -11.262955
       7A    -11.220683     8A     -1.440196     9A     -1.356661
      10A     -1.090650    11A     -1.048784    12A     -0.961577
      13A     -0.814376    14A     -0.797961    15A     -0.754350
      16A     -0.679743    17A     -0.649787    18A     -0.625294
      19A     -0.600144    20A     -0.596205    21A     -0.574421
      22A     -0.526819    23A     -0.506920    24A     -0.453743
      25A     -0.366803    26A     -0.325992

  @DF-RHF Final Energy:  -338.79709002186621

   => Energetics <=

    Nuclear Repulsion Energy =            295.4644955180741590
    One-Electron Energy =               -1046.2784631943636668
    Two-Electron Energy =                 412.0168776544232969
    Total Energy =                       -338.7970900218662109
  Basis Set: (AUG-CC-PVTZ AUX)
    Blend: AUG-CC-PVTZ-RI
    Molecular point group: c1

    Geometry (in Angstrom), charge = 0, multiplicity = 1:

       Center              X                  Y                   Z               Mass
    ------------   -----------------  -----------------  -----------------  -----------------
         O           -1.512356462440    -0.645411660125    -0.000004312172    15.994914619570
         N            0.784878537560    -1.021665660125    -0.000023312172    14.003074004430
         N            1.997666537560    -0.415755660125    -0.000080312172    14.003074004430
         C           -0.251671462440    -0.145548660125    -0.000024312172    12.000000000000
         C            0.298871537560     1.126289339875    -0.000055312172    12.000000000000
         C            1.689942537560     0.891973339875    -0.000092312172    12.000000000000
         C           -2.521594462440     0.369123339875     0.000239687828    12.000000000000
         H           -0.216777462440     2.074663339875    -0.000059312172     1.007825032230
         H            0.722887537560    -2.031767660125    -0.000010312172     1.007825032230
         H            2.527369737560     1.654126639875    -0.000127912172     1.007825032230
         H           -3.472250462440    -0.161643660125     0.000316687828     1.007825032230
         H           -2.440305462440     0.993407339875    -0.894876312172     1.007825032230
         H           -2.440051462440     0.993227339875     0.895458687828     1.007825032230

  Basis Set: AUG-CC-PVTZ
    Blend: AUG-CC-PVTZ
  Basis Set: (AUG-CC-PVTZ AUX)
    Blend: AUG-CC-PVTZ-JKFIT
	 Reference Energy          =    -338.7970900218662109 [Eh]
	 Singles Energy            =      -0.0000000000000000 [Eh]
	 Same-Spin Energy          =      -0.3533246189501236 [Eh]
	 Opposite-Spin Energy      =      -1.0836620381278901 [Eh]
	 Correlation Energy        =      -1.4369866570780137 [Eh]
	 Total Energy              =    -340.2340766789442341 [Eh]

	 ================> DF-SCS-MP2 Energies <==================
	-----------------------------------------------------------
	 SCS Same-Spin Scale       =       0.3333333333333333 [-]
	 SCS Opposite-Spin Scale   =       1.2000000000000000 [-]
	 SCS Same-Spin Energy      =      -0.1177748729833745 [Eh]
	 SCS Opposite-Spin Energy  =      -1.3003944457534680 [Eh]
	 SCS Correlation Energy    =      -1.4181693187368425 [Eh]
	 SCS Total Energy          =    -340.2152593406030405 [Eh]
	-----------------------------------------------------------

  Dipole Moment: [D]
     X:    -3.1360      Y:     0.6402      Z:     0.0003     Total:     3.2007

*** Psi4 exiting successfully. Buy a developer a beer!
