                               Psi4 1.3.2 release

  ==> Input File <==

--------------------------------------------------------------------------
#psi4
#
memory 32 gb

molecule  {
0 1
  O       -1.4607440    -0.6783760    -0.0000110
  N        0.8364910    -1.0546300    -0.0000300
  N        2.0492790    -0.4487200    -0.0000870
  C       -0.1833820    -0.2228148    -0.0000395
  C        0.3504840     1.0933250    -0.0000620
  C        1.7415550     0.8590090    -0.0000990
  C       -2.4699820     0.3361590     0.0002330
  H       -0.1651650     2.0416990    -0.0000660
  H        0.7745000    -2.0647320    -0.0000170
  H        2.5420040     1.5875080    -0.0001330
  H       -3.4206380    -0.1946080     0.0003100
  H       -2.3886930     0.9604430    -0.8948830
  H       -2.3884390     0.9602630     0.8954520
units angstrom
no_reorient  #important for SAPT in psi4, default
symmetry c1  #important for SAPT in psi4, default
}

set PROPERTIES_ORIGIN ["COM"]
properties('MP2/aug-cc-pvtz', properties = ['dipole'])
--------------------------------------------------------------------------

    Molecular point group: c1
  Charge       = 0
  Multiplicity = 1
  Basis Set: AUG-CC-PVTZ
    Blend: AUG-CC-PVTZ
  Basis Set: (AUG-CC-PVTZ AUX)
    Blend: AUG-CC-PVTZ-JKFIT

    Orbital Energies [Eh]
    ---------------------

    Doubly Occupied:

       1A    -20.611500     2A    -15.635254     3A    -15.576544
       4A    -11.344390     5A    -11.300798     6A    -11.257722
       7A    -11.219565     8A     -1.440427     9A     -1.363534
      10A     -1.101504    11A     -1.041208    12A     -0.961842
      13A     -0.819351    14A     -0.805346    15A     -0.756454
      16A     -0.680104    17A     -0.649104    18A     -0.621194
      19A     -0.604835    20A     -0.603865    21A     -0.579963
      22A     -0.521118    23A     -0.506465    24A     -0.453198
      25A     -0.368715    26A     -0.321849

  @DF-RHF Final Energy:  -338.79870696008760

   => Energetics <=

    Nuclear Repulsion Energy =            295.8305864031219699
    One-Electron Energy =               -1046.9668901731433834
    Two-Electron Energy =                 412.3375968099338138
    Total Energy =                       -338.7987069600875998
  Basis Set: (AUG-CC-PVTZ AUX)
    Blend: AUG-CC-PVTZ-RI
    Molecular point group: c1

    Geometry (in Angstrom), charge = 0, multiplicity = 1:

       Center              X                  Y                   Z               Mass
    ------------   -----------------  -----------------  -----------------  -----------------
         O           -1.514017449131    -0.639643677381    -0.000003288312    15.994914619570
         N            0.783217550869    -1.015897677381    -0.000022288312    14.003074004430
         N            1.996005550869    -0.409987677381    -0.000079288312    14.003074004430
         C           -0.236655449131    -0.184082477381    -0.000031788312    12.000000000000
         C            0.297210550869     1.132057322619    -0.000054288312    12.000000000000
         C            1.688281550869     0.897741322619    -0.000091288312    12.000000000000
         C           -2.523255449131     0.374891322619     0.000240711688    12.000000000000
         H           -0.218438449131     2.080431322619    -0.000058288312     1.007825032230
         H            0.721226550869    -2.025999677381    -0.000009288312     1.007825032230
         H            2.488730550869     1.626240322619    -0.000125288312     1.007825032230
         H           -3.473911449131    -0.155875677381     0.000317711688     1.007825032230
         H           -2.441966449131     0.999175322619    -0.894875288312     1.007825032230
         H           -2.441712449131     0.998995322619     0.895459711688     1.007825032230

  Basis Set: AUG-CC-PVTZ
    Blend: AUG-CC-PVTZ
  Basis Set: (AUG-CC-PVTZ AUX)
    Blend: AUG-CC-PVTZ-JKFIT
	 Reference Energy          =    -338.7987069600875998 [Eh]
	 Singles Energy            =      -0.0000000000000000 [Eh]
	 Same-Spin Energy          =      -0.3528563757904711 [Eh]
	 Opposite-Spin Energy      =      -1.0821272487926299 [Eh]
	 Correlation Energy        =      -1.4349836245831011 [Eh]
	 Total Energy              =    -340.2336905846706827 [Eh]

	 ================> DF-SCS-MP2 Energies <==================
	-----------------------------------------------------------
	 SCS Same-Spin Scale       =       0.3333333333333333 [-]
	 SCS Opposite-Spin Scale   =       1.2000000000000000 [-]
	 SCS Same-Spin Energy      =      -0.1176187919301570 [Eh]
	 SCS Opposite-Spin Energy  =      -1.2985526985511557 [Eh]
	 SCS Correlation Energy    =      -1.4161714904813127 [Eh]
	 SCS Total Energy          =    -340.2148784505689036 [Eh]
	-----------------------------------------------------------

  Dipole Moment: [D]
     X:    -3.1195      Y:     0.5219      Z:     0.0003     Total:     3.1629

*** Psi4 exiting successfully. Buy a developer a beer!
