                               Psi4 1.3.2 release

  ==> Input File <==

--------------------------------------------------------------------------
#psi4
#
memory 32 gb

molecule  {
0 1
  O       -1.4607440    -0.6783760    -0.0000110
  N        0.8364910    -1.0546300    -0.0000300
  N        2.2281930    -0.3593344    -0.0000954
  C       -0.2000590    -0.1785130    -0.0000310
  C        0.3504840     1.0933250    -0.0000620
  C        1.7415550     0.8590090    -0.0000990
  C       -2.4699820     0.3361590     0.0002330
  H       -0.1651650     2.0416990    -0.0000660
  H        0.7745000    -2.0647320    -0.0000170
  H        2.5420040     1.5875080    -0.0001330
  H       -3.4206380    -0.1946080     0.0003100
  H       -2.3886930     0.9604430    -0.8948830
  H       -2.3884390     0.9602630     0.8954520
units angstrom
no_reorient  #important for SAPT in psi4, default
symmetry c1  #important for SAPT in psi4, default
}

set PROPERTIES_ORIGIN ["COM"]
properties('MP2/aug-cc-pvtz', properties = ['dipole'])
--------------------------------------------------------------------------

    Molecular point group: c1
  Charge       = 0
  Multiplicity = 1
  Basis Set: AUG-CC-PVTZ
    Blend: AUG-CC-PVTZ
  Basis Set: (AUG-CC-PVTZ AUX)
    Blend: AUG-CC-PVTZ-JKFIT

    Orbital Energies [Eh]
    ---------------------

    Doubly Occupied:

       1A    -20.620942     2A    -15.611089     3A    -15.598260
       4A    -11.358521     5A    -11.303665     6A    -11.268619
       7A    -11.219036     8A     -1.444176     9A     -1.303174
      10A     -1.113472    11A     -1.033165    12A     -0.969509
      13A     -0.812929    14A     -0.775169    15A     -0.755469
      16A     -0.681558    17A     -0.651971    18A     -0.621675
      19A     -0.593718    20A     -0.580258    21A     -0.556817
      22A     -0.530149    23A     -0.505492    24A     -0.469458
      25A     -0.379804    26A     -0.332832

  @DF-RHF Final Energy:  -338.77211787103602

   => Energetics <=

    Nuclear Repulsion Energy =            291.9298740164551305
    One-Electron Energy =               -1039.2221311517355389
    Two-Electron Energy =                 408.5201392642443352
    Total Energy =                       -338.7721178710360164
  Basis Set: (AUG-CC-PVTZ AUX)
    Blend: AUG-CC-PVTZ-RI
    Molecular point group: c1

    Geometry (in Angstrom), charge = 0, multiplicity = 1:

       Center              X                  Y                   Z               Mass
    ------------   -----------------  -----------------  -----------------  -----------------
         O           -1.537528603678    -0.657831652032    -0.000003128943    15.994914619570
         N            0.759706396322    -1.034085652032    -0.000022128943    14.003074004430
         N            2.151408396322    -0.338790052032    -0.000087528943    14.003074004430
         C           -0.276843603678    -0.157968652032    -0.000023128943    12.000000000000
         C            0.273699396322     1.113869347968    -0.000054128943    12.000000000000
         C            1.664770396322     0.879553347968    -0.000091128943    12.000000000000
         C           -2.546766603678     0.356703347968     0.000240871057    12.000000000000
         H           -0.241949603678     2.062243347968    -0.000058128943     1.007825032230
         H            0.697715396322    -2.044187652032    -0.000009128943     1.007825032230
         H            2.465219396322     1.608052347968    -0.000125128943     1.007825032230
         H           -3.497422603678    -0.174063652032     0.000317871057     1.007825032230
         H           -2.465477603678     0.980987347968    -0.894875128943     1.007825032230
         H           -2.465223603678     0.980807347968     0.895459871057     1.007825032230

  Basis Set: AUG-CC-PVTZ
    Blend: AUG-CC-PVTZ
  Basis Set: (AUG-CC-PVTZ AUX)
    Blend: AUG-CC-PVTZ-JKFIT
	 Reference Energy          =    -338.7721178710360164 [Eh]
	 Singles Energy            =      -0.0000000000000000 [Eh]
	 Same-Spin Energy          =      -0.3518574557435792 [Eh]
	 Opposite-Spin Energy      =      -1.0860950784648851 [Eh]
	 Correlation Energy        =      -1.4379525342084643 [Eh]
	 Total Energy              =    -340.2100704052444939 [Eh]

	 ================> DF-SCS-MP2 Energies <==================
	-----------------------------------------------------------
	 SCS Same-Spin Scale       =       0.3333333333333333 [-]
	 SCS Opposite-Spin Scale   =       1.2000000000000000 [-]
	 SCS Same-Spin Energy      =      -0.1172858185811931 [Eh]
	 SCS Opposite-Spin Energy  =      -1.3033140941578620 [Eh]
	 SCS Correlation Energy    =      -1.4205999127390552 [Eh]
	 SCS Total Energy          =    -340.1927177837750946 [Eh]
	-----------------------------------------------------------

  Dipole Moment: [D]
     X:    -3.2961      Y:     0.8158      Z:     0.0004     Total:     3.3956

*** Psi4 exiting successfully. Buy a developer a beer!
