                               Psi4 1.3.2 release

  ==> Input File <==

--------------------------------------------------------------------------
#psi4
#
memory 32 gb

molecule  {
0 1
  O       -1.4607440    -0.6783760    -0.0000110
  N        0.8364910    -1.0546300    -0.0000300
  N        2.0492790    -0.4487200    -0.0000870
  C       -0.1028015    -0.0749635    -0.0000332
  C        0.3504840     1.0933250    -0.0000620
  C        1.7415550     0.8590090    -0.0000990
  C       -2.4699820     0.3361590     0.0002330
  H       -0.1651650     2.0416990    -0.0000660
  H        0.7745000    -2.0647320    -0.0000170
  H        2.5420040     1.5875080    -0.0001330
  H       -3.4206380    -0.1946080     0.0003100
  H       -2.3886930     0.9604430    -0.8948830
  H       -2.3884390     0.9602630     0.8954520
units angstrom
no_reorient  #important for SAPT in psi4, default
symmetry c1  #important for SAPT in psi4, default
}

set PROPERTIES_ORIGIN ["COM"]
properties('MP2/aug-cc-pvtz', properties = ['dipole'])
--------------------------------------------------------------------------

    Molecular point group: c1
  Charge       = 0
  Multiplicity = 1
  Basis Set: AUG-CC-PVTZ
    Blend: AUG-CC-PVTZ
  Basis Set: (AUG-CC-PVTZ AUX)
    Blend: AUG-CC-PVTZ-JKFIT

    Orbital Energies [Eh]
    ---------------------

    Doubly Occupied:

       1A    -20.593840     2A    -15.628932     3A    -15.591670
       4A    -11.329941     5A    -11.286355     6A    -11.263605
       7A    -11.217827     8A     -1.402104     9A     -1.353096
      10A     -1.098119    11A     -1.078759    12A     -0.937477
      13A     -0.825558    14A     -0.808785    15A     -0.736400
      16A     -0.660236    17A     -0.654473    18A     -0.620687
      19A     -0.606830    20A     -0.592646    21A     -0.583902
      22A     -0.510055    23A     -0.483424    24A     -0.461296
      25A     -0.384060    26A     -0.345891

  @DF-RHF Final Energy:  -338.76640697702499

   => Energetics <=

    Nuclear Repulsion Energy =            296.2100708464770946
    One-Electron Energy =               -1047.8410261970138890
    Two-Electron Energy =                 412.8645483735118660
    Total Energy =                       -338.7664069770249853
  Basis Set: (AUG-CC-PVTZ AUX)
    Blend: AUG-CC-PVTZ-RI
    Molecular point group: c1

    Geometry (in Angstrom), charge = 0, multiplicity = 1:

       Center              X                  Y                   Z               Mass
    ------------   -----------------  -----------------  -----------------  -----------------
         O           -1.523879617391    -0.657739052789    -0.000004059362    15.994914619570
         N            0.773355382609    -1.033993052789    -0.000023059362    14.003074004430
         N            1.986143382609    -0.428083052789    -0.000080059362    14.003074004430
         C           -0.165937117391    -0.054326552789    -0.000026259362    12.000000000000
         C            0.287348382609     1.113961947211    -0.000055059362    12.000000000000
         C            1.678419382609     0.879645947211    -0.000092059362    12.000000000000
         C           -2.533117617391     0.356795947211     0.000239940638    12.000000000000
         H           -0.228300617391     2.062335947211    -0.000059059362     1.007825032230
         H            0.711364382609    -2.044095052789    -0.000010059362     1.007825032230
         H            2.478868382609     1.608144947211    -0.000126059362     1.007825032230
         H           -3.483773617391    -0.173971052789     0.000316940638     1.007825032230
         H           -2.451828617391     0.981079947211    -0.894876059362     1.007825032230
         H           -2.451574617391     0.980899947211     0.895458940638     1.007825032230

  Basis Set: AUG-CC-PVTZ
    Blend: AUG-CC-PVTZ
  Basis Set: (AUG-CC-PVTZ AUX)
    Blend: AUG-CC-PVTZ-JKFIT
	 Reference Energy          =    -338.7664069770249853 [Eh]
	 Singles Energy            =      -0.0000000000000000 [Eh]
	 Same-Spin Energy          =      -0.3533097887625519 [Eh]
	 Opposite-Spin Energy      =      -1.0857010017088702 [Eh]
	 Correlation Energy        =      -1.4390107904714222 [Eh]
	 Total Energy              =    -340.2054177674963853 [Eh]

	 ================> DF-SCS-MP2 Energies <==================
	-----------------------------------------------------------
	 SCS Same-Spin Scale       =       0.3333333333333333 [-]
	 SCS Opposite-Spin Scale   =       1.2000000000000000 [-]
	 SCS Same-Spin Energy      =      -0.1177699295875173 [Eh]
	 SCS Opposite-Spin Energy  =      -1.3028412020506441 [Eh]
	 SCS Correlation Energy    =      -1.4206111316381613 [Eh]
	 SCS Total Energy          =    -340.1870181086631533 [Eh]
	-----------------------------------------------------------

  Dipole Moment: [D]
     X:    -2.3556      Y:     1.0136      Z:     0.0003     Total:     2.5644

*** Psi4 exiting successfully. Buy a developer a beer!
