                               Psi4 1.4a3.dev225

  ==> Input File <==

--------------------------------------------------------------------------
#psi4
#
memory 32 gb

molecule  {
0 1
  O       -1.4607440    -0.6783760    -0.0000110
  N        0.8364910    -1.0546300    -0.0000300
  N        2.0313876    -0.4576586    -0.0000862
  C       -0.2000590    -0.1785130    -0.0000310
  C        0.3504840     1.0933250    -0.0000620
  C        1.7415550     0.8590090    -0.0000990
  C       -2.4699820     0.3361590     0.0002330
  H       -0.1651650     2.0416990    -0.0000660
  H        0.7745000    -2.0647320    -0.0000170
  H        2.5420040     1.5875080    -0.0001330
  H       -3.4206380    -0.1946080     0.0003100
  H       -2.3886930     0.9604430    -0.8948830
  H       -2.3884390     0.9602630     0.8954520
units angstrom
no_reorient  #important for SAPT in psi4, default
symmetry c1  #important for SAPT in psi4, default
}

set PROPERTIES_ORIGIN ["COM"]
properties('MP2/aug-cc-pvtz', properties = ['dipole'])
--------------------------------------------------------------------------

    Molecular point group: c1
  Charge       = 0
  Multiplicity = 1
  Basis Set: AUG-CC-PVTZ
    Blend: AUG-CC-PVTZ
  Basis Set: (AUG-CC-PVTZ AUX)
    Blend: AUG-CC-PVTZ-JKFIT

    Orbital Energies [Eh]
    ---------------------

    Doubly Occupied:

       1A    -20.611436     2A    -15.632334     3A    -15.579660
       4A    -11.340862     5A    -11.299699     6A    -11.256364
       7A    -11.220476     8A     -1.439720     9A     -1.363461
      10A     -1.089097    11A     -1.050563    12A     -0.960404
      13A     -0.819351    14A     -0.802663    15A     -0.754546
      16A     -0.679356    17A     -0.650103    18A     -0.626874
      19A     -0.602663    20A     -0.598155    21A     -0.581486
      22A     -0.527176    23A     -0.506758    24A     -0.451923
      25A     -0.366331    26A     -0.323575

  @DF-RHF Final Energy:  -338.79947117281853

   => Energetics <=

    Nuclear Repulsion Energy =            296.1147515997382129
    One-Electron Energy =               -1047.5583711141073309
    Two-Electron Energy =                 412.6441483415506468
    Total Energy =                       -338.7994711728185280
  Basis Set: (AUG-CC-PVTZ AUX)
    Blend: AUG-CC-PVTZ-RI
    Molecular point group: c1

    Geometry (in Angstrom), charge = 0, multiplicity = 1:

       Center              X                  Y                   Z               Mass
    ------------   -----------------  -----------------  -----------------  -----------------
         O           -1.509421143859    -0.643789133378    -0.000004442873    15.994914619570
         N            0.787813856141    -1.020043133378    -0.000023442873    14.003074004430
         N            1.982710456141    -0.423071733378    -0.000079642873    14.003074004430
         C           -0.248736143859    -0.143926133378    -0.000024442873    12.000000000000
         C            0.301806856141     1.127911866622    -0.000055442873    12.000000000000
         C            1.692877856141     0.893595866622    -0.000092442873    12.000000000000
         C           -2.518659143859     0.370745866622     0.000239557127    12.000000000000
         H           -0.213842143859     2.076285866622    -0.000059442873     1.007825032230
         H            0.725822856141    -2.030145133378    -0.000010442873     1.007825032230
         H            2.493326856141     1.622094866622    -0.000126442873     1.007825032230
         H           -3.469315143859    -0.160021133378     0.000316557127     1.007825032230
         H           -2.437370143859     0.995029866622    -0.894876442873     1.007825032230
         H           -2.437116143859     0.994849866622     0.895458557127     1.007825032230

  Basis Set: AUG-CC-PVTZ
    Blend: AUG-CC-PVTZ
  Basis Set: (AUG-CC-PVTZ AUX)
    Blend: AUG-CC-PVTZ-JKFIT
	 Reference Energy          =    -338.7994711728185280 [Eh]
	 Singles Energy            =      -0.0000000000000000 [Eh]
	 Same-Spin Energy          =      -0.3534731055778932 [Eh]
	 Opposite-Spin Energy      =      -1.0832009450081013 [Eh]
	 Correlation Energy        =      -1.4366740505859945 [Eh]
	 Total Energy              =    -340.2361452234045487 [Eh]

	 ================> DF-SCS-MP2 Energies <==================
	-----------------------------------------------------------
	 SCS Same-Spin Scale       =       0.3333333333333333 [-]
	 SCS Opposite-Spin Scale   =       1.2000000000000000 [-]
	 SCS Same-Spin Energy      =      -0.1178243685259644 [Eh]
	 SCS Opposite-Spin Energy  =      -1.2998411340097216 [Eh]
	 SCS Correlation Energy    =      -1.4176655025356859 [Eh]
	 SCS Total Energy          =    -340.2171366753541975 [Eh]
	-----------------------------------------------------------

  Dipole Moment: [D]
     X:    -3.1032      Y:     0.6274      Z:     0.0003     Total:     3.1660

*** Psi4 exiting successfully. Buy a developer a beer!
