                               Psi4 1.3.2 release

  ==> Input File <==

--------------------------------------------------------------------------
#psi4
#
memory 32 gb

molecule  {
0 1
  O       -1.4607440    -0.6783760    -0.0000110
  N        0.8364910    -1.0546300    -0.0000300
  N        2.0492790    -0.4487200    -0.0000870
  C       -0.2000590    -0.1785130    -0.0000310
  C        0.3504840     1.0933250    -0.0000620
  C        1.7454325     0.8833222    -0.0000996
  C       -2.4699820     0.3361590     0.0002330
  H       -0.1651650     2.0416990    -0.0000660
  H        0.7745000    -2.0647320    -0.0000170
  H        2.5420040     1.5875080    -0.0001330
  H       -3.4206380    -0.1946080     0.0003100
  H       -2.3886930     0.9604430    -0.8948830
  H       -2.3884390     0.9602630     0.8954520
units angstrom
no_reorient  #important for SAPT in psi4, default
symmetry c1  #important for SAPT in psi4, default
}

set PROPERTIES_ORIGIN ["COM"]
properties('MP2/aug-cc-pvtz', properties = ['dipole'])
--------------------------------------------------------------------------

    Molecular point group: c1
  Charge       = 0
  Multiplicity = 1
  Basis Set: AUG-CC-PVTZ
    Blend: AUG-CC-PVTZ
  Basis Set: (AUG-CC-PVTZ AUX)
    Blend: AUG-CC-PVTZ-JKFIT

    Orbital Energies [Eh]
    ---------------------

    Doubly Occupied:

       1A    -20.612580     2A    -15.632096     3A    -15.582232
       4A    -11.342679     5A    -11.300204     6A    -11.258344
       7A    -11.221374     8A     -1.439785     9A     -1.352907
      10A     -1.087326    11A     -1.048104    12A     -0.960717
      13A     -0.821730    14A     -0.799891    15A     -0.754478
      16A     -0.679447    17A     -0.650736    18A     -0.623754
      19A     -0.600480    20A     -0.598230    21A     -0.581893
      22A     -0.528512    23A     -0.506037    24A     -0.452302
      25A     -0.366254    26A     -0.322914

  @DF-RHF Final Energy:  -338.79687411813484

   => Energetics <=

    Nuclear Repulsion Energy =            295.2708123559453384
    One-Electron Energy =               -1045.8853569307862017
    Two-Electron Energy =                 411.8176704567060824
    Total Energy =                       -338.7968741181348378
  Basis Set: (AUG-CC-PVTZ AUX)
    Blend: AUG-CC-PVTZ-RI
    Molecular point group: c1

    Geometry (in Angstrom), charge = 0, multiplicity = 1:

       Center              X                  Y                   Z               Mass
    ------------   -----------------  -----------------  -----------------  -----------------
         O           -1.512450930896    -0.648041399847    -0.000004255185    15.994914619570
         N            0.784784069104    -1.024295399847    -0.000023255185    14.003074004430
         N            1.997572069104    -0.418385399847    -0.000080255185    14.003074004430
         C           -0.251765930896    -0.148178399847    -0.000024255185    12.000000000000
         C            0.298777069104     1.123659600153    -0.000055255185    12.000000000000
         C            1.693725569104     0.913656800153    -0.000092855185    12.000000000000
         C           -2.521688930896     0.366493600153     0.000239744815    12.000000000000
         H           -0.216871930896     2.072033600153    -0.000059255185     1.007825032230
         H            0.722793069104    -2.034397399847    -0.000010255185     1.007825032230
         H            2.490297069104     1.617842600153    -0.000126255185     1.007825032230
         H           -3.472344930896    -0.164273399847     0.000316744815     1.007825032230
         H           -2.440399930896     0.990777600153    -0.894876255185     1.007825032230
         H           -2.440145930896     0.990597600153     0.895458744815     1.007825032230

  Basis Set: AUG-CC-PVTZ
    Blend: AUG-CC-PVTZ
  Basis Set: (AUG-CC-PVTZ AUX)
    Blend: AUG-CC-PVTZ-JKFIT
	 Reference Energy          =    -338.7968741181348378 [Eh]
	 Singles Energy            =      -0.0000000000000000 [Eh]
	 Same-Spin Energy          =      -0.3538226306096553 [Eh]
	 Opposite-Spin Energy      =      -1.0845271383286021 [Eh]
	 Correlation Energy        =      -1.4383497689382574 [Eh]
	 Total Energy              =    -340.2352238870731185 [Eh]

	 ================> DF-SCS-MP2 Energies <==================
	-----------------------------------------------------------
	 SCS Same-Spin Scale       =       0.3333333333333333 [-]
	 SCS Opposite-Spin Scale   =       1.2000000000000000 [-]
	 SCS Same-Spin Energy      =      -0.1179408768698851 [Eh]
	 SCS Opposite-Spin Energy  =      -1.3014325659943224 [Eh]
	 SCS Correlation Energy    =      -1.4193734428642075 [Eh]
	 SCS Total Energy          =    -340.2162475609990224 [Eh]
	-----------------------------------------------------------

  Dipole Moment: [D]
     X:    -3.1348      Y:     0.6478      Z:     0.0003     Total:     3.2010

*** Psi4 exiting successfully. Buy a developer a beer!
