                               Psi4 1.3.2 release

  ==> Input File <==

--------------------------------------------------------------------------
#psi4
#
memory 32 gb

molecule  {
0 1
  O       -1.4607440    -0.6783760    -0.0000110
  N        0.8364910    -1.0546300    -0.0000300
  N        2.0492790    -0.4487200    -0.0000870
  C       -0.0473117    -0.3076187    -0.0000309
  C        0.3504840     1.0933250    -0.0000620
  C        1.7415550     0.8590090    -0.0000990
  C       -2.4699820     0.3361590     0.0002330
  H       -0.1651650     2.0416990    -0.0000660
  H        0.7745000    -2.0647320    -0.0000170
  H        2.5420040     1.5875080    -0.0001330
  H       -3.4206380    -0.1946080     0.0003100
  H       -2.3886930     0.9604430    -0.8948830
  H       -2.3884390     0.9602630     0.8954520
units angstrom
no_reorient  #important for SAPT in psi4, default
symmetry c1  #important for SAPT in psi4, default
}

set PROPERTIES_ORIGIN ["COM"]
properties('MP2/aug-cc-pvtz', properties = ['dipole'])
--------------------------------------------------------------------------

    Molecular point group: c1
  Charge       = 0
  Multiplicity = 1
  Basis Set: AUG-CC-PVTZ
    Blend: AUG-CC-PVTZ
  Basis Set: (AUG-CC-PVTZ AUX)
    Blend: AUG-CC-PVTZ-JKFIT

    Orbital Energies [Eh]
    ---------------------

    Doubly Occupied:

       1A    -20.592460     2A    -15.649944     3A    -15.569463
       4A    -11.340653     5A    -11.291787     6A    -11.263410
       7A    -11.218824     8A     -1.446779     9A     -1.367727
      10A     -1.141920    11A     -1.038385    12A     -0.943290
      13A     -0.847925    14A     -0.823532    15A     -0.738954
      16A     -0.679810    17A     -0.635985    18A     -0.625580
      19A     -0.622509    20A     -0.610422    21A     -0.574929
      22A     -0.488287    23A     -0.486330    24A     -0.455200
      25A     -0.391377    26A     -0.321621

  @DF-RHF Final Energy:  -338.74050942616219

   => Energetics <=

    Nuclear Repulsion Energy =            296.8478691172112462
    One-Electron Energy =               -1048.8425508469199485
    Two-Electron Energy =                 413.2541723035464543
    Total Energy =                       -338.7405094261621912
  Basis Set: (AUG-CC-PVTZ AUX)
    Blend: AUG-CC-PVTZ-RI
    Molecular point group: c1

    Geometry (in Angstrom), charge = 0, multiplicity = 1:

       Center              X                  Y                   Z               Mass
    ------------   -----------------  -----------------  -----------------  -----------------
         O           -1.530670959519    -0.629264611343    -0.000004340857    15.994914619570
         N            0.766564040481    -1.005518611343    -0.000023340857    14.003074004430
         N            1.979352040481    -0.399608611343    -0.000080340857    14.003074004430
         C           -0.117238659519    -0.258507311343    -0.000024240857    12.000000000000
         C            0.280557040481     1.142436388657    -0.000055340857    12.000000000000
         C            1.671628040481     0.908120388657    -0.000092340857    12.000000000000
         C           -2.539908959519     0.385270388657     0.000239659143    12.000000000000
         H           -0.235091959519     2.090810388657    -0.000059340857     1.007825032230
         H            0.704573040481    -2.015620611343    -0.000010340857     1.007825032230
         H            2.472077040481     1.636619388657    -0.000126340857     1.007825032230
         H           -3.490564959519    -0.145496611343     0.000316659143     1.007825032230
         H           -2.458619959519     1.009554388657    -0.894876340857     1.007825032230
         H           -2.458365959519     1.009374388657     0.895458659143     1.007825032230

  Basis Set: AUG-CC-PVTZ
    Blend: AUG-CC-PVTZ
  Basis Set: (AUG-CC-PVTZ AUX)
    Blend: AUG-CC-PVTZ-JKFIT
	 Reference Energy          =    -338.7405094261621912 [Eh]
	 Singles Energy            =      -0.0000000000000000 [Eh]
	 Same-Spin Energy          =      -0.3516137554225797 [Eh]
	 Opposite-Spin Energy      =      -1.0797807128543893 [Eh]
	 Correlation Energy        =      -1.4313944682769688 [Eh]
	 Total Energy              =    -340.1719038944391400 [Eh]

	 ================> DF-SCS-MP2 Energies <==================
	-----------------------------------------------------------
	 SCS Same-Spin Scale       =       0.3333333333333333 [-]
	 SCS Opposite-Spin Scale   =       1.2000000000000000 [-]
	 SCS Same-Spin Energy      =      -0.1172045851408599 [Eh]
	 SCS Opposite-Spin Energy  =      -1.2957368554252671 [Eh]
	 SCS Correlation Energy    =      -1.4129414405661269 [Eh]
	 SCS Total Energy          =    -340.1534508667282921 [Eh]
	-----------------------------------------------------------

  Dipole Moment: [D]
     X:    -2.4914      Y:     0.2764      Z:     0.0003     Total:     2.5067

*** Psi4 exiting successfully. Buy a developer a beer!
