                               Psi4 1.4a3.dev225

  ==> Input File <==

--------------------------------------------------------------------------
#psi4
#
memory 32 gb

molecule  {
0 1
  O       -1.4607440    -0.6783760    -0.0000110
  N        0.8364910    -1.0546300    -0.0000300
  N        2.0492790    -0.4487200    -0.0000870
  C       -0.2000590    -0.1785130    -0.0000310
  C        0.3504840     1.0933250    -0.0000620
  C        1.7415550     0.8590090    -0.0000990
  C       -2.4699820     0.3361590     0.0002330
  H       -0.1651650     2.0416990    -0.0000660
  H        0.7745000    -2.0647320    -0.0000170
  H        2.5272127     1.5740463    -0.0001324
  H       -3.4206380    -0.1946080     0.0003100
  H       -2.3886930     0.9604430    -0.8948830
  H       -2.3884390     0.9602630     0.8954520
units angstrom
no_reorient  #important for SAPT in psi4, default
symmetry c1  #important for SAPT in psi4, default
}

set PROPERTIES_ORIGIN ["COM"]
properties('MP2/aug-cc-pvtz', properties = ['dipole'])
--------------------------------------------------------------------------

    Molecular point group: c1
  Charge       = 0
  Multiplicity = 1
  Basis Set: AUG-CC-PVTZ
    Blend: AUG-CC-PVTZ
  Basis Set: (AUG-CC-PVTZ AUX)
    Blend: AUG-CC-PVTZ-JKFIT

    Orbital Energies [Eh]
    ---------------------

    Doubly Occupied:

       1A    -20.612501     2A    -15.630336     3A    -15.580731
       4A    -11.342860     5A    -11.300145     6A    -11.255109
       7A    -11.220013     8A     -1.439887     9A     -1.356232
      10A     -1.091622    11A     -1.048455    12A     -0.961477
      13A     -0.820192    14A     -0.800491    15A     -0.755216
      16A     -0.679472    17A     -0.650207    18A     -0.625689
      19A     -0.599764    20A     -0.599269    21A     -0.582062
      22A     -0.527963    23A     -0.506651    24A     -0.454089
      25A     -0.366459    26A     -0.325605

  @DF-RHF Final Energy:  -338.79965356609137

   => Energetics <=

    Nuclear Repulsion Energy =            295.8103911773447408
    One-Electron Energy =               -1046.9550965243695373
    Two-Electron Energy =                 412.3450517809334315
    Total Energy =                       -338.7996535660913651
  Basis Set: (AUG-CC-PVTZ AUX)
    Blend: AUG-CC-PVTZ-RI
    Molecular point group: c1

    Geometry (in Angstrom), charge = 0, multiplicity = 1:

       Center              X                  Y                   Z               Mass
    ------------   -----------------  -----------------  -----------------  -----------------
         O           -1.511824329289    -0.644927359802    -0.000004334786    15.994914619570
         N            0.785410670711    -1.021181359802    -0.000023334786    14.003074004430
         N            1.998198670711    -0.415271359802    -0.000080334786    14.003074004430
         C           -0.251139329289    -0.145064359802    -0.000024334786    12.000000000000
         C            0.299403670711     1.126773640198    -0.000055334786    12.000000000000
         C            1.690474670711     0.892457640198    -0.000092334786    12.000000000000
         C           -2.521062329289     0.369607640198     0.000239665214    12.000000000000
         H           -0.216245329289     2.075147640198    -0.000059334786     1.007825032230
         H            0.723419670711    -2.031283359802    -0.000010334786     1.007825032230
         H            2.476132370711     1.607494940198    -0.000125734786     1.007825032230
         H           -3.471718329289    -0.161159359802     0.000316665214     1.007825032230
         H           -2.439773329289     0.993891640198    -0.894876334786     1.007825032230
         H           -2.439519329289     0.993711640198     0.895458665214     1.007825032230

  Basis Set: AUG-CC-PVTZ
    Blend: AUG-CC-PVTZ
  Basis Set: (AUG-CC-PVTZ AUX)
    Blend: AUG-CC-PVTZ-JKFIT
	 Reference Energy          =    -338.7996535660913651 [Eh]
	 Singles Energy            =      -0.0000000000000000 [Eh]
	 Same-Spin Energy          =      -0.3532181437899440 [Eh]
	 Opposite-Spin Energy      =      -1.0832226024939700 [Eh]
	 Correlation Energy        =      -1.4364407462839139 [Eh]
	 Total Energy              =    -340.2360943123752577 [Eh]

	 ================> DF-SCS-MP2 Energies <==================
	-----------------------------------------------------------
	 SCS Same-Spin Scale       =       0.3333333333333333 [-]
	 SCS Opposite-Spin Scale   =       1.2000000000000000 [-]
	 SCS Same-Spin Energy      =      -0.1177393812633147 [Eh]
	 SCS Opposite-Spin Energy  =      -1.2998671229927639 [Eh]
	 SCS Correlation Energy    =      -1.4176065042560786 [Eh]
	 SCS Total Energy          =    -340.2172600703474359 [Eh]
	-----------------------------------------------------------

  Dipole Moment: [D]
     X:    -3.1262      Y:     0.6489      Z:     0.0003     Total:     3.1928

*** Psi4 exiting successfully. Buy a developer a beer!
