                               Psi4 1.3.2 release

  ==> Input File <==

--------------------------------------------------------------------------
#psi4
#
memory 32 gb

molecule  {
0 1
  O       -1.4607440    -0.6783760    -0.0000110
  N        0.8364910    -1.0546300    -0.0000300
  N        2.0492790    -0.4487200    -0.0000870
  C       -0.2586488    -0.2529532    -0.0000295
  C        0.3504840     1.0933250    -0.0000620
  C        1.7415550     0.8590090    -0.0000990
  C       -2.4699820     0.3361590     0.0002330
  H       -0.1651650     2.0416990    -0.0000660
  H        0.7745000    -2.0647320    -0.0000170
  H        2.5420040     1.5875080    -0.0001330
  H       -3.4206380    -0.1946080     0.0003100
  H       -2.3886930     0.9604430    -0.8948830
  H       -2.3884390     0.9602630     0.8954520
units angstrom
no_reorient  #important for SAPT in psi4, default
symmetry c1  #important for SAPT in psi4, default
}

set PROPERTIES_ORIGIN ["COM"]
properties('MP2/aug-cc-pvtz', properties = ['dipole'])
--------------------------------------------------------------------------

    Molecular point group: c1
  Charge       = 0
  Multiplicity = 1
  Basis Set: AUG-CC-PVTZ
    Blend: AUG-CC-PVTZ
  Basis Set: (AUG-CC-PVTZ AUX)
    Blend: AUG-CC-PVTZ-JKFIT

    Orbital Energies [Eh]
    ---------------------

    Doubly Occupied:

       1A    -20.625792     2A    -15.630555     3A    -15.571767
       4A    -11.352375     5A    -11.310758     6A    -11.253533
       7A    -11.218924     8A     -1.480909     9A     -1.351120
      10A     -1.094480    11A     -1.028461    12A     -0.977380
      13A     -0.814679    14A     -0.796057    15A     -0.769991
      16A     -0.697744    17A     -0.666203    18A     -0.622872
      19A     -0.596823    20A     -0.591163    21A     -0.580510
      22A     -0.522203    23A     -0.521906    24A     -0.447081
      25A     -0.361984    26A     -0.307046

  @DF-RHF Final Energy:  -338.78810960618017

   => Energetics <=

    Nuclear Repulsion Energy =            295.6256504199674850
    One-Electron Energy =               -1046.4428860312987126
    Two-Electron Energy =                 412.0291260051509994
    Total Energy =                       -338.7881096061801713
  Basis Set: (AUG-CC-PVTZ AUX)
    Blend: AUG-CC-PVTZ-RI
    Molecular point group: c1

    Geometry (in Angstrom), charge = 0, multiplicity = 1:

       Center              X                  Y                   Z               Mass
    ------------   -----------------  -----------------  -----------------  -----------------
         O           -1.504805619396    -0.635955068203    -0.000004512202    15.994914619570
         N            0.792429380604    -1.012209068203    -0.000023512202    14.003074004430
         N            2.005217380604    -0.406299068203    -0.000080512202    14.003074004430
         C           -0.302710419396    -0.210532268203    -0.000023012202    12.000000000000
         C            0.306422380604     1.135745931797    -0.000055512202    12.000000000000
         C            1.697493380604     0.901429931797    -0.000092512202    12.000000000000
         C           -2.514043619396     0.378579931797     0.000239487798    12.000000000000
         H           -0.209226619396     2.084119931797    -0.000059512202     1.007825032230
         H            0.730438380604    -2.022311068203    -0.000010512202     1.007825032230
         H            2.497942380604     1.629928931797    -0.000126512202     1.007825032230
         H           -3.464699619396    -0.152187068203     0.000316487798     1.007825032230
         H           -2.432754619396     1.002863931797    -0.894876512202     1.007825032230
         H           -2.432500619396     1.002683931797     0.895458487798     1.007825032230

  Basis Set: AUG-CC-PVTZ
    Blend: AUG-CC-PVTZ
  Basis Set: (AUG-CC-PVTZ AUX)
    Blend: AUG-CC-PVTZ-JKFIT
	 Reference Energy          =    -338.7881096061801713 [Eh]
	 Singles Energy            =      -0.0000000000000000 [Eh]
	 Same-Spin Energy          =      -0.3534977902359971 [Eh]
	 Opposite-Spin Energy      =      -1.0826582474804898 [Eh]
	 Correlation Energy        =      -1.4361560377164868 [Eh]
	 Total Energy              =    -340.2242656438966719 [Eh]

	 ================> DF-SCS-MP2 Energies <==================
	-----------------------------------------------------------
	 SCS Same-Spin Scale       =       0.3333333333333333 [-]
	 SCS Opposite-Spin Scale   =       1.2000000000000000 [-]
	 SCS Same-Spin Energy      =      -0.1178325967453324 [Eh]
	 SCS Opposite-Spin Energy  =      -1.2991898969765876 [Eh]
	 SCS Correlation Energy    =      -1.4170224937219200 [Eh]
	 SCS Total Energy          =    -340.2051320999020732 [Eh]
	-----------------------------------------------------------

  Dipole Moment: [D]
     X:    -3.7075      Y:     0.3989      Z:     0.0004     Total:     3.7289

*** Psi4 exiting successfully. Buy a developer a beer!
