                               Psi4 1.3.2 release

  ==> Input File <==

--------------------------------------------------------------------------
#psi4
#
memory 32 gb

molecule  {
0 1
  O       -1.4607440    -0.6783760    -0.0000110
  N        0.8210428    -1.0725869    -0.0000295
  N        2.0492790    -0.4487200    -0.0000870
  C       -0.2000590    -0.1785130    -0.0000310
  C        0.3504840     1.0933250    -0.0000620
  C        1.7415550     0.8590090    -0.0000990
  C       -2.4699820     0.3361590     0.0002330
  H       -0.1651650     2.0416990    -0.0000660
  H        0.7745000    -2.0647320    -0.0000170
  H        2.5420040     1.5875080    -0.0001330
  H       -3.4206380    -0.1946080     0.0003100
  H       -2.3886930     0.9604430    -0.8948830
  H       -2.3884390     0.9602630     0.8954520
units angstrom
no_reorient  #important for SAPT in psi4, default
symmetry c1  #important for SAPT in psi4, default
}

set PROPERTIES_ORIGIN ["COM"]
properties('MP2/aug-cc-pvtz', properties = ['dipole'])
--------------------------------------------------------------------------

    Molecular point group: c1
  Charge       = 0
  Multiplicity = 1
  Basis Set: AUG-CC-PVTZ
    Blend: AUG-CC-PVTZ
  Basis Set: (AUG-CC-PVTZ AUX)
    Blend: AUG-CC-PVTZ-JKFIT

    Orbital Energies [Eh]
    ---------------------

    Doubly Occupied:

       1A    -20.612429     2A    -15.627557     3A    -15.581317
       4A    -11.345036     5A    -11.299951     6A    -11.259710
       7A    -11.220533     8A     -1.439909     9A     -1.348192
      10A     -1.094360    11A     -1.046301    12A     -0.961584
      13A     -0.822177    14A     -0.797746    15A     -0.754867
      16A     -0.679206    17A     -0.650423    18A     -0.624114
      19A     -0.601498    20A     -0.596477    21A     -0.580032
      22A     -0.527958    23A     -0.505608    24A     -0.452329
      25A     -0.368533    26A     -0.326107

  @DF-RHF Final Energy:  -338.79895288664181

   => Energetics <=

    Nuclear Repulsion Energy =            295.3679531003824650
    One-Electron Energy =               -1046.0859079278345689
    Two-Electron Energy =                 411.9190019408102899
    Total Energy =                       -338.7989528866418141
  Basis Set: (AUG-CC-PVTZ AUX)
    Blend: AUG-CC-PVTZ-RI
    Molecular point group: c1

    Geometry (in Angstrom), charge = 0, multiplicity = 1:

       Center              X                  Y                   Z               Mass
    ------------   -----------------  -----------------  -----------------  -----------------
         O           -1.509770078115    -0.642501152942    -0.000004400028    15.994914619570
         N            0.772016721885    -1.036712052942    -0.000022900028    14.003074004430
         N            2.000252921885    -0.412845152942    -0.000080400028    14.003074004430
         C           -0.249085078115    -0.142638152942    -0.000024400028    12.000000000000
         C            0.301457921885     1.129199847058    -0.000055400028    12.000000000000
         C            1.692528921885     0.894883847058    -0.000092400028    12.000000000000
         C           -2.519008078115     0.372033847058     0.000239599972    12.000000000000
         H           -0.214191078115     2.077573847058    -0.000059400028     1.007825032230
         H            0.725473921885    -2.028857152942    -0.000010400028     1.007825032230
         H            2.492977921885     1.623382847058    -0.000126400028     1.007825032230
         H           -3.469664078115    -0.158733152942     0.000316599972     1.007825032230
         H           -2.437719078115     0.996317847058    -0.894876400028     1.007825032230
         H           -2.437465078115     0.996137847058     0.895458599972     1.007825032230

  Basis Set: AUG-CC-PVTZ
    Blend: AUG-CC-PVTZ
  Basis Set: (AUG-CC-PVTZ AUX)
    Blend: AUG-CC-PVTZ-JKFIT
	 Reference Energy          =    -338.7989528866418141 [Eh]
	 Singles Energy            =      -0.0000000000000000 [Eh]
	 Same-Spin Energy          =      -0.3529095305293647 [Eh]
	 Opposite-Spin Energy      =      -1.0833534149174080 [Eh]
	 Correlation Energy        =      -1.4362629454467726 [Eh]
	 Total Energy              =    -340.2352158320886133 [Eh]

	 ================> DF-SCS-MP2 Energies <==================
	-----------------------------------------------------------
	 SCS Same-Spin Scale       =       0.3333333333333333 [-]
	 SCS Opposite-Spin Scale   =       1.2000000000000000 [-]
	 SCS Same-Spin Energy      =      -0.1176365101764549 [Eh]
	 SCS Opposite-Spin Energy  =      -1.3000240979008895 [Eh]
	 SCS Correlation Energy    =      -1.4176606080773444 [Eh]
	 SCS Total Energy          =    -340.2166134947191836 [Eh]
	-----------------------------------------------------------

  Dipole Moment: [D]
     X:    -3.1138      Y:     0.7009      Z:     0.0003     Total:     3.1917

*** Psi4 exiting successfully. Buy a developer a beer!
