                               Psi4 1.3.2 release

  ==> Input File <==

--------------------------------------------------------------------------
#psi4
#
memory 32 gb

molecule  {
0 1
  O       -1.4607440    -0.6783760    -0.0000110
  N        0.8364910    -1.0546300    -0.0000300
  N        2.0492790    -0.4487200    -0.0000870
  C       -0.2000590    -0.1785130    -0.0000310
  C        0.3504840     1.0933250    -0.0000620
  C        1.7415550     0.8590090    -0.0000990
  C       -2.4699820     0.3361590     0.0002330
  H       -0.2129327     2.1295526    -0.0000664
  H        0.7745000    -2.0647320    -0.0000170
  H        2.5420040     1.5875080    -0.0001330
  H       -3.4206380    -0.1946080     0.0003100
  H       -2.3886930     0.9604430    -0.8948830
  H       -2.3884390     0.9602630     0.8954520
units angstrom
no_reorient  #important for SAPT in psi4, default
symmetry c1  #important for SAPT in psi4, default
}

set PROPERTIES_ORIGIN ["COM"]
properties('MP2/aug-cc-pvtz', properties = ['dipole'])
--------------------------------------------------------------------------

    Molecular point group: c1
  Charge       = 0
  Multiplicity = 1
  Basis Set: AUG-CC-PVTZ
    Blend: AUG-CC-PVTZ
  Basis Set: (AUG-CC-PVTZ AUX)
    Blend: AUG-CC-PVTZ-JKFIT

    Orbital Energies [Eh]
    ---------------------

    Doubly Occupied:

       1A    -20.612619     2A    -15.631081     3A    -15.581539
       4A    -11.343860     5A    -11.299811     6A    -11.258361
       7A    -11.231111     8A     -1.440059     9A     -1.357008
      10A     -1.091750    11A     -1.046808    12A     -0.960905
      13A     -0.817852    14A     -0.793399    15A     -0.754212
      16A     -0.679523    17A     -0.646027    18A     -0.623673
      19A     -0.600314    20A     -0.589218    21A     -0.575430
      22A     -0.525640    23A     -0.506695    24A     -0.454038
      25A     -0.367132    26A     -0.326255

  @DF-RHF Final Energy:  -338.79190933105707

   => Energetics <=

    Nuclear Repulsion Energy =            295.2462945463748838
    One-Electron Energy =               -1045.8477706968674283
    Two-Electron Energy =                 411.8095668194354744
    Total Energy =                       -338.7919093310570702
  Basis Set: (AUG-CC-PVTZ AUX)
    Blend: AUG-CC-PVTZ-RI
    Molecular point group: c1

    Geometry (in Angstrom), charge = 0, multiplicity = 1:

       Center              X                  Y                   Z               Mass
    ------------   -----------------  -----------------  -----------------  -----------------
         O           -1.511485368402    -0.645968768930    -0.000004324507    15.994914619570
         N            0.785749631598    -1.022222768930    -0.000023324507    14.003074004430
         N            1.998537631598    -0.416312768930    -0.000080324507    14.003074004430
         C           -0.250800368402    -0.146105768930    -0.000024324507    12.000000000000
         C            0.299742631598     1.125732231070    -0.000055324507    12.000000000000
         C            1.690813631598     0.891416231070    -0.000092324507    12.000000000000
         C           -2.520723368402     0.368566231070     0.000239675493    12.000000000000
         H           -0.263674068402     2.161959831070    -0.000059724507     1.007825032230
         H            0.723758631598    -2.032324768930    -0.000010324507     1.007825032230
         H            2.491262631598     1.619915231070    -0.000126324507     1.007825032230
         H           -3.471379368402    -0.162200768930     0.000316675493     1.007825032230
         H           -2.439434368402     0.992850231070    -0.894876324507     1.007825032230
         H           -2.439180368402     0.992670231070     0.895458675493     1.007825032230

  Basis Set: AUG-CC-PVTZ
    Blend: AUG-CC-PVTZ
  Basis Set: (AUG-CC-PVTZ AUX)
    Blend: AUG-CC-PVTZ-JKFIT
	 Reference Energy          =    -338.7919093310570702 [Eh]
	 Singles Energy            =      -0.0000000000000000 [Eh]
	 Same-Spin Energy          =      -0.3534591956517913 [Eh]
	 Opposite-Spin Energy      =      -1.0840895922488374 [Eh]
	 Correlation Energy        =      -1.4375487879006288 [Eh]
	 Total Energy              =    -340.2294581189577229 [Eh]

	 ================> DF-SCS-MP2 Energies <==================
	-----------------------------------------------------------
	 SCS Same-Spin Scale       =       0.3333333333333333 [-]
	 SCS Opposite-Spin Scale   =       1.2000000000000000 [-]
	 SCS Same-Spin Energy      =      -0.1178197318839304 [Eh]
	 SCS Opposite-Spin Energy  =      -1.3009075106986048 [Eh]
	 SCS Correlation Energy    =      -1.4187272425825352 [Eh]
	 SCS Total Energy          =    -340.2106365736395901 [Eh]
	-----------------------------------------------------------

  Dipole Moment: [D]
     X:    -3.1148      Y:     0.6454      Z:     0.0003     Total:     3.1810

*** Psi4 exiting successfully. Buy a developer a beer!
