                               Psi4 1.3.2 release

  ==> Input File <==

--------------------------------------------------------------------------
#psi4
#
memory 32 gb

molecule  {
0 1
  O       -1.4607440    -0.6783760    -0.0000110
  N        0.8364910    -1.0546300    -0.0000300
  N        2.0492790    -0.4487200    -0.0000870
  C       -0.2000590    -0.1785130    -0.0000310
  C        0.3336117     0.9466349    -0.0000593
  C        1.7415550     0.8590090    -0.0000990
  C       -2.4699820     0.3361590     0.0002330
  H       -0.1651650     2.0416990    -0.0000660
  H        0.7745000    -2.0647320    -0.0000170
  H        2.5420040     1.5875080    -0.0001330
  H       -3.4206380    -0.1946080     0.0003100
  H       -2.3886930     0.9604430    -0.8948830
  H       -2.3884390     0.9602630     0.8954520
units angstrom
no_reorient  #important for SAPT in psi4, default
symmetry c1  #important for SAPT in psi4, default
}

set PROPERTIES_ORIGIN ["COM"]
properties('MP2/aug-cc-pvtz', properties = ['dipole'])
--------------------------------------------------------------------------

    Molecular point group: c1
  Charge       = 0
  Multiplicity = 1
  Basis Set: AUG-CC-PVTZ
    Blend: AUG-CC-PVTZ
  Basis Set: (AUG-CC-PVTZ AUX)
    Blend: AUG-CC-PVTZ-JKFIT

    Orbital Energies [Eh]
    ---------------------

    Doubly Occupied:

       1A    -20.607795     2A    -15.620946     3A    -15.588547
       4A    -11.318984     5A    -11.297286     6A    -11.256320
       7A    -11.213867     8A     -1.438040     9A     -1.362269
      10A     -1.091181    11A     -1.072247    12A     -0.960490
      13A     -0.824765    14A     -0.786544    15A     -0.756610
      16A     -0.680541    17A     -0.656475    18A     -0.625074
      19A     -0.604720    20A     -0.594740    21A     -0.554638
      22A     -0.529913    23A     -0.504523    24A     -0.451892
      25A     -0.368399    26A     -0.341157

  @DF-RHF Final Energy:  -338.76724181302126

   => Energetics <=

    Nuclear Repulsion Energy =            298.6239647767521319
    One-Electron Energy =               -1052.5664887619918773
    Two-Electron Energy =                 415.1752821722184876
    Total Energy =                       -338.7672418130212577
  Basis Set: (AUG-CC-PVTZ AUX)
    Blend: AUG-CC-PVTZ-RI
    Molecular point group: c1

    Geometry (in Angstrom), charge = 0, multiplicity = 1:

       Center              X                  Y                   Z               Mass
    ------------   -----------------  -----------------  -----------------  -----------------
         O           -1.509911383252    -0.627112473896    -0.000004659069    15.994914619570
         N            0.787323616748    -1.003366473896    -0.000023659069    14.003074004430
         N            2.000111616748    -0.397456473896    -0.000080659069    14.003074004430
         C           -0.249226383252    -0.127249473896    -0.000024659069    12.000000000000
         C            0.284444316748     0.997898426104    -0.000052959069    12.000000000000
         C            1.692387616748     0.910272526104    -0.000092659069    12.000000000000
         C           -2.519149383252     0.387422526104     0.000239340931    12.000000000000
         H           -0.214332383252     2.092962526104    -0.000059659069     1.007825032230
         H            0.725332616748    -2.013468473896    -0.000010659069     1.007825032230
         H            2.492836616748     1.638771526104    -0.000126659069     1.007825032230
         H           -3.469805383252    -0.143344473896     0.000316340931     1.007825032230
         H           -2.437860383252     1.011706526104    -0.894876659069     1.007825032230
         H           -2.437606383252     1.011526526104     0.895458340931     1.007825032230

  Basis Set: AUG-CC-PVTZ
    Blend: AUG-CC-PVTZ
  Basis Set: (AUG-CC-PVTZ AUX)
    Blend: AUG-CC-PVTZ-JKFIT
	 Reference Energy          =    -338.7672418130212577 [Eh]
	 Singles Energy            =      -0.0000000000000000 [Eh]
	 Same-Spin Energy          =      -0.3530202861043717 [Eh]
	 Opposite-Spin Energy      =      -1.0830146917076546 [Eh]
	 Correlation Energy        =      -1.4360349778120263 [Eh]
	 Total Energy              =    -340.2032767908332858 [Eh]

	 ================> DF-SCS-MP2 Energies <==================
	-----------------------------------------------------------
	 SCS Same-Spin Scale       =       0.3333333333333333 [-]
	 SCS Opposite-Spin Scale   =       1.2000000000000000 [-]
	 SCS Same-Spin Energy      =      -0.1176734287014572 [Eh]
	 SCS Opposite-Spin Energy  =      -1.2996176300491855 [Eh]
	 SCS Correlation Energy    =      -1.4172910587506427 [Eh]
	 SCS Total Energy          =    -340.1845328717719212 [Eh]
	-----------------------------------------------------------

  Dipole Moment: [D]
     X:    -2.9603      Y:     0.8284      Z:     0.0003     Total:     3.0740

*** Psi4 exiting successfully. Buy a developer a beer!
