                               Psi4 1.3.2 release

  ==> Input File <==

--------------------------------------------------------------------------
#psi4
#
memory 32 gb

molecule  {
0 1
  O       -1.4425311    -0.7220688    -0.0000106
  N        0.8364910    -1.0546300    -0.0000300
  N        2.0492790    -0.4487200    -0.0000870
  C       -0.2000590    -0.1785130    -0.0000310
  C        0.3504840     1.0933250    -0.0000620
  C        1.7415550     0.8590090    -0.0000990
  C       -2.4699820     0.3361590     0.0002330
  H       -0.1651650     2.0416990    -0.0000660
  H        0.7745000    -2.0647320    -0.0000170
  H        2.5420040     1.5875080    -0.0001330
  H       -3.4206380    -0.1946080     0.0003100
  H       -2.3886930     0.9604430    -0.8948830
  H       -2.3884390     0.9602630     0.8954520
units angstrom
no_reorient  #important for SAPT in psi4, default
symmetry c1  #important for SAPT in psi4, default
}

set PROPERTIES_ORIGIN ["COM"]
properties('MP2/aug-cc-pvtz', properties = ['dipole'])
--------------------------------------------------------------------------

    Molecular point group: c1
  Charge       = 0
  Multiplicity = 1
  Basis Set: AUG-CC-PVTZ
    Blend: AUG-CC-PVTZ
  Basis Set: (AUG-CC-PVTZ AUX)
    Blend: AUG-CC-PVTZ-JKFIT

    Orbital Energies [Eh]
    ---------------------

    Doubly Occupied:

       1A    -20.613946     2A    -15.627686     3A    -15.579551
       4A    -11.341281     5A    -11.304988     6A    -11.256554
       7A    -11.220347     8A     -1.432098     9A     -1.352673
      10A     -1.088843    11A     -1.046128    12A     -0.961811
      13A     -0.816902    14A     -0.799061    15A     -0.749627
      16A     -0.673947    17A     -0.643445    18A     -0.623573
      19A     -0.598814    20A     -0.594907    21A     -0.579758
      22A     -0.533460    23A     -0.511443    24A     -0.452257
      25A     -0.365593    26A     -0.324657

  @DF-RHF Final Energy:  -338.79598693414619

   => Energetics <=

    Nuclear Repulsion Energy =            295.1739584525088276
    One-Electron Energy =               -1045.7531896724303806
    Two-Electron Energy =                 411.7832442857753676
    Total Energy =                       -338.7959869341461854
  Basis Set: (AUG-CC-PVTZ AUX)
    Blend: AUG-CC-PVTZ-RI
    Molecular point group: c1

    Geometry (in Angstrom), charge = 0, multiplicity = 1:

       Center              X                  Y                   Z               Mass
    ------------   -----------------  -----------------  -----------------  -----------------
         O           -1.496734601438    -0.681630772179    -0.000003993872    15.994914619570
         N            0.782287498562    -1.014191972179    -0.000023393872    14.003074004430
         N            1.995075498562    -0.408281972179    -0.000080393872    14.003074004430
         C           -0.254262501438    -0.138074972179    -0.000024393872    12.000000000000
         C            0.296280498562     1.133763027821    -0.000055393872    12.000000000000
         C            1.687351498562     0.899447027821    -0.000092393872    12.000000000000
         C           -2.524185501438     0.376597027821     0.000239606128    12.000000000000
         H           -0.219368501438     2.082137027821    -0.000059393872     1.007825032230
         H            0.720296498562    -2.024293972179    -0.000010393872     1.007825032230
         H            2.487800498562     1.627946027821    -0.000126393872     1.007825032230
         H           -3.474841501438    -0.154169972179     0.000316606128     1.007825032230
         H           -2.442896501438     1.000881027821    -0.894876393872     1.007825032230
         H           -2.442642501438     1.000701027821     0.895458606128     1.007825032230

  Basis Set: AUG-CC-PVTZ
    Blend: AUG-CC-PVTZ
  Basis Set: (AUG-CC-PVTZ AUX)
    Blend: AUG-CC-PVTZ-JKFIT
	 Reference Energy          =    -338.7959869341461854 [Eh]
	 Singles Energy            =      -0.0000000000000000 [Eh]
	 Same-Spin Energy          =      -0.3535566755066661 [Eh]
	 Opposite-Spin Energy      =      -1.0846640172626829 [Eh]
	 Correlation Energy        =      -1.4382206927693491 [Eh]
	 Total Energy              =    -340.2342076269155200 [Eh]

	 ================> DF-SCS-MP2 Energies <==================
	-----------------------------------------------------------
	 SCS Same-Spin Scale       =       0.3333333333333333 [-]
	 SCS Opposite-Spin Scale   =       1.2000000000000000 [-]
	 SCS Same-Spin Energy      =      -0.1178522251688887 [Eh]
	 SCS Opposite-Spin Energy  =      -1.3015968207152195 [Eh]
	 SCS Correlation Energy    =      -1.4194490458841083 [Eh]
	 SCS Total Energy          =    -340.2154359800302927 [Eh]
	-----------------------------------------------------------

  Dipole Moment: [D]
     X:    -3.2523      Y:     0.7551      Z:     0.0004     Total:     3.3388

*** Psi4 exiting successfully. Buy a developer a beer!
