                               Psi4 1.3.2 release

  ==> Input File <==

--------------------------------------------------------------------------
#psi4
#
memory 32 gb

molecule  {
0 1
  O       -1.4607440    -0.6783760    -0.0000110
  N        0.8364910    -1.0546300    -0.0000300
  N        2.0492790    -0.4487200    -0.0000870
  C       -0.3299863    -0.1139983    -0.0000281
  C        0.3504840     1.0933250    -0.0000620
  C        1.7415550     0.8590090    -0.0000990
  C       -2.4699820     0.3361590     0.0002330
  H       -0.1651650     2.0416990    -0.0000660
  H        0.7745000    -2.0647320    -0.0000170
  H        2.5420040     1.5875080    -0.0001330
  H       -3.4206380    -0.1946080     0.0003100
  H       -2.3886930     0.9604430    -0.8948830
  H       -2.3884390     0.9602630     0.8954520
units angstrom
no_reorient  #important for SAPT in psi4, default
symmetry c1  #important for SAPT in psi4, default
}

set PROPERTIES_ORIGIN ["COM"]
properties('MP2/aug-cc-pvtz', properties = ['dipole'])
--------------------------------------------------------------------------

    Molecular point group: c1
  Charge       = 0
  Multiplicity = 1
  Basis Set: AUG-CC-PVTZ
    Blend: AUG-CC-PVTZ
  Basis Set: (AUG-CC-PVTZ AUX)
    Blend: AUG-CC-PVTZ-JKFIT

    Orbital Energies [Eh]
    ---------------------

    Doubly Occupied:

       1A    -20.632199     2A    -15.612320     3A    -15.584152
       4A    -11.351815     5A    -11.311291     6A    -11.251295
       7A    -11.223427     8A     -1.492568     9A     -1.329083
      10A     -1.065700    11A     -1.044689    12A     -0.979777
      13A     -0.818042    14A     -0.785812    15A     -0.755984
      16A     -0.702906    17A     -0.667092    18A     -0.639412
      19A     -0.582739    20A     -0.581069    21A     -0.571911
      22A     -0.538267    23A     -0.524524    24A     -0.445547
      25A     -0.359297    26A     -0.311084

  @DF-RHF Final Energy:  -338.76851784164836

   => Energetics <=

    Nuclear Repulsion Energy =            295.2808743852392581
    One-Electron Energy =               -1045.7747825639760322
    Two-Electron Energy =                 411.7253903370884132
    Total Energy =                       -338.7685178416483609
  Basis Set: (AUG-CC-PVTZ AUX)
    Blend: AUG-CC-PVTZ-RI
    Molecular point group: c1

    Geometry (in Angstrom), charge = 0, multiplicity = 1:

       Center              X                  Y                   Z               Mass
    ------------   -----------------  -----------------  -----------------  -----------------
         O           -1.496074692829    -0.652961621952    -0.000004683546    15.994914619570
         N            0.801160307171    -1.029215621952    -0.000023683546    14.003074004430
         N            2.013948307171    -0.423305621952    -0.000080683546    14.003074004430
         C           -0.365316992829    -0.088583921952    -0.000021783546    12.000000000000
         C            0.315153307171     1.118739378048    -0.000055683546    12.000000000000
         C            1.706224307171     0.884423378048    -0.000092683546    12.000000000000
         C           -2.505312692829     0.361573378048     0.000239316454    12.000000000000
         H           -0.200495692829     2.067113378048    -0.000059683546     1.007825032230
         H            0.739169307171    -2.039317621952    -0.000010683546     1.007825032230
         H            2.506673307171     1.612922378048    -0.000126683546     1.007825032230
         H           -3.455968692829    -0.169193621952     0.000316316454     1.007825032230
         H           -2.424023692829     0.985857378048    -0.894876683546     1.007825032230
         H           -2.423769692829     0.985677378048     0.895458316454     1.007825032230

  Basis Set: AUG-CC-PVTZ
    Blend: AUG-CC-PVTZ
  Basis Set: (AUG-CC-PVTZ AUX)
    Blend: AUG-CC-PVTZ-JKFIT
	 Reference Energy          =    -338.7685178416483609 [Eh]
	 Singles Energy            =      -0.0000000000000000 [Eh]
	 Same-Spin Energy          =      -0.3553616829761531 [Eh]
	 Opposite-Spin Energy      =      -1.0874658150655399 [Eh]
	 Correlation Energy        =      -1.4428274980416931 [Eh]
	 Total Energy              =    -340.2113453396900695 [Eh]

	 ================> DF-SCS-MP2 Energies <==================
	-----------------------------------------------------------
	 SCS Same-Spin Scale       =       0.3333333333333333 [-]
	 SCS Opposite-Spin Scale   =       1.2000000000000000 [-]
	 SCS Same-Spin Energy      =      -0.1184538943253844 [Eh]
	 SCS Opposite-Spin Energy  =      -1.3049589780786477 [Eh]
	 SCS Correlation Energy    =      -1.4234128724040320 [Eh]
	 SCS Total Energy          =    -340.1919307140523756 [Eh]
	-----------------------------------------------------------

  Dipole Moment: [D]
     X:    -3.8793      Y:     0.7627      Z:     0.0004     Total:     3.9536

*** Psi4 exiting successfully. Buy a developer a beer!
