                               Psi4 1.3.2 release

  ==> Input File <==

--------------------------------------------------------------------------
#psi4
#
memory 32 gb

molecule  {
0 1
  O       -1.4607440    -0.6783760    -0.0000110
  N        0.8364910    -1.0546300    -0.0000300
  N        2.0264091    -0.4538914    -0.0000862
  C       -0.2000590    -0.1785130    -0.0000310
  C        0.3504840     1.0933250    -0.0000620
  C        1.7415550     0.8590090    -0.0000990
  C       -2.4699820     0.3361590     0.0002330
  H       -0.1651650     2.0416990    -0.0000660
  H        0.7745000    -2.0647320    -0.0000170
  H        2.5420040     1.5875080    -0.0001330
  H       -3.4206380    -0.1946080     0.0003100
  H       -2.3886930     0.9604430    -0.8948830
  H       -2.3884390     0.9602630     0.8954520
units angstrom
no_reorient  #important for SAPT in psi4, default
symmetry c1  #important for SAPT in psi4, default
}

set PROPERTIES_ORIGIN ["COM"]
properties('MP2/aug-cc-pvtz', properties = ['dipole'])
--------------------------------------------------------------------------

    Molecular point group: c1
  Charge       = 0
  Multiplicity = 1
  Basis Set: AUG-CC-PVTZ
    Blend: AUG-CC-PVTZ
  Basis Set: (AUG-CC-PVTZ AUX)
    Blend: AUG-CC-PVTZ-JKFIT

    Orbital Energies [Eh]
    ---------------------

    Doubly Occupied:

       1A    -20.611177     2A    -15.632353     3A    -15.578862
       4A    -11.340421     5A    -11.299508     6A    -11.255551
       7A    -11.220070     8A     -1.439649     9A     -1.365012
      10A     -1.090131    11A     -1.050289    12A     -0.960301
      13A     -0.819514    14A     -0.803036    15A     -0.754532
      16A     -0.679256    17A     -0.650171    18A     -0.627476
      19A     -0.603320    20A     -0.598180    21A     -0.582033
      22A     -0.527065    23A     -0.506790    24A     -0.450832
      25A     -0.366497    26A     -0.323643

  @DF-RHF Final Energy:  -338.79995406504577

   => Energetics <=

    Nuclear Repulsion Energy =            296.2875165618220308
    One-Electron Energy =               -1047.9036007764225360
    Two-Electron Energy =                 412.8161301495547377
    Total Energy =                       -338.7999540650457675
  Basis Set: (AUG-CC-PVTZ AUX)
    Blend: AUG-CC-PVTZ-RI
    Molecular point group: c1

    Geometry (in Angstrom), charge = 0, multiplicity = 1:

       Center              X                  Y                   Z               Mass
    ------------   -----------------  -----------------  -----------------  -----------------
         O           -1.508710121760    -0.644327159380    -0.000004442873    15.994914619570
         N            0.788524878240    -1.020581159380    -0.000023442873    14.003074004430
         N            1.978442978240    -0.419842559380    -0.000079642873    14.003074004430
         C           -0.248025121760    -0.144464159380    -0.000024442873    12.000000000000
         C            0.302517878240     1.127373840620    -0.000055442873    12.000000000000
         C            1.693588878240     0.893057840620    -0.000092442873    12.000000000000
         C           -2.517948121760     0.370207840620     0.000239557127    12.000000000000
         H           -0.213131121760     2.075747840620    -0.000059442873     1.007825032230
         H            0.726533878240    -2.030683159380    -0.000010442873     1.007825032230
         H            2.494037878240     1.621556840620    -0.000126442873     1.007825032230
         H           -3.468604121760    -0.160559159380     0.000316557127     1.007825032230
         H           -2.436659121760     0.994491840620    -0.894876442873     1.007825032230
         H           -2.436405121760     0.994311840620     0.895458557127     1.007825032230

  Basis Set: AUG-CC-PVTZ
    Blend: AUG-CC-PVTZ
  Basis Set: (AUG-CC-PVTZ AUX)
    Blend: AUG-CC-PVTZ-JKFIT
	 Reference Energy          =    -338.7999540650457675 [Eh]
	 Singles Energy            =      -0.0000000000000000 [Eh]
	 Same-Spin Energy          =      -0.3533576091525115 [Eh]
	 Opposite-Spin Energy      =      -1.0828687195343658 [Eh]
	 Correlation Energy        =      -1.4362263286868773 [Eh]
	 Total Energy              =    -340.2361803937326385 [Eh]

	 ================> DF-SCS-MP2 Energies <==================
	-----------------------------------------------------------
	 SCS Same-Spin Scale       =       0.3333333333333333 [-]
	 SCS Opposite-Spin Scale   =       1.2000000000000000 [-]
	 SCS Same-Spin Energy      =      -0.1177858697175038 [Eh]
	 SCS Opposite-Spin Energy  =      -1.2994424634412389 [Eh]
	 SCS Correlation Energy    =      -1.4172283331587427 [Eh]
	 SCS Total Energy          =    -340.2171823982044998 [Eh]
	-----------------------------------------------------------

  Dipole Moment: [D]
     X:    -3.0878      Y:     0.6185      Z:     0.0003     Total:     3.1492

*** Psi4 exiting successfully. Buy a developer a beer!
