                               Psi4 1.4a3.dev225

  ==> Input File <==

--------------------------------------------------------------------------
#psi4
#
memory 32 gb

molecule  {
0 1
  O       -1.4607440    -0.6783760    -0.0000110
  N        0.8364910    -1.0546300    -0.0000300
  N        2.0492790    -0.4487200    -0.0000870
  C       -0.2465387    -0.1969423    -0.0000303
  C        0.3504840     1.0933250    -0.0000620
  C        1.7415550     0.8590090    -0.0000990
  C       -2.4699820     0.3361590     0.0002330
  H       -0.1651650     2.0416990    -0.0000660
  H        0.7745000    -2.0647320    -0.0000170
  H        2.5420040     1.5875080    -0.0001330
  H       -3.4206380    -0.1946080     0.0003100
  H       -2.3886930     0.9604430    -0.8948830
  H       -2.3884390     0.9602630     0.8954520
units angstrom
no_reorient  #important for SAPT in psi4, default
symmetry c1  #important for SAPT in psi4, default
}

set PROPERTIES_ORIGIN ["COM"]
properties('MP2/aug-cc-pvtz', properties = ['dipole'])
--------------------------------------------------------------------------

    Molecular point group: c1
  Charge       = 0
  Multiplicity = 1
  Basis Set: AUG-CC-PVTZ
    Blend: AUG-CC-PVTZ
  Basis Set: (AUG-CC-PVTZ AUX)
    Blend: AUG-CC-PVTZ-JKFIT

    Orbital Energies [Eh]
    ---------------------

    Doubly Occupied:

       1A    -20.621119     2A    -15.627670     3A    -15.578006
       4A    -11.348076     5A    -11.306138     6A    -11.254867
       7A    -11.220352     8A     -1.464324     9A     -1.349234
      10A     -1.087404    11A     -1.038938    12A     -0.971500
      13A     -0.815666    14A     -0.794424    15A     -0.762672
      16A     -0.690097    17A     -0.659136    18A     -0.626606
      19A     -0.594958    20A     -0.591182    21A     -0.579541
      22A     -0.530609    23A     -0.516362    24A     -0.450331
      25A     -0.362281    26A     -0.316442

  @DF-RHF Final Energy:  -338.79526826310888

   => Energetics <=

    Nuclear Repulsion Energy =            295.5718948409241307
    One-Electron Energy =               -1046.4184584320062186
    Two-Electron Energy =                 412.0512953279731505
    Total Energy =                       -338.7952682631088805
  Basis Set: (AUG-CC-PVTZ AUX)
    Blend: AUG-CC-PVTZ-RI
    Molecular point group: c1

    Geometry (in Angstrom), charge = 0, multiplicity = 1:

       Center              X                  Y                   Z               Mass
    ------------   -----------------  -----------------  -----------------  -----------------
         O           -1.506287762642    -0.642810187248    -0.000004414291    15.994914619570
         N            0.790947237358    -1.019064187248    -0.000023414291    14.003074004430
         N            2.003735237358    -0.413154187248    -0.000080414291    14.003074004430
         C           -0.292082462642    -0.161376487248    -0.000023714291    12.000000000000
         C            0.304940237358     1.128890812752    -0.000055414291    12.000000000000
         C            1.696011237358     0.894574812752    -0.000092414291    12.000000000000
         C           -2.515525762642     0.371724812752     0.000239585709    12.000000000000
         H           -0.210708762642     2.077264812752    -0.000059414291     1.007825032230
         H            0.728956237358    -2.029166187248    -0.000010414291     1.007825032230
         H            2.496460237358     1.623073812752    -0.000126414291     1.007825032230
         H           -3.466181762642    -0.159042187248     0.000316585709     1.007825032230
         H           -2.434236762642     0.996008812752    -0.894876414291     1.007825032230
         H           -2.433982762642     0.995828812752     0.895458585709     1.007825032230

  Basis Set: AUG-CC-PVTZ
    Blend: AUG-CC-PVTZ
  Basis Set: (AUG-CC-PVTZ AUX)
    Blend: AUG-CC-PVTZ-JKFIT
	 Reference Energy          =    -338.7952682631088805 [Eh]
	 Singles Energy            =      -0.0000000000000000 [Eh]
	 Same-Spin Energy          =      -0.3536638499063528 [Eh]
	 Opposite-Spin Energy      =      -1.0836019025139676 [Eh]
	 Correlation Energy        =      -1.4372657524203203 [Eh]
	 Total Energy              =    -340.2325340155292110 [Eh]

	 ================> DF-SCS-MP2 Energies <==================
	-----------------------------------------------------------
	 SCS Same-Spin Scale       =       0.3333333333333333 [-]
	 SCS Opposite-Spin Scale   =       1.2000000000000000 [-]
	 SCS Same-Spin Energy      =      -0.1178879499687843 [Eh]
	 SCS Opposite-Spin Energy  =      -1.3003222830167611 [Eh]
	 SCS Correlation Energy    =      -1.4182102329855453 [Eh]
	 SCS Total Energy          =    -340.2134784960944103 [Eh]
	-----------------------------------------------------------

  Dipole Moment: [D]
     X:    -3.4787      Y:     0.5697      Z:     0.0004     Total:     3.5250

*** Psi4 exiting successfully. Buy a developer a beer!
