                               Psi4 1.3.2 release

  ==> Input File <==

--------------------------------------------------------------------------
#psi4
#
memory 32 gb

molecule  {
0 1
  O       -1.4607440    -0.6783760    -0.0000110
  N        0.8364910    -1.0546300    -0.0000300
  N        2.0492790    -0.4487200    -0.0000870
  C       -0.1846108    -0.1605561    -0.0000314
  C        0.3504840     1.0933250    -0.0000620
  C        1.7415550     0.8590090    -0.0000990
  C       -2.4699820     0.3361590     0.0002330
  H       -0.1651650     2.0416990    -0.0000660
  H        0.7745000    -2.0647320    -0.0000170
  H        2.5420040     1.5875080    -0.0001330
  H       -3.4206380    -0.1946080     0.0003100
  H       -2.3886930     0.9604430    -0.8948830
  H       -2.3884390     0.9602630     0.8954520
units angstrom
no_reorient  #important for SAPT in psi4, default
symmetry c1  #important for SAPT in psi4, default
}

set PROPERTIES_ORIGIN ["COM"]
properties('MP2/aug-cc-pvtz', properties = ['dipole'])
--------------------------------------------------------------------------

    Molecular point group: c1
  Charge       = 0
  Multiplicity = 1
  Basis Set: AUG-CC-PVTZ
    Blend: AUG-CC-PVTZ
  Basis Set: (AUG-CC-PVTZ AUX)
    Blend: AUG-CC-PVTZ-JKFIT

    Orbital Energies [Eh]
    ---------------------

    Doubly Occupied:

       1A    -20.609457     2A    -15.630241     3A    -15.582850
       4A    -11.340643     5A    -11.297743     6A    -11.258338
       7A    -11.220100     8A     -1.431241     9A     -1.357148
      10A     -1.090671    11A     -1.054599    12A     -0.957278
      13A     -0.819355    14A     -0.801115    15A     -0.751279
      16A     -0.675657    17A     -0.647585    18A     -0.626017
      19A     -0.600898    20A     -0.598941    21A     -0.580797
      22A     -0.526501    23A     -0.502787    24A     -0.455460
      25A     -0.368264    26A     -0.330045

  @DF-RHF Final Energy:  -338.79841256265559

   => Energetics <=

    Nuclear Repulsion Energy =            295.7587840600871232
    One-Electron Energy =               -1046.8843748009571755
    Two-Electron Energy =                 412.3271781782144672
    Total Energy =                       -338.7984125626555851
  Basis Set: (AUG-CC-PVTZ AUX)
    Blend: AUG-CC-PVTZ-RI
    Molecular point group: c1

    Geometry (in Angstrom), charge = 0, multiplicity = 1:

       Center              X                  Y                   Z               Mass
    ------------   -----------------  -----------------  -----------------  -----------------
         O           -1.513867057506    -0.647263458532    -0.000004279663    15.994914619570
         N            0.783367942494    -1.023517458532    -0.000023279663    14.003074004430
         N            1.996155942494    -0.417607458532    -0.000080279663    14.003074004430
         C           -0.237733857506    -0.129443558532    -0.000024679663    12.000000000000
         C            0.297360942494     1.124437541468    -0.000055279663    12.000000000000
         C            1.688431942494     0.890121541468    -0.000092279663    12.000000000000
         C           -2.523105057506     0.367271541468     0.000239720337    12.000000000000
         H           -0.218288057506     2.072811541468    -0.000059279663     1.007825032230
         H            0.721376942494    -2.033619458532    -0.000010279663     1.007825032230
         H            2.488880942494     1.618620541468    -0.000126279663     1.007825032230
         H           -3.473761057506    -0.163495458532     0.000316720337     1.007825032230
         H           -2.441816057506     0.991555541468    -0.894876279663     1.007825032230
         H           -2.441562057506     0.991375541468     0.895458720337     1.007825032230

  Basis Set: AUG-CC-PVTZ
    Blend: AUG-CC-PVTZ
  Basis Set: (AUG-CC-PVTZ AUX)
    Blend: AUG-CC-PVTZ-JKFIT
	 Reference Energy          =    -338.7984125626555851 [Eh]
	 Singles Energy            =      -0.0000000000000000 [Eh]
	 Same-Spin Energy          =      -0.3531974883322488 [Eh]
	 Opposite-Spin Energy      =      -1.0835922496205188 [Eh]
	 Correlation Energy        =      -1.4367897379527677 [Eh]
	 Total Energy              =    -340.2352023006083641 [Eh]

	 ================> DF-SCS-MP2 Energies <==================
	-----------------------------------------------------------
	 SCS Same-Spin Scale       =       0.3333333333333333 [-]
	 SCS Opposite-Spin Scale   =       1.2000000000000000 [-]
	 SCS Same-Spin Energy      =      -0.1177324961107496 [Eh]
	 SCS Opposite-Spin Energy  =      -1.3003106995446225 [Eh]
	 SCS Correlation Energy    =      -1.4180431956553721 [Eh]
	 SCS Total Energy          =    -340.2164557583109854 [Eh]
	-----------------------------------------------------------

  Dipole Moment: [D]
     X:    -2.9936      Y:     0.7075      Z:     0.0003     Total:     3.0761

*** Psi4 exiting successfully. Buy a developer a beer!
