                               Psi4 1.4a3.dev225

  ==> Input File <==

--------------------------------------------------------------------------
#psi4
#
memory 32 gb

molecule  {
0 1
  O       -1.4607440    -0.6783760    -0.0000110
  N        0.8364910    -1.0546300    -0.0000300
  N        2.0492790    -0.4487200    -0.0000870
  C       -0.1814671    -0.1711413    -0.0000313
  C        0.3504840     1.0933250    -0.0000620
  C        1.7415550     0.8590090    -0.0000990
  C       -2.4699820     0.3361590     0.0002330
  H       -0.1651650     2.0416990    -0.0000660
  H        0.7745000    -2.0647320    -0.0000170
  H        2.5420040     1.5875080    -0.0001330
  H       -3.4206380    -0.1946080     0.0003100
  H       -2.3886930     0.9604430    -0.8948830
  H       -2.3884390     0.9602630     0.8954520
units angstrom
no_reorient  #important for SAPT in psi4, default
symmetry c1  #important for SAPT in psi4, default
}

set PROPERTIES_ORIGIN ["COM"]
properties('MP2/aug-cc-pvtz', properties = ['dipole'])
--------------------------------------------------------------------------

    Molecular point group: c1
  Charge       = 0
  Multiplicity = 1
  Basis Set: AUG-CC-PVTZ
    Blend: AUG-CC-PVTZ
  Basis Set: (AUG-CC-PVTZ AUX)
    Blend: AUG-CC-PVTZ-JKFIT

    Orbital Energies [Eh]
    ---------------------

    Doubly Occupied:

       1A    -20.609324     2A    -15.631346     3A    -15.581821
       4A    -11.341092     5A    -11.297956     6A    -11.258397
       7A    -11.220020     8A     -1.431786     9A     -1.358603
      10A     -1.092882    11A     -1.052583    12A     -0.957513
      13A     -0.819481    14A     -0.802427    15A     -0.751701
      16A     -0.675914    17A     -0.647281    18A     -0.625059
      19A     -0.601913    20A     -0.600450    21A     -0.580798
      22A     -0.525322    23A     -0.502889    24A     -0.455241
      25A     -0.368282    26A     -0.329254

  @DF-RHF Final Energy:  -338.79909076531663

   => Energetics <=

    Nuclear Repulsion Energy =            295.7834982120011773
    One-Electron Energy =               -1046.9265126121397316
    Two-Electron Energy =                 412.3439236348219197
    Total Energy =                       -338.7990907653166346
  Basis Set: (AUG-CC-PVTZ AUX)
    Blend: AUG-CC-PVTZ-RI
    Molecular point group: c1

    Geometry (in Angstrom), charge = 0, multiplicity = 1:

       Center              X                  Y                   Z               Mass
    ------------   -----------------  -----------------  -----------------  -----------------
         O           -1.514251811862    -0.645967946300    -0.000004291902    15.994914619570
         N            0.782983188138    -1.022221946300    -0.000023291902    14.003074004430
         N            1.995771188138    -0.416311946300    -0.000080291902    14.003074004430
         C           -0.234974911862    -0.138733246300    -0.000024591902    12.000000000000
         C            0.296976188138     1.125733053700    -0.000055291902    12.000000000000
         C            1.688047188138     0.891417053700    -0.000092291902    12.000000000000
         C           -2.523489811862     0.368567053700     0.000239708098    12.000000000000
         H           -0.218672811862     2.074107053700    -0.000059291902     1.007825032230
         H            0.720992188138    -2.032323946300    -0.000010291902     1.007825032230
         H            2.488496188138     1.619916053700    -0.000126291902     1.007825032230
         H           -3.474145811862    -0.162199946300     0.000316708098     1.007825032230
         H           -2.442200811862     0.992851053700    -0.894876291902     1.007825032230
         H           -2.441946811862     0.992671053700     0.895458708098     1.007825032230

  Basis Set: AUG-CC-PVTZ
    Blend: AUG-CC-PVTZ
  Basis Set: (AUG-CC-PVTZ AUX)
    Blend: AUG-CC-PVTZ-JKFIT
	 Reference Energy          =    -338.7990907653166346 [Eh]
	 Singles Energy            =      -0.0000000000000000 [Eh]
	 Same-Spin Energy          =      -0.3531245765035337 [Eh]
	 Opposite-Spin Energy      =      -1.0833065173392105 [Eh]
	 Correlation Energy        =      -1.4364310938427440 [Eh]
	 Total Energy              =    -340.2355218591594053 [Eh]

	 ================> DF-SCS-MP2 Energies <==================
	-----------------------------------------------------------
	 SCS Same-Spin Scale       =       0.3333333333333333 [-]
	 SCS Opposite-Spin Scale   =       1.2000000000000000 [-]
	 SCS Same-Spin Energy      =      -0.1177081921678446 [Eh]
	 SCS Opposite-Spin Energy  =      -1.2999678208070524 [Eh]
	 SCS Correlation Energy    =      -1.4176760129748969 [Eh]
	 SCS Total Energy          =    -340.2167667782915146 [Eh]
	-----------------------------------------------------------

  Dipole Moment: [D]
     X:    -2.9951      Y:     0.6768      Z:     0.0003     Total:     3.0707

*** Psi4 exiting successfully. Buy a developer a beer!
