                               Psi4 1.3.2 release

  ==> Input File <==

--------------------------------------------------------------------------
#psi4
#
memory 32 gb

molecule  {
0 1
  O       -1.4607440    -0.6783760    -0.0000110
  N        0.8364910    -1.0546300    -0.0000300
  N        2.0492790    -0.4487200    -0.0000870
  C       -0.2000590    -0.1785130    -0.0000310
  C        0.3504840     1.0933250    -0.0000620
  C        1.7218214     0.7625436    -0.0000964
  C       -2.4699820     0.3361590     0.0002330
  H       -0.1651650     2.0416990    -0.0000660
  H        0.7745000    -2.0647320    -0.0000170
  H        2.5420040     1.5875080    -0.0001330
  H       -3.4206380    -0.1946080     0.0003100
  H       -2.3886930     0.9604430    -0.8948830
  H       -2.3884390     0.9602630     0.8954520
units angstrom
no_reorient  #important for SAPT in psi4, default
symmetry c1  #important for SAPT in psi4, default
}

set PROPERTIES_ORIGIN ["COM"]
properties('MP2/aug-cc-pvtz', properties = ['dipole'])
--------------------------------------------------------------------------

    Molecular point group: c1
  Charge       = 0
  Multiplicity = 1
  Basis Set: AUG-CC-PVTZ
    Blend: AUG-CC-PVTZ
  Basis Set: (AUG-CC-PVTZ AUX)
    Blend: AUG-CC-PVTZ-JKFIT

    Orbital Energies [Eh]
    ---------------------

    Doubly Occupied:

       1A    -20.612821     2A    -15.624717     3A    -15.574844
       4A    -11.344631     5A    -11.300360     6A    -11.254168
       7A    -11.216781     8A     -1.441529     9A     -1.374079
      10A     -1.109416    11A     -1.050582    12A     -0.964771
      13A     -0.810132    14A     -0.795584    15A     -0.758063
      16A     -0.680490    17A     -0.648977    18A     -0.633095
      19A     -0.608527    20A     -0.595939    21A     -0.566519
      22A     -0.525390    23A     -0.510112    24A     -0.453852
      25A     -0.370860    26A     -0.335352

  @DF-RHF Final Energy:  -338.79177689024323

   => Energetics <=

    Nuclear Repulsion Energy =            297.5926392241668168
    One-Electron Energy =               -1050.4456444875215766
    Two-Electron Energy =                 414.0612283731115895
    Total Energy =                       -338.7917768902432272
  Basis Set: (AUG-CC-PVTZ AUX)
    Blend: AUG-CC-PVTZ-RI
    Molecular point group: c1

    Geometry (in Angstrom), charge = 0, multiplicity = 1:

       Center              X                  Y                   Z               Mass
    ------------   -----------------  -----------------  -----------------  -----------------
         O           -1.509561191555    -0.633259425605    -0.000004646830    15.994914619570
         N            0.787673808445    -1.009513425605    -0.000023646830    14.003074004430
         N            2.000461808445    -0.403603425605    -0.000080646830    14.003074004430
         C           -0.248876191555    -0.133396425605    -0.000024646830    12.000000000000
         C            0.301666808445     1.138441574395    -0.000055646830    12.000000000000
         C            1.673004208445     0.807660174395    -0.000090046830    12.000000000000
         C           -2.518799191555     0.381275574395     0.000239353170    12.000000000000
         H           -0.213982191555     2.086815574395    -0.000059646830     1.007825032230
         H            0.725682808445    -2.019615425605    -0.000010646830     1.007825032230
         H            2.493186808445     1.632624574395    -0.000126646830     1.007825032230
         H           -3.469455191555    -0.149491425605     0.000316353170     1.007825032230
         H           -2.437510191555     1.005559574395    -0.894876646830     1.007825032230
         H           -2.437256191555     1.005379574395     0.895458353170     1.007825032230

  Basis Set: AUG-CC-PVTZ
    Blend: AUG-CC-PVTZ
  Basis Set: (AUG-CC-PVTZ AUX)
    Blend: AUG-CC-PVTZ-JKFIT
	 Reference Energy          =    -338.7917768902432272 [Eh]
	 Singles Energy            =      -0.0000000000000000 [Eh]
	 Same-Spin Energy          =      -0.3513614648408898 [Eh]
	 Opposite-Spin Energy      =      -1.0795115458584361 [Eh]
	 Correlation Energy        =      -1.4308730106993259 [Eh]
	 Total Energy              =    -340.2226499009425424 [Eh]

	 ================> DF-SCS-MP2 Energies <==================
	-----------------------------------------------------------
	 SCS Same-Spin Scale       =       0.3333333333333333 [-]
	 SCS Opposite-Spin Scale   =       1.2000000000000000 [-]
	 SCS Same-Spin Energy      =      -0.1171204882802966 [Eh]
	 SCS Opposite-Spin Energy  =      -1.2954138550301233 [Eh]
	 SCS Correlation Energy    =      -1.4125343433104198 [Eh]
	 SCS Total Energy          =    -340.2043112335536534 [Eh]
	-----------------------------------------------------------

  Dipole Moment: [D]
     X:    -3.1285      Y:     0.6044      Z:     0.0003     Total:     3.1864

*** Psi4 exiting successfully. Buy a developer a beer!
