                               Psi4 1.3.2 release

  ==> Input File <==

--------------------------------------------------------------------------
#psi4
#
memory 32 gb

molecule  {
0 1
  O       -1.4607440    -0.6783760    -0.0000110
  N        0.8364910    -1.0546300    -0.0000300
  N        2.0492790    -0.4487200    -0.0000870
  C       -0.1553371    -0.1969519    -0.0000316
  C        0.3504840     1.0933250    -0.0000620
  C        1.7415550     0.8590090    -0.0000990
  C       -2.4699820     0.3361590     0.0002330
  H       -0.1651650     2.0416990    -0.0000660
  H        0.7745000    -2.0647320    -0.0000170
  H        2.5420040     1.5875080    -0.0001330
  H       -3.4206380    -0.1946080     0.0003100
  H       -2.3886930     0.9604430    -0.8948830
  H       -2.3884390     0.9602630     0.8954520
units angstrom
no_reorient  #important for SAPT in psi4, default
symmetry c1  #important for SAPT in psi4, default
}

set PROPERTIES_ORIGIN ["COM"]
properties('MP2/aug-cc-pvtz', properties = ['dipole'])
--------------------------------------------------------------------------

    Molecular point group: c1
  Charge       = 0
  Multiplicity = 1
  Basis Set: AUG-CC-PVTZ
    Blend: AUG-CC-PVTZ
  Basis Set: (AUG-CC-PVTZ AUX)
    Blend: AUG-CC-PVTZ-JKFIT

    Orbital Energies [Eh]
    ---------------------

    Doubly Occupied:

       1A    -20.606061     2A    -15.635394     3A    -15.579487
       4A    -11.340885     5A    -11.296679     6A    -11.259448
       7A    -11.219635     8A     -1.427473     9A     -1.364623
      10A     -1.101443    11A     -1.050039    12A     -0.954701
      13A     -0.821864    14A     -0.808475    15A     -0.749865
      16A     -0.673971    17A     -0.644273    18A     -0.621865
      19A     -0.606993    20A     -0.606465    21A     -0.580978
      22A     -0.519045    23A     -0.499757    24A     -0.455507
      25A     -0.370766    26A     -0.329284

  @DF-RHF Final Energy:  -338.79787143227759

   => Energetics <=

    Nuclear Repulsion Energy =            295.9401398561036558
    One-Electron Energy =               -1047.2260741199122549
    Two-Electron Energy =                 412.4880628315310105
    Total Energy =                       -338.7978714322775886
  Basis Set: (AUG-CC-PVTZ AUX)
    Blend: AUG-CC-PVTZ-RI
    Molecular point group: c1

    Geometry (in Angstrom), charge = 0, multiplicity = 1:

       Center              X                  Y                   Z               Mass
    ------------   -----------------  -----------------  -----------------  -----------------
         O           -1.517449836901    -0.642809012313    -0.000004255185    15.994914619570
         N            0.779785163099    -1.019063012313    -0.000023255185    14.003074004430
         N            1.992573163099    -0.413153012313    -0.000080255185    14.003074004430
         C           -0.212042936901    -0.161384912313    -0.000024855185    12.000000000000
         C            0.293778163099     1.128891987687    -0.000055255185    12.000000000000
         C            1.684849163099     0.894575987687    -0.000092255185    12.000000000000
         C           -2.526687836901     0.371725987687     0.000239744815    12.000000000000
         H           -0.221870836901     2.077265987687    -0.000059255185     1.007825032230
         H            0.717794163099    -2.029165012313    -0.000010255185     1.007825032230
         H            2.485298163099     1.623074987687    -0.000126255185     1.007825032230
         H           -3.477343836901    -0.159041012313     0.000316744815     1.007825032230
         H           -2.445398836901     0.996009987687    -0.894876255185     1.007825032230
         H           -2.445144836901     0.995829987687     0.895458744815     1.007825032230

  Basis Set: AUG-CC-PVTZ
    Blend: AUG-CC-PVTZ
  Basis Set: (AUG-CC-PVTZ AUX)
    Blend: AUG-CC-PVTZ-JKFIT
	 Reference Energy          =    -338.7978714322775886 [Eh]
	 Singles Energy            =      -0.0000000000000000 [Eh]
	 Same-Spin Energy          =      -0.3528159156736709 [Eh]
	 Opposite-Spin Energy      =      -1.0824877372320403 [Eh]
	 Correlation Energy        =      -1.4353036529057110 [Eh]
	 Total Energy              =    -340.2331750851832908 [Eh]

	 ================> DF-SCS-MP2 Energies <==================
	-----------------------------------------------------------
	 SCS Same-Spin Scale       =       0.3333333333333333 [-]
	 SCS Opposite-Spin Scale   =       1.2000000000000000 [-]
	 SCS Same-Spin Energy      =      -0.1176053052245569 [Eh]
	 SCS Opposite-Spin Energy  =      -1.2989852846784482 [Eh]
	 SCS Correlation Energy    =      -1.4165905899030051 [Eh]
	 SCS Total Energy          =    -340.2144620221806122 [Eh]
	-----------------------------------------------------------

  Dipole Moment: [D]
     X:    -2.8859      Y:     0.6084      Z:     0.0003     Total:     2.9493

*** Psi4 exiting successfully. Buy a developer a beer!
