                               Psi4 1.3.2 release

  ==> Input File <==

--------------------------------------------------------------------------
#psi4
#
memory 32 gb

molecule  {
0 1
  O       -1.5060877    -0.5438602    -0.0000135
  N        0.8364910    -1.0546300    -0.0000300
  N        2.0492790    -0.4487200    -0.0000870
  C       -0.2000590    -0.1785130    -0.0000310
  C        0.3504840     1.0933250    -0.0000620
  C        1.7415550     0.8590090    -0.0000990
  C       -2.4699820     0.3361590     0.0002330
  H       -0.1651650     2.0416990    -0.0000660
  H        0.7745000    -2.0647320    -0.0000170
  H        2.5420040     1.5875080    -0.0001330
  H       -3.4206380    -0.1946080     0.0003100
  H       -2.3886930     0.9604430    -0.8948830
  H       -2.3884390     0.9602630     0.8954520
units angstrom
no_reorient  #important for SAPT in psi4, default
symmetry c1  #important for SAPT in psi4, default
}

set PROPERTIES_ORIGIN ["COM"]
properties('MP2/aug-cc-pvtz', properties = ['dipole'])
--------------------------------------------------------------------------

    Molecular point group: c1
  Charge       = 0
  Multiplicity = 1
  Basis Set: AUG-CC-PVTZ
    Blend: AUG-CC-PVTZ
  Basis Set: (AUG-CC-PVTZ AUX)
    Blend: AUG-CC-PVTZ-JKFIT

    Orbital Energies [Eh]
    ---------------------

    Doubly Occupied:

       1A    -20.606354     2A    -15.638873     3A    -15.585041
       4A    -11.349671     5A    -11.286988     6A    -11.260005
       7A    -11.220070     8A     -1.471780     9A     -1.366168
      10A     -1.099469    11A     -1.057754    12A     -0.963545
      13A     -0.822201    14A     -0.803465    15A     -0.769650
      16A     -0.700879    17A     -0.674497    18A     -0.630908
      19A     -0.606195    20A     -0.604893    21A     -0.582044
      22A     -0.503248    23A     -0.488591    24A     -0.458818
      25A     -0.369653    26A     -0.328480

  @DF-RHF Final Energy:  -338.78869406129246

   => Energetics <=

    Nuclear Repulsion Energy =            297.5472679467615080
    One-Electron Energy =               -1050.1734414211905460
    Two-Electron Energy =                 413.8374794131365775
    Total Energy =                       -338.7886940612924604
  Basis Set: (AUG-CC-PVTZ AUX)
    Blend: AUG-CC-PVTZ-RI
    Molecular point group: c1

    Geometry (in Angstrom), charge = 0, multiplicity = 1:

       Center              X                  Y                   Z               Mass
    ------------   -----------------  -----------------  -----------------  -----------------
         O           -1.549922991402    -0.532493963228    -0.000006420785    15.994914619570
         N            0.792655708598    -1.043263763228    -0.000022920785    14.003074004430
         N            2.005443708598    -0.437353763228    -0.000079920785    14.003074004430
         C           -0.243894291402    -0.167146763228    -0.000023920785    12.000000000000
         C            0.306648708598     1.104691236772    -0.000054920785    12.000000000000
         C            1.697719708598     0.870375236772    -0.000091920785    12.000000000000
         C           -2.513817291402     0.347525236772     0.000240079215    12.000000000000
         H           -0.209000291402     2.053065236772    -0.000058920785     1.007825032230
         H            0.730664708598    -2.053365763228    -0.000009920785     1.007825032230
         H            2.498168708598     1.598874236772    -0.000125920785     1.007825032230
         H           -3.464473291402    -0.183241763228     0.000317079215     1.007825032230
         H           -2.432528291402     0.971809236772    -0.894875920785     1.007825032230
         H           -2.432274291402     0.971629236772     0.895459079215     1.007825032230

  Basis Set: AUG-CC-PVTZ
    Blend: AUG-CC-PVTZ
  Basis Set: (AUG-CC-PVTZ AUX)
    Blend: AUG-CC-PVTZ-JKFIT
	 Reference Energy          =    -338.7886940612924604 [Eh]
	 Singles Energy            =      -0.0000000000000000 [Eh]
	 Same-Spin Energy          =      -0.3529968070600187 [Eh]
	 Opposite-Spin Energy      =      -1.0806736815928828 [Eh]
	 Correlation Energy        =      -1.4336704886529015 [Eh]
	 Total Energy              =    -340.2223645499453824 [Eh]

	 ================> DF-SCS-MP2 Energies <==================
	-----------------------------------------------------------
	 SCS Same-Spin Scale       =       0.3333333333333333 [-]
	 SCS Opposite-Spin Scale   =       1.2000000000000000 [-]
	 SCS Same-Spin Energy      =      -0.1176656023533396 [Eh]
	 SCS Opposite-Spin Energy  =      -1.2968084179114594 [Eh]
	 SCS Correlation Energy    =      -1.4144740202647990 [Eh]
	 SCS Total Energy          =    -340.2031680815572372 [Eh]
	-----------------------------------------------------------

  Dipole Moment: [D]
     X:    -2.7053      Y:     0.2739      Z:     0.0003     Total:     2.7191

*** Psi4 exiting successfully. Buy a developer a beer!
