                               Psi4 1.3.2 release

  ==> Input File <==

--------------------------------------------------------------------------
#psi4
#
memory 32 gb

molecule  {
0 1
  O       -1.4607440    -0.6783760    -0.0000110
  N        0.8364910    -1.0546300    -0.0000300
  N        2.0492790    -0.4487200    -0.0000870
  C       -0.2000590    -0.1785130    -0.0000310
  C        0.3547852     1.1175668    -0.0000625
  C        1.7415550     0.8590090    -0.0000990
  C       -2.4699820     0.3361590     0.0002330
  H       -0.1651650     2.0416990    -0.0000660
  H        0.7745000    -2.0647320    -0.0000170
  H        2.5420040     1.5875080    -0.0001330
  H       -3.4206380    -0.1946080     0.0003100
  H       -2.3886930     0.9604430    -0.8948830
  H       -2.3884390     0.9602630     0.8954520
units angstrom
no_reorient  #important for SAPT in psi4, default
symmetry c1  #important for SAPT in psi4, default
}

set PROPERTIES_ORIGIN ["COM"]
properties('MP2/aug-cc-pvtz', properties = ['dipole'])
--------------------------------------------------------------------------

    Molecular point group: c1
  Charge       = 0
  Multiplicity = 1
  Basis Set: AUG-CC-PVTZ
    Blend: AUG-CC-PVTZ
  Basis Set: (AUG-CC-PVTZ AUX)
    Blend: AUG-CC-PVTZ-JKFIT

    Orbital Energies [Eh]
    ---------------------

    Doubly Occupied:

       1A    -20.613453     2A    -15.632070     3A    -15.579675
       4A    -11.346581     5A    -11.300656     6A    -11.257851
       7A    -11.221355     8A     -1.440445     9A     -1.355760
      10A     -1.091641    11A     -1.045223    12A     -0.961675
      13A     -0.818269    14A     -0.801325    15A     -0.754942
      16A     -0.679588    17A     -0.651024    18A     -0.625984
      19A     -0.602007    20A     -0.599353    21A     -0.578724
      22A     -0.526265    23A     -0.507142    24A     -0.454109
      25A     -0.366959    26A     -0.323131

  @DF-RHF Final Energy:  -338.79820536977809

   => Energetics <=

    Nuclear Repulsion Energy =            295.2594430649671722
    One-Electron Energy =               -1045.8448819337427267
    Two-Electron Energy =                 411.7872334989974661
    Total Energy =                       -338.7982053697780884
  Basis Set: (AUG-CC-PVTZ AUX)
    Blend: AUG-CC-PVTZ-RI
    Molecular point group: c1

    Geometry (in Angstrom), charge = 0, multiplicity = 1:

       Center              X                  Y                   Z               Mass
    ------------   -----------------  -----------------  -----------------  -----------------
         O           -1.512502787123    -0.648032661271    -0.000004267424    15.994914619570
         N            0.784732212877    -1.024286661271    -0.000023267424    14.003074004430
         N            1.997520212877    -0.418376661271    -0.000080267424    14.003074004430
         C           -0.251817787123    -0.148169661271    -0.000024267424    12.000000000000
         C            0.303026412877     1.147910138729    -0.000055767424    12.000000000000
         C            1.689796212877     0.889352338729    -0.000092267424    12.000000000000
         C           -2.521740787123     0.366502338729     0.000239732576    12.000000000000
         H           -0.216923787123     2.072042338729    -0.000059267424     1.007825032230
         H            0.722741212877    -2.034388661271    -0.000010267424     1.007825032230
         H            2.490245212877     1.617851338729    -0.000126267424     1.007825032230
         H           -3.472396787123    -0.164264661271     0.000316732576     1.007825032230
         H           -2.440451787123     0.990786338729    -0.894876267424     1.007825032230
         H           -2.440197787123     0.990606338729     0.895458732576     1.007825032230

  Basis Set: AUG-CC-PVTZ
    Blend: AUG-CC-PVTZ
  Basis Set: (AUG-CC-PVTZ AUX)
    Blend: AUG-CC-PVTZ-JKFIT
	 Reference Energy          =    -338.7982053697780884 [Eh]
	 Singles Energy            =      -0.0000000000000000 [Eh]
	 Same-Spin Energy          =      -0.3533424446472473 [Eh]
	 Opposite-Spin Energy      =      -1.0835853109289655 [Eh]
	 Correlation Energy        =      -1.4369277555762128 [Eh]
	 Total Energy              =    -340.2351331253543094 [Eh]

	 ================> DF-SCS-MP2 Energies <==================
	-----------------------------------------------------------
	 SCS Same-Spin Scale       =       0.3333333333333333 [-]
	 SCS Opposite-Spin Scale   =       1.2000000000000000 [-]
	 SCS Same-Spin Energy      =      -0.1177808148824158 [Eh]
	 SCS Opposite-Spin Energy  =      -1.3003023731147585 [Eh]
	 SCS Correlation Energy    =      -1.4180831879971743 [Eh]
	 SCS Total Energy          =    -340.2162885577752718 [Eh]
	-----------------------------------------------------------

  Dipole Moment: [D]
     X:    -3.1514      Y:     0.6130      Z:     0.0003     Total:     3.2105

*** Psi4 exiting successfully. Buy a developer a beer!
