                               Psi4 1.3.2 release

  ==> Input File <==

--------------------------------------------------------------------------
#psi4
#
memory 32 gb

molecule  {
0 1
  O       -1.4607440    -0.6783760    -0.0000110
  N        0.8052835    -1.0902714    -0.0000289
  N        2.0492790    -0.4487200    -0.0000870
  C       -0.2000590    -0.1785130    -0.0000310
  C        0.3504840     1.0933250    -0.0000620
  C        1.7415550     0.8590090    -0.0000990
  C       -2.4699820     0.3361590     0.0002330
  H       -0.1651650     2.0416990    -0.0000660
  H        0.7745000    -2.0647320    -0.0000170
  H        2.5420040     1.5875080    -0.0001330
  H       -3.4206380    -0.1946080     0.0003100
  H       -2.3886930     0.9604430    -0.8948830
  H       -2.3884390     0.9602630     0.8954520
units angstrom
no_reorient  #important for SAPT in psi4, default
symmetry c1  #important for SAPT in psi4, default
}

set PROPERTIES_ORIGIN ["COM"]
properties('MP2/aug-cc-pvtz', properties = ['dipole'])
--------------------------------------------------------------------------

    Molecular point group: c1
  Charge       = 0
  Multiplicity = 1
  Basis Set: AUG-CC-PVTZ
    Blend: AUG-CC-PVTZ
  Basis Set: (AUG-CC-PVTZ AUX)
    Blend: AUG-CC-PVTZ-JKFIT

    Orbital Energies [Eh]
    ---------------------

    Doubly Occupied:

       1A    -20.612243     2A    -15.624745     3A    -15.581886
       4A    -11.347130     5A    -11.299693     6A    -11.262013
       7A    -11.220930     8A     -1.439934     9A     -1.340551
      10A     -1.097606    11A     -1.044211    12A     -0.961696
      13A     -0.826466    14A     -0.795626    15A     -0.754751
      16A     -0.678909    17A     -0.650855    18A     -0.622799
      19A     -0.604439    20A     -0.593362    21A     -0.579597
      22A     -0.528228    23A     -0.504472    24A     -0.450548
      25A     -0.370673    26A     -0.326382

  @DF-RHF Final Energy:  -338.79665577291780

   => Energetics <=

    Nuclear Repulsion Energy =            295.0419729188209317
    One-Electron Energy =               -1045.4377647639737461
    Two-Electron Energy =                 411.5991360722350692
    Total Energy =                       -338.7966557729178021
  Basis Set: (AUG-CC-PVTZ AUX)
    Blend: AUG-CC-PVTZ-RI
    Molecular point group: c1

    Geometry (in Angstrom), charge = 0, multiplicity = 1:

       Center              X                  Y                   Z               Mass
    ------------   -----------------  -----------------  -----------------  -----------------
         O           -1.507519357904    -0.639975478478    -0.000004485719    15.994914619570
         N            0.758508142096    -1.051870878478    -0.000022385719    14.003074004430
         N            2.002503642096    -0.410319478478    -0.000080485719    14.003074004430
         C           -0.246834357904    -0.140112478478    -0.000024485719    12.000000000000
         C            0.303708642096     1.131725521522    -0.000055485719    12.000000000000
         C            1.694779642096     0.897409521522    -0.000092485719    12.000000000000
         C           -2.516757357904     0.374559521522     0.000239514281    12.000000000000
         H           -0.211940357904     2.080099521522    -0.000059485719     1.007825032230
         H            0.727724642096    -2.026331478478    -0.000010485719     1.007825032230
         H            2.495228642096     1.625908521522    -0.000126485719     1.007825032230
         H           -3.467413357904    -0.156207478478     0.000316514281     1.007825032230
         H           -2.435468357904     0.998843521522    -0.894876485719     1.007825032230
         H           -2.435214357904     0.998663521522     0.895458514281     1.007825032230

  Basis Set: AUG-CC-PVTZ
    Blend: AUG-CC-PVTZ
  Basis Set: (AUG-CC-PVTZ AUX)
    Blend: AUG-CC-PVTZ-JKFIT
	 Reference Energy          =    -338.7966557729178021 [Eh]
	 Singles Energy            =      -0.0000000000000000 [Eh]
	 Same-Spin Energy          =      -0.3526209834209525 [Eh]
	 Opposite-Spin Energy      =      -1.0834853382250351 [Eh]
	 Correlation Energy        =      -1.4361063216459877 [Eh]
	 Total Energy              =    -340.2327620945637818 [Eh]

	 ================> DF-SCS-MP2 Energies <==================
	-----------------------------------------------------------
	 SCS Same-Spin Scale       =       0.3333333333333333 [-]
	 SCS Opposite-Spin Scale   =       1.2000000000000000 [-]
	 SCS Same-Spin Energy      =      -0.1175403278069842 [Eh]
	 SCS Opposite-Spin Energy  =      -1.3001824058700422 [Eh]
	 SCS Correlation Energy    =      -1.4177227336770264 [Eh]
	 SCS Total Energy          =    -340.2143785065948123 [Eh]
	-----------------------------------------------------------

  Dipole Moment: [D]
     X:    -3.0964      Y:     0.7570      Z:     0.0003     Total:     3.1876

*** Psi4 exiting successfully. Buy a developer a beer!
