                               Psi4 1.3.2 release

  ==> Input File <==

--------------------------------------------------------------------------
#psi4
#
memory 32 gb

molecule  {
0 1
  O       -1.4518282    -0.7003019    -0.0000106
  N        0.8364910    -1.0546300    -0.0000300
  N        2.0492790    -0.4487200    -0.0000870
  C       -0.2000590    -0.1785130    -0.0000310
  C        0.3504840     1.0933250    -0.0000620
  C        1.7415550     0.8590090    -0.0000990
  C       -2.4699820     0.3361590     0.0002330
  H       -0.1651650     2.0416990    -0.0000660
  H        0.7745000    -2.0647320    -0.0000170
  H        2.5420040     1.5875080    -0.0001330
  H       -3.4206380    -0.1946080     0.0003100
  H       -2.3886930     0.9604430    -0.8948830
  H       -2.3884390     0.9602630     0.8954520
units angstrom
no_reorient  #important for SAPT in psi4, default
symmetry c1  #important for SAPT in psi4, default
}

set PROPERTIES_ORIGIN ["COM"]
properties('MP2/aug-cc-pvtz', properties = ['dipole'])
--------------------------------------------------------------------------

    Molecular point group: c1
  Charge       = 0
  Multiplicity = 1
  Basis Set: AUG-CC-PVTZ
    Blend: AUG-CC-PVTZ
  Basis Set: (AUG-CC-PVTZ AUX)
    Blend: AUG-CC-PVTZ-JKFIT

    Orbital Energies [Eh]
    ---------------------

    Doubly Occupied:

       1A    -20.613316     2A    -15.629055     3A    -15.580184
       4A    -11.342103     5A    -11.302574     6A    -11.256970
       7A    -11.220264     8A     -1.435871     9A     -1.354533
      10A     -1.090056    11A     -1.047295    12A     -0.961592
      13A     -0.817528    14A     -0.799460    15A     -0.752305
      16A     -0.676656    17A     -0.646626    18A     -0.624559
      19A     -0.599291    20A     -0.596535    21A     -0.579963
      22A     -0.530772    23A     -0.509178    24A     -0.453136
      25A     -0.366065    26A     -0.325189

  @DF-RHF Final Energy:  -338.79814802193084

   => Energetics <=

    Nuclear Repulsion Energy =            295.4360998435781198
    One-Electron Energy =               -1046.2463457579096939
    Two-Electron Energy =                 412.0120978924006749
    Total Energy =                       -338.7981480219308423
  Basis Set: (AUG-CC-PVTZ AUX)
    Blend: AUG-CC-PVTZ-RI
    Molecular point group: c1

    Geometry (in Angstrom), charge = 0, multiplicity = 1:

       Center              X                  Y                   Z               Mass
    ------------   -----------------  -----------------  -----------------  -----------------
         O           -1.504515033058    -0.663414782565    -0.000003993872    15.994914619570
         N            0.783804166942    -1.017742882565    -0.000023393872    14.003074004430
         N            1.996592166942    -0.411832882565    -0.000080393872    14.003074004430
         C           -0.252745833058    -0.141625882565    -0.000024393872    12.000000000000
         C            0.297797166942     1.130212117435    -0.000055393872    12.000000000000
         C            1.688868166942     0.895896117435    -0.000092393872    12.000000000000
         C           -2.522668833058     0.373046117435     0.000239606128    12.000000000000
         H           -0.217851833058     2.078586117435    -0.000059393872     1.007825032230
         H            0.721813166942    -2.027844882565    -0.000010393872     1.007825032230
         H            2.489317166942     1.624395117435    -0.000126393872     1.007825032230
         H           -3.473324833058    -0.157720882565     0.000316606128     1.007825032230
         H           -2.441379833058     0.997330117435    -0.894876393872     1.007825032230
         H           -2.441125833058     0.997150117435     0.895458606128     1.007825032230

  Basis Set: AUG-CC-PVTZ
    Blend: AUG-CC-PVTZ
  Basis Set: (AUG-CC-PVTZ AUX)
    Blend: AUG-CC-PVTZ-JKFIT
	 Reference Energy          =    -338.7981480219308423 [Eh]
	 Singles Energy            =      -0.0000000000000000 [Eh]
	 Same-Spin Energy          =      -0.3533874108229160 [Eh]
	 Opposite-Spin Energy      =      -1.0839692151134823 [Eh]
	 Correlation Energy        =      -1.4373566259363983 [Eh]
	 Total Energy              =    -340.2355046478672307 [Eh]

	 ================> DF-SCS-MP2 Energies <==================
	-----------------------------------------------------------
	 SCS Same-Spin Scale       =       0.3333333333333333 [-]
	 SCS Opposite-Spin Scale   =       1.2000000000000000 [-]
	 SCS Same-Spin Energy      =      -0.1177958036076387 [Eh]
	 SCS Opposite-Spin Energy  =      -1.3007630581361787 [Eh]
	 SCS Correlation Energy    =      -1.4185588617438174 [Eh]
	 SCS Total Energy          =    -340.2167068836746466 [Eh]
	-----------------------------------------------------------

  Dipole Moment: [D]
     X:    -3.1913      Y:     0.7019      Z:     0.0004     Total:     3.2675

*** Psi4 exiting successfully. Buy a developer a beer!
