                               Psi4 1.3.2 release

  ==> Input File <==

--------------------------------------------------------------------------
#psi4
#
memory 32 gb

molecule  {
0 1
  O       -1.4607440    -0.6783760    -0.0000110
  N        0.8364910    -1.0546300    -0.0000300
  N        2.0492790    -0.4487200    -0.0000870
  C       -0.2000590    -0.1785130    -0.0000310
  C        0.3504840     1.0933250    -0.0000620
  C        1.7488851     0.9076994    -0.0001002
  C       -2.4699820     0.3361590     0.0002330
  H       -0.1651650     2.0416990    -0.0000660
  H        0.7745000    -2.0647320    -0.0000170
  H        2.5420040     1.5875080    -0.0001330
  H       -3.4206380    -0.1946080     0.0003100
  H       -2.3886930     0.9604430    -0.8948830
  H       -2.3884390     0.9602630     0.8954520
units angstrom
no_reorient  #important for SAPT in psi4, default
symmetry c1  #important for SAPT in psi4, default
}

set PROPERTIES_ORIGIN ["COM"]
properties('MP2/aug-cc-pvtz', properties = ['dipole'])
--------------------------------------------------------------------------

    Molecular point group: c1
  Charge       = 0
  Multiplicity = 1
  Basis Set: AUG-CC-PVTZ
    Blend: AUG-CC-PVTZ
  Basis Set: (AUG-CC-PVTZ AUX)
    Blend: AUG-CC-PVTZ-JKFIT

    Orbital Energies [Eh]
    ---------------------

    Doubly Occupied:

       1A    -20.612592     2A    -15.633832     3A    -15.583575
       4A    -11.342409     5A    -11.300228     6A    -11.259339
       7A    -11.222679     8A     -1.439653     9A     -1.349834
      10A     -1.083632    11A     -1.047678    12A     -0.959960
      13A     -0.825549    14A     -0.799825    15A     -0.754082
      16A     -0.679391    17A     -0.651659    18A     -0.622105
      19A     -0.603609    20A     -0.596775    21A     -0.582484
      22A     -0.529330    23A     -0.505411    24A     -0.450151
      25A     -0.366207    26A     -0.320043

  @DF-RHF Final Energy:  -338.79253541062269

   => Energetics <=

    Nuclear Repulsion Energy =            294.8460677536181720
    One-Electron Energy =               -1045.0331451629201638
    Two-Electron Energy =                 411.3945419986793013
    Total Energy =                       -338.7925354106226905
  Basis Set: (AUG-CC-PVTZ AUX)
    Blend: AUG-CC-PVTZ-RI
    Molecular point group: c1

    Geometry (in Angstrom), charge = 0, multiplicity = 1:

       Center              X                  Y                   Z               Mass
    ------------   -----------------  -----------------  -----------------  -----------------
         O           -1.512873491220    -0.651024901415    -0.000004181751    15.994914619570
         N            0.784361508780    -1.027278901415    -0.000023181751    14.003074004430
         N            1.997149508780    -0.421368901415    -0.000080181751    14.003074004430
         C           -0.252188491220    -0.151161901415    -0.000024181751    12.000000000000
         C            0.298354508780     1.120676098585    -0.000055181751    12.000000000000
         C            1.696755608780     0.935050498585    -0.000093381751    12.000000000000
         C           -2.522111491220     0.363510098585     0.000239818249    12.000000000000
         H           -0.217294491220     2.069050098585    -0.000059181751     1.007825032230
         H            0.722370508780    -2.037380901415    -0.000010181751     1.007825032230
         H            2.489874508780     1.614859098585    -0.000126181751     1.007825032230
         H           -3.472767491220    -0.167256901415     0.000316818249     1.007825032230
         H           -2.440822491220     0.987794098585    -0.894876181751     1.007825032230
         H           -2.440568491220     0.987614098585     0.895458818249     1.007825032230

  Basis Set: AUG-CC-PVTZ
    Blend: AUG-CC-PVTZ
  Basis Set: (AUG-CC-PVTZ AUX)
    Blend: AUG-CC-PVTZ-JKFIT
	 Reference Energy          =    -338.7925354106226905 [Eh]
	 Singles Energy            =      -0.0000000000000000 [Eh]
	 Same-Spin Energy          =      -0.3544410186180236 [Eh]
	 Opposite-Spin Energy      =      -1.0858248621818143 [Eh]
	 Correlation Energy        =      -1.4402658807998379 [Eh]
	 Total Energy              =    -340.2328012914225042 [Eh]

	 ================> DF-SCS-MP2 Energies <==================
	-----------------------------------------------------------
	 SCS Same-Spin Scale       =       0.3333333333333333 [-]
	 SCS Opposite-Spin Scale   =       1.2000000000000000 [-]
	 SCS Same-Spin Energy      =      -0.1181470062060078 [Eh]
	 SCS Opposite-Spin Energy  =      -1.3029898346181772 [Eh]
	 SCS Correlation Energy    =      -1.4211368408241851 [Eh]
	 SCS Total Energy          =    -340.2136722514468943 [Eh]
	-----------------------------------------------------------

  Dipole Moment: [D]
     X:    -3.1429      Y:     0.6457      Z:     0.0003     Total:     3.2085

*** Psi4 exiting successfully. Buy a developer a beer!
