                               Psi4 1.3.2 release

  ==> Input File <==

--------------------------------------------------------------------------
#psi4
#
memory 32 gb

molecule  {
0 1
  O       -1.4607440    -0.6783760    -0.0000110
  N        0.8364910    -1.0546300    -0.0000300
  N        2.0492790    -0.4487200    -0.0000870
  C       -0.0141402    -0.1047960    -0.0000339
  C        0.3504840     1.0933250    -0.0000620
  C        1.7415550     0.8590090    -0.0000990
  C       -2.4699820     0.3361590     0.0002330
  H       -0.1651650     2.0416990    -0.0000660
  H        0.7745000    -2.0647320    -0.0000170
  H        2.5420040     1.5875080    -0.0001330
  H       -3.4206380    -0.1946080     0.0003100
  H       -2.3886930     0.9604430    -0.8948830
  H       -2.3884390     0.9602630     0.8954520
units angstrom
no_reorient  #important for SAPT in psi4, default
symmetry c1  #important for SAPT in psi4, default
}

set PROPERTIES_ORIGIN ["COM"]
properties('MP2/aug-cc-pvtz', properties = ['dipole'])
--------------------------------------------------------------------------

    Molecular point group: c1
  Charge       = 0
  Multiplicity = 1
  Basis Set: AUG-CC-PVTZ
    Blend: AUG-CC-PVTZ
  Basis Set: (AUG-CC-PVTZ AUX)
    Blend: AUG-CC-PVTZ-JKFIT

    Orbital Energies [Eh]
    ---------------------

    Doubly Occupied:

       1A    -20.579364     2A    -15.637124     3A    -15.589620
       4A    -11.330234     5A    -11.279359     6A    -11.269337
       7A    -11.218237     8A     -1.417031     9A     -1.339855
      10A     -1.114294    11A     -1.085234    12A     -0.925409
      13A     -0.837070    14A     -0.825982    15A     -0.729220
      16A     -0.665480    17A     -0.660062    18A     -0.614718
      19A     -0.614406    20A     -0.587490    21A     -0.585276
      22A     -0.487720    23A     -0.469641    24A     -0.462159
      25A     -0.387342    26A     -0.356155

  @DF-RHF Final Energy:  -338.74422854606587

   => Energetics <=

    Nuclear Repulsion Energy =            296.8934488119905950
    One-Electron Energy =               -1049.1397145526450458
    Two-Electron Energy =                 413.5020371945886382
    Total Energy =                       -338.7442285460658695
  Basis Set: (AUG-CC-PVTZ AUX)
    Blend: AUG-CC-PVTZ-RI
    Molecular point group: c1

    Geometry (in Angstrom), charge = 0, multiplicity = 1:

       Center              X                  Y                   Z               Mass
    ------------   -----------------  -----------------  -----------------  -----------------
         O           -1.534730786827    -0.654087882411    -0.000003973690    15.994914619570
         N            0.762504213173    -1.030341882411    -0.000022973690    14.003074004430
         N            1.975292213173    -0.424431882411    -0.000079973690    14.003074004430
         C           -0.088126986827    -0.080507882411    -0.000026873690    12.000000000000
         C            0.276497213173     1.117613117589    -0.000054973690    12.000000000000
         C            1.667568213173     0.883297117589    -0.000091973690    12.000000000000
         C           -2.543968786827     0.360447117589     0.000240026310    12.000000000000
         H           -0.239151786827     2.065987117589    -0.000058973690     1.007825032230
         H            0.700513213173    -2.040443882411    -0.000009973690     1.007825032230
         H            2.468017213173     1.611796117589    -0.000125973690     1.007825032230
         H           -3.494624786827    -0.170319882411     0.000317026310     1.007825032230
         H           -2.462679786827     0.984731117589    -0.894875973690     1.007825032230
         H           -2.462425786827     0.984551117589     0.895459026310     1.007825032230

  Basis Set: AUG-CC-PVTZ
    Blend: AUG-CC-PVTZ
  Basis Set: (AUG-CC-PVTZ AUX)
    Blend: AUG-CC-PVTZ-JKFIT
	 Reference Energy          =    -338.7442285460658695 [Eh]
	 Singles Energy            =      -0.0000000000000000 [Eh]
	 Same-Spin Energy          =      -0.3537342580617819 [Eh]
	 Opposite-Spin Energy      =      -1.0858928667796182 [Eh]
	 Correlation Energy        =      -1.4396271248414001 [Eh]
	 Total Energy              =    -340.1838556709072918 [Eh]

	 ================> DF-SCS-MP2 Energies <==================
	-----------------------------------------------------------
	 SCS Same-Spin Scale       =       0.3333333333333333 [-]
	 SCS Opposite-Spin Scale   =       1.2000000000000000 [-]
	 SCS Same-Spin Energy      =      -0.1179114193539273 [Eh]
	 SCS Opposite-Spin Energy  =      -1.3030714401355417 [Eh]
	 SCS Correlation Energy    =      -1.4209828594894689 [Eh]
	 SCS Total Energy          =    -340.1652114055553398 [Eh]
	-----------------------------------------------------------

  Dipole Moment: [D]
     X:    -1.8662      Y:     0.9457      Z:     0.0003     Total:     2.0922

*** Psi4 exiting successfully. Buy a developer a beer!
