                               Psi4 1.3.2 release

  ==> Input File <==

--------------------------------------------------------------------------
#psi4
#
memory 32 gb

molecule  {
0 1
  O       -1.4607440    -0.6783760    -0.0000110
  N        0.8364910    -1.0546300    -0.0000300
  N        2.0492790    -0.4487200    -0.0000870
  C       -0.2000590    -0.1785130    -0.0000310
  C        0.3504840     1.0933250    -0.0000620
  C        1.7186494     0.9563503    -0.0000999
  C       -2.4699820     0.3361590     0.0002330
  H       -0.1651650     2.0416990    -0.0000660
  H        0.7745000    -2.0647320    -0.0000170
  H        2.5420040     1.5875080    -0.0001330
  H       -3.4206380    -0.1946080     0.0003100
  H       -2.3886930     0.9604430    -0.8948830
  H       -2.3884390     0.9602630     0.8954520
units angstrom
no_reorient  #important for SAPT in psi4, default
symmetry c1  #important for SAPT in psi4, default
}

set PROPERTIES_ORIGIN ["COM"]
properties('MP2/aug-cc-pvtz', properties = ['dipole'])
--------------------------------------------------------------------------

    Molecular point group: c1
  Charge       = 0
  Multiplicity = 1
  Basis Set: AUG-CC-PVTZ
    Blend: AUG-CC-PVTZ
  Basis Set: (AUG-CC-PVTZ AUX)
    Blend: AUG-CC-PVTZ-JKFIT

    Orbital Energies [Eh]
    ---------------------

    Doubly Occupied:

       1A    -20.612801     2A    -15.638150     3A    -15.583026
       4A    -11.342274     5A    -11.300822     6A    -11.259598
       7A    -11.223591     8A     -1.439895     9A     -1.345178
      10A     -1.078150    11A     -1.050213    12A     -0.958476
      13A     -0.831802    14A     -0.799010    15A     -0.754213
      16A     -0.679912    17A     -0.654243    18A     -0.619888
      19A     -0.609744    20A     -0.595033    21A     -0.576549
      22A     -0.530390    23A     -0.504547    24A     -0.446836
      25A     -0.372162    26A     -0.311274

  @DF-RHF Final Energy:  -338.78025441117842

   => Energetics <=

    Nuclear Repulsion Energy =            294.5442170948747389
    One-Electron Energy =               -1044.4133887751281691
    Two-Electron Energy =                 411.0889172690750115
    Total Energy =                       -338.7802544111784186
  Basis Set: (AUG-CC-PVTZ AUX)
    Blend: AUG-CC-PVTZ-RI
    Molecular point group: c1

    Geometry (in Angstrom), charge = 0, multiplicity = 1:

       Center              X                  Y                   Z               Mass
    ------------   -----------------  -----------------  -----------------  -----------------
         O           -1.509172973590    -0.656979237288    -0.000004218468    15.994914619570
         N            0.788062026410    -1.033233237288    -0.000023218468    14.003074004430
         N            2.000850026410    -0.427323237288    -0.000080218468    14.003074004430
         C           -0.248487973590    -0.157116237288    -0.000024218468    12.000000000000
         C            0.302055026410     1.114721762712    -0.000055218468    12.000000000000
         C            1.670220426410     0.977747062712    -0.000093118468    12.000000000000
         C           -2.518410973590     0.357555762712     0.000239781532    12.000000000000
         H           -0.213593973590     2.063095762712    -0.000059218468     1.007825032230
         H            0.726071026410    -2.043335237288    -0.000010218468     1.007825032230
         H            2.493575026410     1.608904762712    -0.000126218468     1.007825032230
         H           -3.469066973590    -0.173211237288     0.000316781532     1.007825032230
         H           -2.437121973590     0.981839762712    -0.894876218468     1.007825032230
         H           -2.436867973590     0.981659762712     0.895458781532     1.007825032230

  Basis Set: AUG-CC-PVTZ
    Blend: AUG-CC-PVTZ
  Basis Set: (AUG-CC-PVTZ AUX)
    Blend: AUG-CC-PVTZ-JKFIT
	 Reference Energy          =    -338.7802544111784186 [Eh]
	 Singles Energy            =      -0.0000000000000000 [Eh]
	 Same-Spin Energy          =      -0.3562642091887235 [Eh]
	 Opposite-Spin Energy      =      -1.0891164348315643 [Eh]
	 Correlation Energy        =      -1.4453806440202879 [Eh]
	 Total Energy              =    -340.2256350551987225 [Eh]

	 ================> DF-SCS-MP2 Energies <==================
	-----------------------------------------------------------
	 SCS Same-Spin Scale       =       0.3333333333333333 [-]
	 SCS Opposite-Spin Scale   =       1.2000000000000000 [-]
	 SCS Same-Spin Energy      =      -0.1187547363962412 [Eh]
	 SCS Opposite-Spin Energy  =      -1.3069397217978771 [Eh]
	 SCS Correlation Energy    =      -1.4256944581941182 [Eh]
	 SCS Total Energy          =    -340.2059488693725484 [Eh]
	-----------------------------------------------------------

  Dipole Moment: [D]
     X:    -3.2034      Y:     0.6394      Z:     0.0003     Total:     3.2666

*** Psi4 exiting successfully. Buy a developer a beer!
