                               Psi4 1.3.2 release

  ==> Input File <==

--------------------------------------------------------------------------
#psi4
#
memory 32 gb

molecule  {
0 1
  O       -1.4607440    -0.6783760    -0.0000110
  N        0.8364910    -1.0546300    -0.0000300
  N        2.0034525    -0.4586628    -0.0000856
  C       -0.2000590    -0.1785130    -0.0000310
  C        0.3504840     1.0933250    -0.0000620
  C        1.7415550     0.8590090    -0.0000990
  C       -2.4699820     0.3361590     0.0002330
  H       -0.1651650     2.0416990    -0.0000660
  H        0.7745000    -2.0647320    -0.0000170
  H        2.5420040     1.5875080    -0.0001330
  H       -3.4206380    -0.1946080     0.0003100
  H       -2.3886930     0.9604430    -0.8948830
  H       -2.3884390     0.9602630     0.8954520
units angstrom
no_reorient  #important for SAPT in psi4, default
symmetry c1  #important for SAPT in psi4, default
}

set PROPERTIES_ORIGIN ["COM"]
properties('MP2/aug-cc-pvtz', properties = ['dipole'])
--------------------------------------------------------------------------

    Molecular point group: c1
  Charge       = 0
  Multiplicity = 1
  Basis Set: AUG-CC-PVTZ
    Blend: AUG-CC-PVTZ
  Basis Set: (AUG-CC-PVTZ AUX)
    Blend: AUG-CC-PVTZ-JKFIT

    Orbital Energies [Eh]
    ---------------------

    Doubly Occupied:

       1A    -20.609702     2A    -15.634253     3A    -15.576973
       4A    -11.337739     5A    -11.298782     6A    -11.253709
       7A    -11.219953     8A     -1.439625     9A     -1.373924
      10A     -1.089117    11A     -1.052027    12A     -0.959056
      13A     -0.821141    14A     -0.806201    15A     -0.754014
      16A     -0.679033    17A     -0.650611    18A     -0.629483
      19A     -0.607014    20A     -0.598032    21A     -0.583468
      22A     -0.526367    23A     -0.506792    24A     -0.447535
      25A     -0.366638    26A     -0.321368

  @DF-RHF Final Energy:  -338.79932362740237

   => Energetics <=

    Nuclear Repulsion Energy =            296.8814549216550063
    One-Electron Energy =               -1049.0764408567627015
    Two-Electron Energy =                 413.3956623077053791
    Total Energy =                       -338.7993236274023729
  Basis Set: (AUG-CC-PVTZ AUX)
    Blend: AUG-CC-PVTZ-RI
    Molecular point group: c1

    Geometry (in Angstrom), charge = 0, multiplicity = 1:

       Center              X                  Y                   Z               Mass
    ------------   -----------------  -----------------  -----------------  -----------------
         O           -1.505431493673    -0.643645715000    -0.000004528564    15.994914619570
         N            0.791803506327    -1.019899715000    -0.000023528564    14.003074004430
         N            1.958765006327    -0.423932515000    -0.000079128564    14.003074004430
         C           -0.244746493673    -0.143782715000    -0.000024528564    12.000000000000
         C            0.305796506327     1.128055285000    -0.000055528564    12.000000000000
         C            1.696867506327     0.893739285000    -0.000092528564    12.000000000000
         C           -2.514669493673     0.370889285000     0.000239471436    12.000000000000
         H           -0.209852493673     2.076429285000    -0.000059528564     1.007825032230
         H            0.729812506327    -2.030001715000    -0.000010528564     1.007825032230
         H            2.497316506327     1.622238285000    -0.000126528564     1.007825032230
         H           -3.465325493673    -0.159877715000     0.000316471436     1.007825032230
         H           -2.433380493673     0.995173285000    -0.894876528564     1.007825032230
         H           -2.433126493673     0.994993285000     0.895458471436     1.007825032230

  Basis Set: AUG-CC-PVTZ
    Blend: AUG-CC-PVTZ
  Basis Set: (AUG-CC-PVTZ AUX)
    Blend: AUG-CC-PVTZ-JKFIT
	 Reference Energy          =    -338.7993236274023729 [Eh]
	 Singles Energy            =      -0.0000000000000000 [Eh]
	 Same-Spin Energy          =      -0.3534816659693191 [Eh]
	 Opposite-Spin Energy      =      -1.0824349306634706 [Eh]
	 Correlation Energy        =      -1.4359165966327896 [Eh]
	 Total Energy              =    -340.2352402240351807 [Eh]

	 ================> DF-SCS-MP2 Energies <==================
	-----------------------------------------------------------
	 SCS Same-Spin Scale       =       0.3333333333333333 [-]
	 SCS Opposite-Spin Scale   =       1.2000000000000000 [-]
	 SCS Same-Spin Energy      =      -0.1178272219897730 [Eh]
	 SCS Opposite-Spin Energy  =      -1.2989219167961648 [Eh]
	 SCS Correlation Energy    =      -1.4167491387859377 [Eh]
	 SCS Total Energy          =    -340.2160727661882902 [Eh]
	-----------------------------------------------------------

  Dipole Moment: [D]
     X:    -3.0430      Y:     0.5886      Z:     0.0003     Total:     3.0994

*** Psi4 exiting successfully. Buy a developer a beer!
