                               Psi4 1.3.2 release

  ==> Input File <==

--------------------------------------------------------------------------
#psi4
#
memory 32 gb

molecule  {
0 1
  O       -1.4607440    -0.6783760    -0.0000110
  N        0.8516235    -1.0364063    -0.0000305
  N        2.0492790    -0.4487200    -0.0000870
  C       -0.2000590    -0.1785130    -0.0000310
  C        0.3504840     1.0933250    -0.0000620
  C        1.7415550     0.8590090    -0.0000990
  C       -2.4699820     0.3361590     0.0002330
  H       -0.1651650     2.0416990    -0.0000660
  H        0.7745000    -2.0647320    -0.0000170
  H        2.5420040     1.5875080    -0.0001330
  H       -3.4206380    -0.1946080     0.0003100
  H       -2.3886930     0.9604430    -0.8948830
  H       -2.3884390     0.9602630     0.8954520
units angstrom
no_reorient  #important for SAPT in psi4, default
symmetry c1  #important for SAPT in psi4, default
}

set PROPERTIES_ORIGIN ["COM"]
properties('MP2/aug-cc-pvtz', properties = ['dipole'])
--------------------------------------------------------------------------

    Molecular point group: c1
  Charge       = 0
  Multiplicity = 1
  Basis Set: AUG-CC-PVTZ
    Blend: AUG-CC-PVTZ
  Basis Set: (AUG-CC-PVTZ AUX)
    Blend: AUG-CC-PVTZ-JKFIT

    Orbital Energies [Eh]
    ---------------------

    Doubly Occupied:

       1A    -20.612707     2A    -15.633366     3A    -15.580435
       4A    -11.340966     5A    -11.300422     6A    -11.255060
       7A    -11.219907     8A     -1.440154     9A     -1.364986
      10A     -1.088509    11A     -1.050836    12A     -0.961428
      13A     -0.814757    14A     -0.801701    15A     -0.755085
      16A     -0.679933    17A     -0.649750    18A     -0.626944
      19A     -0.603531    20A     -0.594487    21A     -0.580071
      22A     -0.527438    23A     -0.507808    24A     -0.455531
      25A     -0.364751    26A     -0.325152

  @DF-RHF Final Energy:  -338.79841686935265

   => Energetics <=

    Nuclear Repulsion Energy =            296.0637194079821484
    One-Electron Energy =               -1047.4528378211432482
    Two-Electron Energy =                 412.5907015438084500
    Total Energy =                       -338.7984168693526499
  Basis Set: (AUG-CC-PVTZ AUX)
    Blend: AUG-CC-PVTZ-RI
    Molecular point group: c1

    Geometry (in Angstrom), charge = 0, multiplicity = 1:

       Center              X                  Y                   Z               Mass
    ------------   -----------------  -----------------  -----------------  -----------------
         O           -1.514137569030    -0.647668413397    -0.000004257209    15.994914619570
         N            0.798229930970    -1.005698713397    -0.000023757209    14.003074004430
         N            1.995885430970    -0.418012413397    -0.000080257209    14.003074004430
         C           -0.253452569030    -0.147805413397    -0.000024257209    12.000000000000
         C            0.297090430970     1.124032586603    -0.000055257209    12.000000000000
         C            1.688161430970     0.889716586603    -0.000092257209    12.000000000000
         C           -2.523375569030     0.366866586603     0.000239742791    12.000000000000
         H           -0.218558569030     2.072406586603    -0.000059257209     1.007825032230
         H            0.721106430970    -2.034024413397    -0.000010257209     1.007825032230
         H            2.488610430970     1.618215586603    -0.000126257209     1.007825032230
         H           -3.474031569030    -0.163900413397     0.000316742791     1.007825032230
         H           -2.442086569030     0.991150586603    -0.894876257209     1.007825032230
         H           -2.441832569030     0.990970586603     0.895458742791     1.007825032230

  Basis Set: AUG-CC-PVTZ
    Blend: AUG-CC-PVTZ
  Basis Set: (AUG-CC-PVTZ AUX)
    Blend: AUG-CC-PVTZ-JKFIT
	 Reference Energy          =    -338.7984168693526499 [Eh]
	 Singles Energy            =      -0.0000000000000000 [Eh]
	 Same-Spin Energy          =      -0.3536223128835382 [Eh]
	 Opposite-Spin Energy      =      -1.0834015963433843 [Eh]
	 Correlation Energy        =      -1.4370239092269226 [Eh]
	 Total Energy              =    -340.2354407785795729 [Eh]

	 ================> DF-SCS-MP2 Energies <==================
	-----------------------------------------------------------
	 SCS Same-Spin Scale       =       0.3333333333333333 [-]
	 SCS Opposite-Spin Scale   =       1.2000000000000000 [-]
	 SCS Same-Spin Energy      =      -0.1178741042945127 [Eh]
	 SCS Opposite-Spin Energy  =      -1.3000819156120611 [Eh]
	 SCS Correlation Energy    =      -1.4179560199065739 [Eh]
	 SCS Total Energy          =    -340.2163728892592189 [Eh]
	-----------------------------------------------------------

  Dipole Moment: [D]
     X:    -3.1401      Y:     0.5957      Z:     0.0003     Total:     3.1961

*** Psi4 exiting successfully. Buy a developer a beer!
