                               Psi4 1.3.2 release

  ==> Input File <==

--------------------------------------------------------------------------
#psi4
#
memory 32 gb

molecule  {
0 1
  O       -1.4607440    -0.6783760    -0.0000110
  N        0.8364910    -1.0546300    -0.0000300
  N        2.0492790    -0.4487200    -0.0000870
  C       -0.1915272    -0.2005911    -0.0000352
  C        0.3504840     1.0933250    -0.0000620
  C        1.7415550     0.8590090    -0.0000990
  C       -2.4699820     0.3361590     0.0002330
  H       -0.1651650     2.0416990    -0.0000660
  H        0.7745000    -2.0647320    -0.0000170
  H        2.5420040     1.5875080    -0.0001330
  H       -3.4206380    -0.1946080     0.0003100
  H       -2.3886930     0.9604430    -0.8948830
  H       -2.3884390     0.9602630     0.8954520
units angstrom
no_reorient  #important for SAPT in psi4, default
symmetry c1  #important for SAPT in psi4, default
}

set PROPERTIES_ORIGIN ["COM"]
properties('MP2/aug-cc-pvtz', properties = ['dipole'])
--------------------------------------------------------------------------

    Molecular point group: c1
  Charge       = 0
  Multiplicity = 1
  Basis Set: AUG-CC-PVTZ
    Blend: AUG-CC-PVTZ
  Basis Set: (AUG-CC-PVTZ AUX)
    Blend: AUG-CC-PVTZ-JKFIT

    Orbital Energies [Eh]
    ---------------------

    Doubly Occupied:

       1A    -20.612010     2A    -15.632875     3A    -15.578698
       4A    -11.343683     5A    -11.300466     6A    -11.257580
       7A    -11.219889     8A     -1.440115     9A     -1.359877
      10A     -1.096320    11A     -1.044837    12A     -0.961634
      13A     -0.818599    14A     -0.802747    15A     -0.755724
      16A     -0.679743    17A     -0.649523    18A     -0.623282
      19A     -0.602312    20A     -0.601200    21A     -0.580195
      22A     -0.524534    23A     -0.506575    24A     -0.453629
      25A     -0.367363    26A     -0.323981

  @DF-RHF Final Energy:  -338.79984738150881

   => Energetics <=

    Nuclear Repulsion Energy =            295.7690851885815846
    One-Electron Energy =               -1046.8630863517792022
    Two-Electron Energy =                 412.2941537816888058
    Total Energy =                       -338.7998473815088118
  Basis Set: (AUG-CC-PVTZ AUX)
    Blend: AUG-CC-PVTZ-RI
    Molecular point group: c1

    Geometry (in Angstrom), charge = 0, multiplicity = 1:

       Center              X                  Y                   Z               Mass
    ------------   -----------------  -----------------  -----------------  -----------------
         O           -1.513020566102    -0.642363614199    -0.000003814584    15.994914619570
         N            0.784214433898    -1.018617614199    -0.000022814584    14.003074004430
         N            1.997002433898    -0.412707614199    -0.000079814584    14.003074004430
         C           -0.243803766102    -0.164578714199    -0.000028014584    12.000000000000
         C            0.298207433898     1.129337385801    -0.000054814584    12.000000000000
         C            1.689278433898     0.895021385801    -0.000091814584    12.000000000000
         C           -2.522258566102     0.372171385801     0.000240185416    12.000000000000
         H           -0.217441566102     2.077711385801    -0.000058814584     1.007825032230
         H            0.722223433898    -2.028719614199    -0.000009814584     1.007825032230
         H            2.489727433898     1.623520385801    -0.000125814584     1.007825032230
         H           -3.472914566102    -0.158595614199     0.000317185416     1.007825032230
         H           -2.440969566102     0.996455385801    -0.894875814584     1.007825032230
         H           -2.440715566102     0.996275385801     0.895459185416     1.007825032230

  Basis Set: AUG-CC-PVTZ
    Blend: AUG-CC-PVTZ
  Basis Set: (AUG-CC-PVTZ AUX)
    Blend: AUG-CC-PVTZ-JKFIT
	 Reference Energy          =    -338.7998473815088118 [Eh]
	 Singles Energy            =      -0.0000000000000000 [Eh]
	 Same-Spin Energy          =      -0.3530551426606178 [Eh]
	 Opposite-Spin Energy      =      -1.0827165572199395 [Eh]
	 Correlation Energy        =      -1.4357716998805574 [Eh]
	 Total Energy              =    -340.2356190813893591 [Eh]

	 ================> DF-SCS-MP2 Energies <==================
	-----------------------------------------------------------
	 SCS Same-Spin Scale       =       0.3333333333333333 [-]
	 SCS Opposite-Spin Scale   =       1.2000000000000000 [-]
	 SCS Same-Spin Energy      =      -0.1176850475535393 [Eh]
	 SCS Opposite-Spin Energy  =      -1.2992598686639274 [Eh]
	 SCS Correlation Energy    =      -1.4169449162174668 [Eh]
	 SCS Total Energy          =    -340.2167922977262720 [Eh]
	-----------------------------------------------------------

  Dipole Moment: [D]
     X:    -3.1215      Y:     0.5848      Z:     0.0003     Total:     3.1758

*** Psi4 exiting successfully. Buy a developer a beer!
