                               Psi4 1.3.2 release

  ==> Input File <==

--------------------------------------------------------------------------
#psi4
#
memory 32 gb

molecule  {
0 1
  O       -1.4925417    -0.5892174    -0.0000119
  N        0.8364910    -1.0546300    -0.0000300
  N        2.0492790    -0.4487200    -0.0000870
  C       -0.2000590    -0.1785130    -0.0000310
  C        0.3504840     1.0933250    -0.0000620
  C        1.7415550     0.8590090    -0.0000990
  C       -2.4699820     0.3361590     0.0002330
  H       -0.1651650     2.0416990    -0.0000660
  H        0.7745000    -2.0647320    -0.0000170
  H        2.5420040     1.5875080    -0.0001330
  H       -3.4206380    -0.1946080     0.0003100
  H       -2.3886930     0.9604430    -0.8948830
  H       -2.3884390     0.9602630     0.8954520
units angstrom
no_reorient  #important for SAPT in psi4, default
symmetry c1  #important for SAPT in psi4, default
}

set PROPERTIES_ORIGIN ["COM"]
properties('MP2/aug-cc-pvtz', properties = ['dipole'])
--------------------------------------------------------------------------

    Molecular point group: c1
  Charge       = 0
  Multiplicity = 1
  Basis Set: AUG-CC-PVTZ
    Blend: AUG-CC-PVTZ
  Basis Set: (AUG-CC-PVTZ AUX)
    Blend: AUG-CC-PVTZ-JKFIT

    Orbital Energies [Eh]
    ---------------------

    Doubly Occupied:

       1A    -20.608727     2A    -15.636013     3A    -15.583560
       4A    -11.347133     5A    -11.291135     6A    -11.259100
       7A    -11.220032     8A     -1.459784     9A     -1.363078
      10A     -1.096576    11A     -1.054318    12A     -0.962367
      13A     -0.820810    14A     -0.802010    15A     -0.765164
      16A     -0.692976    17A     -0.665766    18A     -0.629180
      19A     -0.603781    20A     -0.602958    21A     -0.581393
      22A     -0.512321    23A     -0.495197    24A     -0.457280
      25A     -0.368562    26A     -0.327627

  @DF-RHF Final Energy:  -338.79642546091713

   => Energetics <=

    Nuclear Repulsion Energy =            296.8969858348070829
    One-Electron Energy =               -1048.9731257197404375
    Two-Electron Energy =                 413.2797144240162197
    Total Energy =                       -338.7964254609171348
  Basis Set: (AUG-CC-PVTZ AUX)
    Blend: AUG-CC-PVTZ-RI
    Molecular point group: c1

    Geometry (in Angstrom), charge = 0, multiplicity = 1:

       Center              X                  Y                   Z               Mass
    ------------   -----------------  -----------------  -----------------  -----------------
         O           -1.538586797672    -0.570451884849    -0.000005081798    15.994914619570
         N            0.790445902328    -1.035864484849    -0.000023181798    14.003074004430
         N            2.003233902328    -0.429954484849    -0.000080181798    14.003074004430
         C           -0.246104097672    -0.159747484849    -0.000024181798    12.000000000000
         C            0.304438902328     1.112090515151    -0.000055181798    12.000000000000
         C            1.695509902328     0.877774515151    -0.000092181798    12.000000000000
         C           -2.516027097672     0.354924515151     0.000239818202    12.000000000000
         H           -0.211210097672     2.060464515151    -0.000059181798     1.007825032230
         H            0.728454902328    -2.045966484849    -0.000010181798     1.007825032230
         H            2.495958902328     1.606273515151    -0.000126181798     1.007825032230
         H           -3.466683097672    -0.175842484849     0.000316818202     1.007825032230
         H           -2.434738097672     0.979208515151    -0.894876181798     1.007825032230
         H           -2.434484097672     0.979028515151     0.895458818202     1.007825032230

  Basis Set: AUG-CC-PVTZ
    Blend: AUG-CC-PVTZ
  Basis Set: (AUG-CC-PVTZ AUX)
    Blend: AUG-CC-PVTZ-JKFIT
	 Reference Energy          =    -338.7964254609171348 [Eh]
	 Singles Energy            =      -0.0000000000000000 [Eh]
	 Same-Spin Energy          =      -0.3529582956002865 [Eh]
	 Opposite-Spin Energy      =      -1.0813175282733634 [Eh]
	 Correlation Energy        =      -1.4342758238736499 [Eh]
	 Total Energy              =    -340.2307012847907686 [Eh]

	 ================> DF-SCS-MP2 Energies <==================
	-----------------------------------------------------------
	 SCS Same-Spin Scale       =       0.3333333333333333 [-]
	 SCS Opposite-Spin Scale   =       1.2000000000000000 [-]
	 SCS Same-Spin Energy      =      -0.1176527652000955 [Eh]
	 SCS Opposite-Spin Energy  =      -1.2975810339280360 [Eh]
	 SCS Correlation Energy    =      -1.4152337991281316 [Eh]
	 SCS Total Energy          =    -340.2116592600452805 [Eh]
	-----------------------------------------------------------

  Dipole Moment: [D]
     X:    -2.8562      Y:     0.4066      Z:     0.0003     Total:     2.8850

*** Psi4 exiting successfully. Buy a developer a beer!
