                               Psi4 1.3.2 release

  ==> Input File <==

--------------------------------------------------------------------------
#psi4
#
memory 32 gb

molecule  {
0 1
  O       -1.4607440    -0.6783760    -0.0000110
  N        0.8364910    -1.0546300    -0.0000300
  N        2.0492790    -0.4487200    -0.0000870
  C       -0.2000590    -0.1785130    -0.0000310
  C        0.3504840     1.0933250    -0.0000620
  C        1.8401658     0.8423987    -0.0001016
  C       -2.4699820     0.3361590     0.0002330
  H       -0.1651650     2.0416990    -0.0000660
  H        0.7745000    -2.0647320    -0.0000170
  H        2.5420040     1.5875080    -0.0001330
  H       -3.4206380    -0.1946080     0.0003100
  H       -2.3886930     0.9604430    -0.8948830
  H       -2.3884390     0.9602630     0.8954520
units angstrom
no_reorient  #important for SAPT in psi4, default
symmetry c1  #important for SAPT in psi4, default
}

set PROPERTIES_ORIGIN ["COM"]
properties('MP2/aug-cc-pvtz', properties = ['dipole'])
--------------------------------------------------------------------------

    Molecular point group: c1
  Charge       = 0
  Multiplicity = 1
  Basis Set: AUG-CC-PVTZ
    Blend: AUG-CC-PVTZ
  Basis Set: (AUG-CC-PVTZ AUX)
    Blend: AUG-CC-PVTZ-JKFIT

    Orbital Energies [Eh]
    ---------------------

    Doubly Occupied:

       1A    -20.611826     2A    -15.627736     3A    -15.585999
       4A    -11.341490     5A    -11.298509     6A    -11.260834
       7A    -11.222521     8A     -1.438560     9A     -1.356737
      10A     -1.101710    11A     -1.032975    12A     -0.960851
      13A     -0.822226    14A     -0.799622    15A     -0.752343
      16A     -0.677759    17A     -0.648673    18A     -0.639114
      19A     -0.599053    20A     -0.594550    21A     -0.584733
      22A     -0.528478    23A     -0.506591    24A     -0.441624
      25A     -0.361022    26A     -0.329639

  @DF-RHF Final Energy:  -338.79230969184118

   => Energetics <=

    Nuclear Repulsion Energy =            294.6184019914130090
    One-Electron Energy =               -1044.5710739861717684
    Two-Electron Energy =                 411.1603623029175196
    Total Energy =                       -338.7923096918411829
  Basis Set: (AUG-CC-PVTZ AUX)
    Blend: AUG-CC-PVTZ-RI
    Molecular point group: c1

    Geometry (in Angstrom), charge = 0, multiplicity = 1:

       Center              X                  Y                   Z               Mass
    ------------   -----------------  -----------------  -----------------  -----------------
         O           -1.524045246449    -0.643032812871    -0.000004010407    15.994914619570
         N            0.773189753551    -1.019286812871    -0.000023010407    14.003074004430
         N            1.985977753551    -0.413376812871    -0.000080010407    14.003074004430
         C           -0.263360246449    -0.143169812871    -0.000024010407    12.000000000000
         C            0.287182753551     1.128668187129    -0.000055010407    12.000000000000
         C            1.776864553551     0.877741887129    -0.000094610407    12.000000000000
         C           -2.533283246449     0.371502187129     0.000239989593    12.000000000000
         H           -0.228466246449     2.077042187129    -0.000059010407     1.007825032230
         H            0.711198753551    -2.029388812871    -0.000010010407     1.007825032230
         H            2.478702753551     1.622851187129    -0.000126010407     1.007825032230
         H           -3.483939246449    -0.159264812871     0.000316989593     1.007825032230
         H           -2.451994246449     0.995786187129    -0.894876010407     1.007825032230
         H           -2.451740246449     0.995606187129     0.895458989593     1.007825032230

  Basis Set: AUG-CC-PVTZ
    Blend: AUG-CC-PVTZ
  Basis Set: (AUG-CC-PVTZ AUX)
    Blend: AUG-CC-PVTZ-JKFIT
	 Reference Energy          =    -338.7923096918411829 [Eh]
	 Singles Energy            =      -0.0000000000000000 [Eh]
	 Same-Spin Energy          =      -0.3515157479020879 [Eh]
	 Opposite-Spin Energy      =      -1.0815571321421100 [Eh]
	 Correlation Energy        =      -1.4330728800441981 [Eh]
	 Total Energy              =    -340.2253825718854046 [Eh]

	 ================> DF-SCS-MP2 Energies <==================
	-----------------------------------------------------------
	 SCS Same-Spin Scale       =       0.3333333333333333 [-]
	 SCS Opposite-Spin Scale   =       1.2000000000000000 [-]
	 SCS Same-Spin Energy      =      -0.1171719159673626 [Eh]
	 SCS Opposite-Spin Energy  =      -1.2978685585705321 [Eh]
	 SCS Correlation Energy    =      -1.4150404745378946 [Eh]
	 SCS Total Energy          =    -340.2073501663790580 [Eh]
	-----------------------------------------------------------

  Dipole Moment: [D]
     X:    -2.9210      Y:     0.6511      Z:     0.0003     Total:     2.9927

*** Psi4 exiting successfully. Buy a developer a beer!
