                               Psi4 1.3.2 release

  ==> Input File <==

--------------------------------------------------------------------------
#psi4
#
memory 32 gb

molecule  {
0 1
  O       -1.4607440    -0.6783760    -0.0000110
  N        0.8817114    -1.1377538    -0.0000302
  N        2.0492790    -0.4487200    -0.0000870
  C       -0.2000590    -0.1785130    -0.0000310
  C        0.3504840     1.0933250    -0.0000620
  C        1.7415550     0.8590090    -0.0000990
  C       -2.4699820     0.3361590     0.0002330
  H       -0.1651650     2.0416990    -0.0000660
  H        0.7745000    -2.0647320    -0.0000170
  H        2.5420040     1.5875080    -0.0001330
  H       -3.4206380    -0.1946080     0.0003100
  H       -2.3886930     0.9604430    -0.8948830
  H       -2.3884390     0.9602630     0.8954520
units angstrom
no_reorient  #important for SAPT in psi4, default
symmetry c1  #important for SAPT in psi4, default
}

set PROPERTIES_ORIGIN ["COM"]
properties('MP2/aug-cc-pvtz', properties = ['dipole'])
--------------------------------------------------------------------------

    Molecular point group: c1
  Charge       = 0
  Multiplicity = 1
  Basis Set: AUG-CC-PVTZ
    Blend: AUG-CC-PVTZ
  Basis Set: (AUG-CC-PVTZ AUX)
    Blend: AUG-CC-PVTZ-JKFIT

    Orbital Energies [Eh]
    ---------------------

    Doubly Occupied:

       1A    -20.612914     2A    -15.624283     3A    -15.584411
       4A    -11.350649     5A    -11.300375     6A    -11.259283
       7A    -11.226631     8A     -1.436744     9A     -1.343994
      10A     -1.092806    11A     -1.044563    12A     -0.962441
      13A     -0.836006    14A     -0.786859    15A     -0.751275
      16A     -0.676656    17A     -0.660946    18A     -0.632158
      19A     -0.598189    20A     -0.590320    21A     -0.583094
      22A     -0.528770    23A     -0.507297    24A     -0.443000
      25A     -0.371992    26A     -0.319958

  @DF-RHF Final Energy:  -338.78361262650645

   => Energetics <=

    Nuclear Repulsion Energy =            293.7961686807190063
    One-Electron Energy =               -1042.9083318267719278
    Two-Electron Energy =                 410.3285505195464680
    Total Energy =                       -338.7836126265064536
  Basis Set: (AUG-CC-PVTZ AUX)
    Blend: AUG-CC-PVTZ-RI
    Molecular point group: c1

    Geometry (in Angstrom), charge = 0, multiplicity = 1:

       Center              X                  Y                   Z               Mass
    ------------   -----------------  -----------------  -----------------  -----------------
         O           -1.518434678969    -0.633194111452    -0.000004300055    15.994914619570
         N            0.824020721031    -1.092571911452    -0.000023500055    14.003074004430
         N            1.991588321031    -0.403538111452    -0.000080300055    14.003074004430
         C           -0.257749678969    -0.133331111452    -0.000024300055    12.000000000000
         C            0.292793321031     1.138506888548    -0.000055300055    12.000000000000
         C            1.683864321031     0.904190888548    -0.000092300055    12.000000000000
         C           -2.527672678969     0.381340888548     0.000239699945    12.000000000000
         H           -0.222855678969     2.086880888548    -0.000059300055     1.007825032230
         H            0.716809321031    -2.019550111452    -0.000010300055     1.007825032230
         H            2.484313321031     1.632689888548    -0.000126300055     1.007825032230
         H           -3.478328678969    -0.149426111452     0.000316699945     1.007825032230
         H           -2.446383678969     1.005624888548    -0.894876300055     1.007825032230
         H           -2.446129678969     1.005444888548     0.895458699945     1.007825032230

  Basis Set: AUG-CC-PVTZ
    Blend: AUG-CC-PVTZ
  Basis Set: (AUG-CC-PVTZ AUX)
    Blend: AUG-CC-PVTZ-JKFIT
	 Reference Energy          =    -338.7836126265064536 [Eh]
	 Singles Energy            =      -0.0000000000000000 [Eh]
	 Same-Spin Energy          =      -0.3531485603061540 [Eh]
	 Opposite-Spin Energy      =      -1.0847259627207808 [Eh]
	 Correlation Energy        =      -1.4378745230269347 [Eh]
	 Total Energy              =    -340.2214871495334023 [Eh]

	 ================> DF-SCS-MP2 Energies <==================
	-----------------------------------------------------------
	 SCS Same-Spin Scale       =       0.3333333333333333 [-]
	 SCS Opposite-Spin Scale   =       1.2000000000000000 [-]
	 SCS Same-Spin Energy      =      -0.1177161867687180 [Eh]
	 SCS Opposite-Spin Energy  =      -1.3016711552649369 [Eh]
	 SCS Correlation Energy    =      -1.4193873420336549 [Eh]
	 SCS Total Energy          =    -340.2029999685400981 [Eh]
	-----------------------------------------------------------

  Dipole Moment: [D]
     X:    -3.1741      Y:     0.8483      Z:     0.0003     Total:     3.2855

*** Psi4 exiting successfully. Buy a developer a beer!
