                               Psi4 1.3.2 release

  ==> Input File <==

--------------------------------------------------------------------------
#psi4
#
memory 32 gb

molecule  {
0 1
  O       -1.4607440    -0.6783760    -0.0000110
  N        0.8364910    -1.0546300    -0.0000300
  N        2.0492790    -0.4487200    -0.0000870
  C       -0.2000590    -0.1785130    -0.0000310
  C        0.3504840     1.0933250    -0.0000620
  C        1.7415550     0.8590090    -0.0000990
  C       -2.4699820     0.3361590     0.0002330
  H       -0.1651650     2.0416990    -0.0000660
  H        0.7745000    -2.0647320    -0.0000170
  H        2.6899167     1.7221253    -0.0001393
  H       -3.4206380    -0.1946080     0.0003100
  H       -2.3886930     0.9604430    -0.8948830
  H       -2.3884390     0.9602630     0.8954520
units angstrom
no_reorient  #important for SAPT in psi4, default
symmetry c1  #important for SAPT in psi4, default
}

set PROPERTIES_ORIGIN ["COM"]
properties('MP2/aug-cc-pvtz', properties = ['dipole'])
--------------------------------------------------------------------------

    Molecular point group: c1
  Charge       = 0
  Multiplicity = 1
  Basis Set: AUG-CC-PVTZ
    Blend: AUG-CC-PVTZ
  Basis Set: (AUG-CC-PVTZ AUX)
    Blend: AUG-CC-PVTZ-JKFIT

    Orbital Energies [Eh]
    ---------------------

    Doubly Occupied:

       1A    -20.613677     2A    -15.631890     3A    -15.582504
       4A    -11.344572     5A    -11.300874     6A    -11.278305
       7A    -11.222554     8A     -1.441080     9A     -1.357951
      10A     -1.089893    11A     -1.049908    12A     -0.962088
      13A     -0.810439    14A     -0.791105    15A     -0.752475
      16A     -0.680523    17A     -0.649733    18A     -0.625609
      19A     -0.601258    20A     -0.594725    21A     -0.554938
      22A     -0.520856    23A     -0.507707    24A     -0.452516
      25A     -0.367977    26A     -0.327110

  @DF-RHF Final Energy:  -338.77684712704377

   => Energetics <=

    Nuclear Repulsion Energy =            294.8117708111288380
    One-Electron Energy =               -1044.9527067389776676
    Two-Electron Energy =                 411.3640888008051206
    Total Energy =                       -338.7768471270437658
  Basis Set: (AUG-CC-PVTZ AUX)
    Blend: AUG-CC-PVTZ-RI
    Molecular point group: c1

    Geometry (in Angstrom), charge = 0, multiplicity = 1:

       Center              X                  Y                   Z               Mass
    ------------   -----------------  -----------------  -----------------  -----------------
         O           -1.513496746295    -0.646449447998    -0.000004263861    15.994914619570
         N            0.783738253705    -1.022703447998    -0.000023263861    14.003074004430
         N            1.996526253705    -0.416793447998    -0.000080263861    14.003074004430
         C           -0.252811746295    -0.146586447998    -0.000024263861    12.000000000000
         C            0.297731253705     1.125251552002    -0.000055263861    12.000000000000
         C            1.688802253705     0.890935552002    -0.000092263861    12.000000000000
         C           -2.522734746295     0.368085552002     0.000239736139    12.000000000000
         H           -0.217917746295     2.073625552002    -0.000059263861     1.007825032230
         H            0.721747253705    -2.032805447998    -0.000010263861     1.007825032230
         H            2.637163953705     1.754051852002    -0.000132563861     1.007825032230
         H           -3.473390746295    -0.162681447998     0.000316736139     1.007825032230
         H           -2.441445746295     0.992369552002    -0.894876263861     1.007825032230
         H           -2.441191746295     0.992189552002     0.895458736139     1.007825032230

  Basis Set: AUG-CC-PVTZ
    Blend: AUG-CC-PVTZ
  Basis Set: (AUG-CC-PVTZ AUX)
    Blend: AUG-CC-PVTZ-JKFIT
	 Reference Energy          =    -338.7768471270437658 [Eh]
	 Singles Energy            =      -0.0000000000000000 [Eh]
	 Same-Spin Energy          =      -0.3536529944726937 [Eh]
	 Opposite-Spin Energy      =      -1.0852172363747905 [Eh]
	 Correlation Energy        =      -1.4388702308474843 [Eh]
	 Total Energy              =    -340.2157173578912648 [Eh]

	 ================> DF-SCS-MP2 Energies <==================
	-----------------------------------------------------------
	 SCS Same-Spin Scale       =       0.3333333333333333 [-]
	 SCS Opposite-Spin Scale   =       1.2000000000000000 [-]
	 SCS Same-Spin Energy      =      -0.1178843314908979 [Eh]
	 SCS Opposite-Spin Energy  =      -1.3022606836497486 [Eh]
	 SCS Correlation Energy    =      -1.4201450151406465 [Eh]
	 SCS Total Energy          =    -340.1969921421843992 [Eh]
	-----------------------------------------------------------

  Dipole Moment: [D]
     X:    -3.1759      Y:     0.6053      Z:     0.0003     Total:     3.2331

*** Psi4 exiting successfully. Buy a developer a beer!
