                               Psi4 1.3.2 release

  ==> Input File <==

--------------------------------------------------------------------------
#psi4
#
memory 32 gb

molecule  {
0 1
  O       -1.4607440    -0.6783760    -0.0000110
  N        0.8364910    -1.0546300    -0.0000300
  N        2.0492790    -0.4487200    -0.0000870
  C       -0.2379986    -0.0917897    -0.0000140
  C        0.3504840     1.0933250    -0.0000620
  C        1.7415550     0.8590090    -0.0000990
  C       -2.4699820     0.3361590     0.0002330
  H       -0.1651650     2.0416990    -0.0000660
  H        0.7745000    -2.0647320    -0.0000170
  H        2.5420040     1.5875080    -0.0001330
  H       -3.4206380    -0.1946080     0.0003100
  H       -2.3886930     0.9604430    -0.8948830
  H       -2.3884390     0.9602630     0.8954520
units angstrom
no_reorient  #important for SAPT in psi4, default
symmetry c1  #important for SAPT in psi4, default
}

set PROPERTIES_ORIGIN ["COM"]
properties('MP2/aug-cc-pvtz', properties = ['dipole'])
--------------------------------------------------------------------------

    Molecular point group: c1
  Charge       = 0
  Multiplicity = 1
  Basis Set: AUG-CC-PVTZ
    Blend: AUG-CC-PVTZ
  Basis Set: (AUG-CC-PVTZ AUX)
    Blend: AUG-CC-PVTZ-JKFIT

    Orbital Energies [Eh]
    ---------------------

    Doubly Occupied:

       1A    -20.615640     2A    -15.620062     3A    -15.588906
       4A    -11.340595     5A    -11.299806     6A    -11.256098
       7A    -11.221266     8A     -1.440879     9A     -1.343557
      10A     -1.074500    11A     -1.062331    12A     -0.961586
      13A     -0.818346    14A     -0.787906    15A     -0.751818
      16A     -0.680263    17A     -0.653432    18A     -0.634266
      19A     -0.590928    20A     -0.585941    21A     -0.575173
      22A     -0.538277    23A     -0.507735    24A     -0.454409
      25A     -0.369721    26A     -0.327211

  @DF-RHF Final Energy:  -338.78511677384620

   => Energetics <=

    Nuclear Repulsion Energy =            295.4719497866195184
    One-Electron Energy =               -1046.3128317782038721
    Two-Electron Energy =                 412.0557652177382124
    Total Energy =                       -338.7851167738461982
  Basis Set: (AUG-CC-PVTZ AUX)
    Blend: AUG-CC-PVTZ-RI
    Molecular point group: c1

    Geometry (in Angstrom), charge = 0, multiplicity = 1:

       Center              X                  Y                   Z               Mass
    ------------   -----------------  -----------------  -----------------  -----------------
         O           -1.507332977094    -0.655679710695    -0.000006409232    15.994914619570
         N            0.789902022906    -1.031933710695    -0.000025409232    14.003074004430
         N            2.002690022906    -0.426023710695    -0.000082409232    14.003074004430
         C           -0.284587577094    -0.069093410695    -0.000009409232    12.000000000000
         C            0.303895022906     1.116021289305    -0.000057409232    12.000000000000
         C            1.694966022906     0.881705289305    -0.000094409232    12.000000000000
         C           -2.516570977094     0.358855289305     0.000237590768    12.000000000000
         H           -0.211753977094     2.064395289305    -0.000061409232     1.007825032230
         H            0.727911022906    -2.042035710695    -0.000012409232     1.007825032230
         H            2.495415022906     1.610204289305    -0.000128409232     1.007825032230
         H           -3.467226977094    -0.171911710695     0.000314590768     1.007825032230
         H           -2.435281977094     0.983139289305    -0.894878409232     1.007825032230
         H           -2.435027977094     0.982959289305     0.895456590768     1.007825032230

  Basis Set: AUG-CC-PVTZ
    Blend: AUG-CC-PVTZ
  Basis Set: (AUG-CC-PVTZ AUX)
    Blend: AUG-CC-PVTZ-JKFIT
	 Reference Energy          =    -338.7851167738461982 [Eh]
	 Singles Energy            =      -0.0000000000000000 [Eh]
	 Same-Spin Energy          =      -0.3539801814517067 [Eh]
	 Opposite-Spin Energy      =      -1.0859953432040215 [Eh]
	 Correlation Energy        =      -1.4399755246557282 [Eh]
	 Total Energy              =    -340.2250922985019201 [Eh]

	 ================> DF-SCS-MP2 Energies <==================
	-----------------------------------------------------------
	 SCS Same-Spin Scale       =       0.3333333333333333 [-]
	 SCS Opposite-Spin Scale   =       1.2000000000000000 [-]
	 SCS Same-Spin Energy      =      -0.1179933938172356 [Eh]
	 SCS Opposite-Spin Energy  =      -1.3031944118448258 [Eh]
	 SCS Correlation Energy    =      -1.4211878056620613 [Eh]
	 SCS Total Energy          =    -340.2063045795082417 [Eh]
	-----------------------------------------------------------

  Dipole Moment: [D]
     X:    -3.2024      Y:     0.8887      Z:     0.0003     Total:     3.3235

*** Psi4 exiting successfully. Buy a developer a beer!
