                               Psi4 1.3.2 release

  ==> Input File <==

--------------------------------------------------------------------------
#psi4
#
memory 32 gb

molecule  {
0 1
  O       -1.4607440    -0.6783760    -0.0000110
  N        0.8364910    -1.0546300    -0.0000300
  N        2.0492790    -0.4487200    -0.0000870
  C       -0.2000590    -0.1785130    -0.0000310
  C        0.3504840     1.0933250    -0.0000620
  C        1.7372538     0.8347672    -0.0000984
  C       -2.4699820     0.3361590     0.0002330
  H       -0.1651650     2.0416990    -0.0000660
  H        0.7745000    -2.0647320    -0.0000170
  H        2.5420040     1.5875080    -0.0001330
  H       -3.4206380    -0.1946080     0.0003100
  H       -2.3886930     0.9604430    -0.8948830
  H       -2.3884390     0.9602630     0.8954520
units angstrom
no_reorient  #important for SAPT in psi4, default
symmetry c1  #important for SAPT in psi4, default
}

set PROPERTIES_ORIGIN ["COM"]
properties('MP2/aug-cc-pvtz', properties = ['dipole'])
--------------------------------------------------------------------------

    Molecular point group: c1
  Charge       = 0
  Multiplicity = 1
  Basis Set: AUG-CC-PVTZ
    Blend: AUG-CC-PVTZ
  Basis Set: (AUG-CC-PVTZ AUX)
    Blend: AUG-CC-PVTZ-JKFIT

    Orbital Energies [Eh]
    ---------------------

    Doubly Occupied:

       1A    -20.612604     2A    -15.628845     3A    -15.579375
       4A    -11.343318     5A    -11.300201     6A    -11.256479
       7A    -11.219132     8A     -1.440217     9A     -1.360164
      10A     -1.095516    11A     -1.048986    12A     -0.962292
      13A     -0.815007    14A     -0.799660    15A     -0.755576
      16A     -0.679686    17A     -0.649567    18A     -0.627375
      19A     -0.601691    20A     -0.596701    21A     -0.577442
      22A     -0.526906    23A     -0.507469    24A     -0.455130
      25A     -0.367113    26A     -0.328383

  @DF-RHF Final Energy:  -338.80048659986181

   => Energetics <=

    Nuclear Repulsion Energy =            296.1593105059361051
    One-Electron Energy =               -1047.6499240703078613
    Two-Electron Energy =                 412.6901269645099433
    Total Energy =                       -338.8004865998618129
  Basis Set: (AUG-CC-PVTZ AUX)
    Blend: AUG-CC-PVTZ-RI
    Molecular point group: c1

    Geometry (in Angstrom), charge = 0, multiplicity = 1:

       Center              X                  Y                   Z               Mass
    ------------   -----------------  -----------------  -----------------  -----------------
         O           -1.511449947835    -0.642098801081    -0.000004402052    15.994914619570
         N            0.785785052165    -1.018352801081    -0.000023402052    14.003074004430
         N            1.998573052165    -0.412442801081    -0.000080402052    14.003074004430
         C           -0.250764947835    -0.142235801081    -0.000024402052    12.000000000000
         C            0.299778052165     1.129602198919    -0.000055402052    12.000000000000
         C            1.686547852165     0.871044398919    -0.000091802052    12.000000000000
         C           -2.520687947835     0.372436198919     0.000239597948    12.000000000000
         H           -0.215870947835     2.077976198919    -0.000059402052     1.007825032230
         H            0.723794052165    -2.028454801081    -0.000010402052     1.007825032230
         H            2.491298052165     1.623785198919    -0.000126402052     1.007825032230
         H           -3.471343947835    -0.158330801081     0.000316597948     1.007825032230
         H           -2.439398947835     0.996720198919    -0.894876402052     1.007825032230
         H           -2.439144947835     0.996540198919     0.895458597948     1.007825032230

  Basis Set: AUG-CC-PVTZ
    Blend: AUG-CC-PVTZ
  Basis Set: (AUG-CC-PVTZ AUX)
    Blend: AUG-CC-PVTZ-JKFIT
	 Reference Energy          =    -338.8004865998618129 [Eh]
	 Singles Energy            =      -0.0000000000000000 [Eh]
	 Same-Spin Energy          =      -0.3527082039842251 [Eh]
	 Opposite-Spin Energy      =      -1.0822239835776335 [Eh]
	 Correlation Energy        =      -1.4349321875618586 [Eh]
	 Total Energy              =    -340.2354187874236686 [Eh]

	 ================> DF-SCS-MP2 Energies <==================
	-----------------------------------------------------------
	 SCS Same-Spin Scale       =       0.3333333333333333 [-]
	 SCS Opposite-Spin Scale   =       1.2000000000000000 [-]
	 SCS Same-Spin Energy      =      -0.1175694013280750 [Eh]
	 SCS Opposite-Spin Energy  =      -1.2986687802931602 [Eh]
	 SCS Correlation Energy    =      -1.4162381816212353 [Eh]
	 SCS Total Energy          =    -340.2167247814830375 [Eh]
	-----------------------------------------------------------

  Dipole Moment: [D]
     X:    -3.1242      Y:     0.6426      Z:     0.0003     Total:     3.1896

*** Psi4 exiting successfully. Buy a developer a beer!
