                               Psi4 1.3.2 release

  ==> Input File <==

--------------------------------------------------------------------------
#psi4
#
memory 32 gb

molecule  {
0 1
  O       -1.4607440    -0.6783760    -0.0000110
  N        0.8364910    -1.0546300    -0.0000300
  N        2.0492790    -0.4487200    -0.0000870
  C       -0.2151915    -0.1967367    -0.0000306
  C        0.3504840     1.0933250    -0.0000620
  C        1.7415550     0.8590090    -0.0000990
  C       -2.4699820     0.3361590     0.0002330
  H       -0.1651650     2.0416990    -0.0000660
  H        0.7745000    -2.0647320    -0.0000170
  H        2.5420040     1.5875080    -0.0001330
  H       -3.4206380    -0.1946080     0.0003100
  H       -2.3886930     0.9604430    -0.8948830
  H       -2.3884390     0.9602630     0.8954520
units angstrom
no_reorient  #important for SAPT in psi4, default
symmetry c1  #important for SAPT in psi4, default
}

set PROPERTIES_ORIGIN ["COM"]
properties('MP2/aug-cc-pvtz', properties = ['dipole'])
--------------------------------------------------------------------------

    Molecular point group: c1
  Charge       = 0
  Multiplicity = 1
  Basis Set: AUG-CC-PVTZ
    Blend: AUG-CC-PVTZ
  Basis Set: (AUG-CC-PVTZ AUX)
    Blend: AUG-CC-PVTZ-JKFIT

    Orbital Energies [Eh]
    ---------------------

    Doubly Occupied:

       1A    -20.615767     2A    -15.630564     3A    -15.578707
       4A    -11.345337     5A    -11.302720     6A    -11.256440
       7A    -11.220124     8A     -1.449372     9A     -1.355283
      10A     -1.092021    11A     -1.042752    12A     -0.965724
      13A     -0.817041    14A     -0.798760    15A     -0.758795
      16A     -0.683693    17A     -0.653374    18A     -0.624899
      19A     -0.598920    20A     -0.596726    21A     -0.579812
      22A     -0.527928    23A     -0.510656    24A     -0.452427
      25A     -0.365126    26A     -0.321162

  @DF-RHF Final Energy:  -338.79906613233925

   => Energetics <=

    Nuclear Repulsion Energy =            295.6705521721394234
    One-Electron Energy =               -1046.6509804353447635
    Two-Electron Energy =                 412.1813621308660913
    Total Energy =                       -338.7990661323392487
  Basis Set: (AUG-CC-PVTZ AUX)
    Blend: AUG-CC-PVTZ-RI
    Molecular point group: c1

    Geometry (in Angstrom), charge = 0, multiplicity = 1:

       Center              X                  Y                   Z               Mass
    ------------   -----------------  -----------------  -----------------  -----------------
         O           -1.510124315665    -0.642835350430    -0.000004377574    15.994914619570
         N            0.787110684335    -1.019089350430    -0.000023377574    14.003074004430
         N            1.999898684335    -0.413179350430    -0.000080377574    14.003074004430
         C           -0.264571815665    -0.161196050430    -0.000023977574    12.000000000000
         C            0.301103684335     1.128865649570    -0.000055377574    12.000000000000
         C            1.692174684335     0.894549649570    -0.000092377574    12.000000000000
         C           -2.519362315665     0.371699649570     0.000239622426    12.000000000000
         H           -0.214545315665     2.077239649570    -0.000059377574     1.007825032230
         H            0.725119684335    -2.029191350430    -0.000010377574     1.007825032230
         H            2.492623684335     1.623048649570    -0.000126377574     1.007825032230
         H           -3.470018315665    -0.159067350430     0.000316622426     1.007825032230
         H           -2.438073315665     0.995983649570    -0.894876377574     1.007825032230
         H           -2.437819315665     0.995803649570     0.895458622426     1.007825032230

  Basis Set: AUG-CC-PVTZ
    Blend: AUG-CC-PVTZ
  Basis Set: (AUG-CC-PVTZ AUX)
    Blend: AUG-CC-PVTZ-JKFIT
	 Reference Energy          =    -338.7990661323392487 [Eh]
	 Singles Energy            =      -0.0000000000000000 [Eh]
	 Same-Spin Energy          =      -0.3533024786352748 [Eh]
	 Opposite-Spin Energy      =      -1.0831039558428091 [Eh]
	 Correlation Energy        =      -1.4364064344780838 [Eh]
	 Total Energy              =    -340.2354725668173501 [Eh]

	 ================> DF-SCS-MP2 Energies <==================
	-----------------------------------------------------------
	 SCS Same-Spin Scale       =       0.3333333333333333 [-]
	 SCS Opposite-Spin Scale   =       1.2000000000000000 [-]
	 SCS Same-Spin Energy      =      -0.1177674928784249 [Eh]
	 SCS Opposite-Spin Energy  =      -1.2997247470113709 [Eh]
	 SCS Correlation Energy    =      -1.4174922398897958 [Eh]
	 SCS Total Energy          =    -340.2165583722290307 [Eh]
	-----------------------------------------------------------

  Dipole Moment: [D]
     X:    -3.2669      Y:     0.5860      Z:     0.0004     Total:     3.3190

*** Psi4 exiting successfully. Buy a developer a beer!
