                               Psi4 1.3.2 release

  ==> Input File <==

--------------------------------------------------------------------------
#psi4
#
memory 32 gb

molecule  {
0 1
  O       -1.4607440    -0.6783760    -0.0000110
  N        0.8364910    -1.0546300    -0.0000300
  N        2.0492790    -0.4487200    -0.0000870
  C       -0.1547153    -0.3130288    -0.0000563
  C        0.3504840     1.0933250    -0.0000620
  C        1.7415550     0.8590090    -0.0000990
  C       -2.4699820     0.3361590     0.0002330
  H       -0.1651650     2.0416990    -0.0000660
  H        0.7745000    -2.0647320    -0.0000170
  H        2.5420040     1.5875080    -0.0001330
  H       -3.4206380    -0.1946080     0.0003100
  H       -2.3886930     0.9604430    -0.8948830
  H       -2.3884390     0.9602630     0.8954520
units angstrom
no_reorient  #important for SAPT in psi4, default
symmetry c1  #important for SAPT in psi4, default
}

set PROPERTIES_ORIGIN ["COM"]
properties('MP2/aug-cc-pvtz', properties = ['dipole'])
--------------------------------------------------------------------------

    Molecular point group: c1
  Charge       = 0
  Multiplicity = 1
  Basis Set: AUG-CC-PVTZ
    Blend: AUG-CC-PVTZ
  Basis Set: (AUG-CC-PVTZ AUX)
    Blend: AUG-CC-PVTZ-JKFIT

    Orbital Energies [Eh]
    ---------------------

    Doubly Occupied:

       1A    -20.609989     2A    -15.643943     3A    -15.567957
       4A    -11.347008     5A    -11.302635     6A    -11.257832
       7A    -11.218009     8A     -1.443662     9A     -1.378897
      10A     -1.123109    11A     -1.027822    12A     -0.963404
      13A     -0.825906    14A     -0.811910    15A     -0.759088
      16A     -0.683346    17A     -0.648523    18A     -0.617928
      19A     -0.615406    20A     -0.607202    21A     -0.577233
      22A     -0.506349    23A     -0.504334    24A     -0.451135
      25A     -0.377531    26A     -0.311265

  @DF-RHF Final Energy:  -338.77897282813518

   => Energetics <=

    Nuclear Repulsion Energy =            296.0849142457000198
    One-Electron Energy =               -1047.3649226506161085
    Two-Electron Energy =                 412.5010355767809074
    Total Energy =                       -338.7789728281351813
  Basis Set: (AUG-CC-PVTZ AUX)
    Blend: AUG-CC-PVTZ-RI
    Molecular point group: c1

    Geometry (in Angstrom), charge = 0, multiplicity = 1:

       Center              X                  Y                   Z               Mass
    ------------   -----------------  -----------------  -----------------  -----------------
         O           -1.517525938392    -0.628602474517    -0.000001232176    15.994914619570
         N            0.779709061608    -1.004856474517    -0.000020232176    14.003074004430
         N            1.992497061608    -0.398946474517    -0.000077232176    14.003074004430
         C           -0.211497238392    -0.263255274517    -0.000046532176    12.000000000000
         C            0.293702061608     1.143098525483    -0.000052232176    12.000000000000
         C            1.684773061608     0.908782525483    -0.000089232176    12.000000000000
         C           -2.526763938392     0.385932525483     0.000242767824    12.000000000000
         H           -0.221946938392     2.091472525483    -0.000056232176     1.007825032230
         H            0.717718061608    -2.014958474517    -0.000007232176     1.007825032230
         H            2.485222061608     1.637281525483    -0.000123232176     1.007825032230
         H           -3.477419938392    -0.144834474517     0.000319767824     1.007825032230
         H           -2.445474938392     1.010216525483    -0.894873232176     1.007825032230
         H           -2.445220938392     1.010036525483     0.895461767824     1.007825032230

  Basis Set: AUG-CC-PVTZ
    Blend: AUG-CC-PVTZ
  Basis Set: (AUG-CC-PVTZ AUX)
    Blend: AUG-CC-PVTZ-JKFIT
	 Reference Energy          =    -338.7789728281351813 [Eh]
	 Singles Energy            =      -0.0000000000000000 [Eh]
	 Same-Spin Energy          =      -0.3519678715672458 [Eh]
	 Opposite-Spin Energy      =      -1.0800192209986799 [Eh]
	 Correlation Energy        =      -1.4319870925659257 [Eh]
	 Total Energy              =    -340.2109599207011001 [Eh]

	 ================> DF-SCS-MP2 Energies <==================
	-----------------------------------------------------------
	 SCS Same-Spin Scale       =       0.3333333333333333 [-]
	 SCS Opposite-Spin Scale   =       1.2000000000000000 [-]
	 SCS Same-Spin Energy      =      -0.1173226238557486 [Eh]
	 SCS Opposite-Spin Energy  =      -1.2960230651984157 [Eh]
	 SCS Correlation Energy    =      -1.4133456890541642 [Eh]
	 SCS Total Energy          =    -340.1923185171893351 [Eh]
	-----------------------------------------------------------

  Dipole Moment: [D]
     X:    -3.1626      Y:     0.2633      Z:     0.0004     Total:     3.1736

*** Psi4 exiting successfully. Buy a developer a beer!
