                               Psi4 1.3.2 release

  ==> Input File <==

--------------------------------------------------------------------------
#psi4
#
memory 32 gb

molecule  {
0 1
  O       -1.4607440    -0.6783760    -0.0000110
  N        0.8364910    -1.0546300    -0.0000300
  N        2.0492790    -0.4487200    -0.0000870
  C       -0.2300036    -0.2152218    -0.0000303
  C        0.3504840     1.0933250    -0.0000620
  C        1.7415550     0.8590090    -0.0000990
  C       -2.4699820     0.3361590     0.0002330
  H       -0.1651650     2.0416990    -0.0000660
  H        0.7745000    -2.0647320    -0.0000170
  H        2.5420040     1.5875080    -0.0001330
  H       -3.4206380    -0.1946080     0.0003100
  H       -2.3886930     0.9604430    -0.8948830
  H       -2.3884390     0.9602630     0.8954520
units angstrom
no_reorient  #important for SAPT in psi4, default
symmetry c1  #important for SAPT in psi4, default
}

set PROPERTIES_ORIGIN ["COM"]
properties('MP2/aug-cc-pvtz', properties = ['dipole'])
--------------------------------------------------------------------------

    Molecular point group: c1
  Charge       = 0
  Multiplicity = 1
  Basis Set: AUG-CC-PVTZ
    Blend: AUG-CC-PVTZ
  Basis Set: (AUG-CC-PVTZ AUX)
    Blend: AUG-CC-PVTZ-JKFIT

    Orbital Energies [Eh]
    ---------------------

    Doubly Occupied:

       1A    -20.619023     2A    -15.630633     3A    -15.576486
       4A    -11.347698     5A    -11.305323     6A    -11.255487
       7A    -11.219893     8A     -1.459372     9A     -1.354031
      10A     -1.092805    11A     -1.037371    12A     -0.969882
      13A     -0.816033    14A     -0.797741    15A     -0.762652
      16A     -0.688109    17A     -0.657279    18A     -0.624251
      19A     -0.598084    20A     -0.594961    21A     -0.579702
      22A     -0.527085    23A     -0.514568    24A     -0.450753
      25A     -0.363932    26A     -0.316494

  @DF-RHF Final Energy:  -338.79697611146224

   => Energetics <=

    Nuclear Repulsion Energy =            295.6445026667454385
    One-Electron Energy =               -1046.5636564168405584
    Two-Electron Energy =                 412.1221776386328770
    Total Energy =                       -338.7969761114622429
  Basis Set: (AUG-CC-PVTZ AUX)
    Blend: AUG-CC-PVTZ-RI
    Molecular point group: c1

    Geometry (in Angstrom), charge = 0, multiplicity = 1:

       Center              X                  Y                   Z               Mass
    ------------   -----------------  -----------------  -----------------  -----------------
         O           -1.508311477293    -0.640572977194    -0.000004414291    15.994914619570
         N            0.788923522707    -1.016826977194    -0.000023414291    14.003074004430
         N            2.001711522707    -0.410916977194    -0.000080414291    14.003074004430
         C           -0.277571077293    -0.177418777194    -0.000023714291    12.000000000000
         C            0.302916522707     1.131128022806    -0.000055414291    12.000000000000
         C            1.693987522707     0.896812022806    -0.000092414291    12.000000000000
         C           -2.517549477293     0.373962022806     0.000239585709    12.000000000000
         H           -0.212732477293     2.079502022806    -0.000059414291     1.007825032230
         H            0.726932522707    -2.026928977194    -0.000010414291     1.007825032230
         H            2.494436522707     1.625311022806    -0.000126414291     1.007825032230
         H           -3.468205477293    -0.156804977194     0.000316585709     1.007825032230
         H           -2.436260477293     0.998246022806    -0.894876414291     1.007825032230
         H           -2.436006477293     0.998066022806     0.895458585709     1.007825032230

  Basis Set: AUG-CC-PVTZ
    Blend: AUG-CC-PVTZ
  Basis Set: (AUG-CC-PVTZ AUX)
    Blend: AUG-CC-PVTZ-JKFIT
	 Reference Energy          =    -338.7969761114622429 [Eh]
	 Singles Energy            =      -0.0000000000000000 [Eh]
	 Same-Spin Energy          =      -0.3533664883267621 [Eh]
	 Opposite-Spin Energy      =      -1.0829206684174428 [Eh]
	 Correlation Energy        =      -1.4362871567442048 [Eh]
	 Total Energy              =    -340.2332632682064286 [Eh]

	 ================> DF-SCS-MP2 Energies <==================
	-----------------------------------------------------------
	 SCS Same-Spin Scale       =       0.3333333333333333 [-]
	 SCS Opposite-Spin Scale   =       1.2000000000000000 [-]
	 SCS Same-Spin Energy      =      -0.1177888294422540 [Eh]
	 SCS Opposite-Spin Energy  =      -1.2995048021009314 [Eh]
	 SCS Correlation Energy    =      -1.4172936315431854 [Eh]
	 SCS Total Energy          =    -340.2142697430054454 [Eh]
	-----------------------------------------------------------

  Dipole Moment: [D]
     X:    -3.4094      Y:     0.5245      Z:     0.0004     Total:     3.4495

*** Psi4 exiting successfully. Buy a developer a beer!
