                               Psi4 1.3.2 release

  ==> Input File <==

--------------------------------------------------------------------------
#psi4
#
memory 32 gb

molecule  {
0 1
  O       -1.4607440    -0.6783760    -0.0000110
  N        0.8364910    -1.0546300    -0.0000300
  N        2.0492790    -0.4487200    -0.0000870
  C       -0.2000590    -0.1785130    -0.0000310
  C        0.3902091     1.1850960    -0.0000642
  C        1.7415550     0.8590090    -0.0000990
  C       -2.4699820     0.3361590     0.0002330
  H       -0.1651650     2.0416990    -0.0000660
  H        0.7745000    -2.0647320    -0.0000170
  H        2.5420040     1.5875080    -0.0001330
  H       -3.4206380    -0.1946080     0.0003100
  H       -2.3886930     0.9604430    -0.8948830
  H       -2.3884390     0.9602630     0.8954520
units angstrom
no_reorient  #important for SAPT in psi4, default
symmetry c1  #important for SAPT in psi4, default
}

set PROPERTIES_ORIGIN ["COM"]
properties('MP2/aug-cc-pvtz', properties = ['dipole'])
--------------------------------------------------------------------------

    Molecular point group: c1
  Charge       = 0
  Multiplicity = 1
  Basis Set: AUG-CC-PVTZ
    Blend: AUG-CC-PVTZ
  Basis Set: (AUG-CC-PVTZ AUX)
    Blend: AUG-CC-PVTZ-JKFIT

    Orbital Energies [Eh]
    ---------------------

    Doubly Occupied:

       1A    -20.616807     2A    -15.637279     3A    -15.574515
       4A    -11.355863     5A    -11.302405     6A    -11.257026
       7A    -11.224802     8A     -1.442375     9A     -1.354664
      10A     -1.093568    11A     -1.037789    12A     -0.962401
      13A     -0.822716    14A     -0.801710    15A     -0.755419
      16A     -0.680271    17A     -0.655913    18A     -0.632446
      19A     -0.606533    20A     -0.598452    21A     -0.573059
      22A     -0.518781    23A     -0.508893    24A     -0.453954
      25A     -0.371180    26A     -0.314490

  @DF-RHF Final Energy:  -338.78560501663196

   => Energetics <=

    Nuclear Repulsion Energy =            294.1216800320326570
    One-Electron Energy =               -1043.5079437581061939
    Two-Electron Energy =                 410.6006587094416318
    Total Energy =                       -338.7856050166319619
  Basis Set: (AUG-CC-PVTZ AUX)
    Blend: AUG-CC-PVTZ-RI
    Molecular point group: c1

    Geometry (in Angstrom), charge = 0, multiplicity = 1:

       Center              X                  Y                   Z               Mass
    ------------   -----------------  -----------------  -----------------  -----------------
         O           -1.516838283456    -0.656297493741    -0.000004059362    15.994914619570
         N            0.780396716544    -1.032551493741    -0.000023059362    14.003074004430
         N            1.993184716544    -0.426641493741    -0.000080059362    14.003074004430
         C           -0.256153283456    -0.156434493741    -0.000024059362    12.000000000000
         C            0.334114816544     1.207174506259    -0.000057259362    12.000000000000
         C            1.685460716544     0.881087506259    -0.000092059362    12.000000000000
         C           -2.526076283456     0.358237506259     0.000239940638    12.000000000000
         H           -0.221259283456     2.063777506259    -0.000059059362     1.007825032230
         H            0.718405716544    -2.042653493741    -0.000010059362     1.007825032230
         H            2.485909716544     1.609586506259    -0.000126059362     1.007825032230
         H           -3.476732283456    -0.172529493741     0.000316940638     1.007825032230
         H           -2.444787283456     0.982521506259    -0.894876059362     1.007825032230
         H           -2.444533283456     0.982341506259     0.895458940638     1.007825032230

  Basis Set: AUG-CC-PVTZ
    Blend: AUG-CC-PVTZ
  Basis Set: (AUG-CC-PVTZ AUX)
    Blend: AUG-CC-PVTZ-JKFIT
	 Reference Energy          =    -338.7856050166319619 [Eh]
	 Singles Energy            =      -0.0000000000000000 [Eh]
	 Same-Spin Energy          =      -0.3538811949133325 [Eh]
	 Opposite-Spin Energy      =      -1.0847212006804321 [Eh]
	 Correlation Energy        =      -1.4386023955937646 [Eh]
	 Total Energy              =    -340.2242074122257236 [Eh]

	 ================> DF-SCS-MP2 Energies <==================
	-----------------------------------------------------------
	 SCS Same-Spin Scale       =       0.3333333333333333 [-]
	 SCS Opposite-Spin Scale   =       1.2000000000000000 [-]
	 SCS Same-Spin Energy      =      -0.1179603983044442 [Eh]
	 SCS Opposite-Spin Energy  =      -1.3016654408165185 [Eh]
	 SCS Correlation Energy    =      -1.4196258391209626 [Eh]
	 SCS Total Energy          =    -340.2052308557529159 [Eh]
	-----------------------------------------------------------

  Dipole Moment: [D]
     X:    -3.2429      Y:     0.5181      Z:     0.0003     Total:     3.2840

*** Psi4 exiting successfully. Buy a developer a beer!
