                               Psi4 1.4a3.dev225

  ==> Input File <==

--------------------------------------------------------------------------
#psi4
#
memory 32 gb

molecule  {
0 1
  O       -1.4607440    -0.6783760    -0.0000110
  N        0.8364910    -1.0546300    -0.0000300
  N        2.0492790    -0.4487200    -0.0000870
  C       -0.2000590    -0.1785130    -0.0000310
  C        0.3504840     1.0933250    -0.0000620
  C        1.7415550     0.8590090    -0.0000990
  C       -2.4699820     0.3361590     0.0002330
  H       -0.1556115     2.0241283    -0.0000659
  H        0.7745000    -2.0647320    -0.0000170
  H        2.5420040     1.5875080    -0.0001330
  H       -3.4206380    -0.1946080     0.0003100
  H       -2.3886930     0.9604430    -0.8948830
  H       -2.3884390     0.9602630     0.8954520
units angstrom
no_reorient  #important for SAPT in psi4, default
symmetry c1  #important for SAPT in psi4, default
}

set PROPERTIES_ORIGIN ["COM"]
properties('MP2/aug-cc-pvtz', properties = ['dipole'])
--------------------------------------------------------------------------

    Molecular point group: c1
  Charge       = 0
  Multiplicity = 1
  Basis Set: AUG-CC-PVTZ
    Blend: AUG-CC-PVTZ
  Basis Set: (AUG-CC-PVTZ AUX)
    Blend: AUG-CC-PVTZ-JKFIT

    Orbital Energies [Eh]
    ---------------------

    Doubly Occupied:

       1A    -20.612585     2A    -15.630318     3A    -15.580706
       4A    -11.342836     5A    -11.300267     6A    -11.257221
       7A    -11.217906     8A     -1.439962     9A     -1.356227
      10A     -1.091231    11A     -1.049019    12A     -0.961636
      13A     -0.818401    14A     -0.801432    15A     -0.755134
      16A     -0.679554    17A     -0.651288    18A     -0.626018
      19A     -0.600073    20A     -0.599787    21A     -0.580522
      22A     -0.527984    23A     -0.506732    24A     -0.453984
      25A     -0.366454    26A     -0.325622

  @DF-RHF Final Energy:  -338.79966990247544

   => Energetics <=

    Nuclear Repulsion Energy =            295.8076693820319747
    One-Electron Energy =               -1046.9488794456578944
    Two-Electron Energy =                 412.3415401611505331
    Total Energy =                       -338.7996699024754435
  Basis Set: (AUG-CC-PVTZ AUX)
    Blend: AUG-CC-PVTZ-RI
    Molecular point group: c1

    Geometry (in Angstrom), charge = 0, multiplicity = 1:

       Center              X                  Y                   Z               Mass
    ------------   -----------------  -----------------  -----------------  -----------------
         O           -1.512074566883    -0.644885123831    -0.000004329646    15.994914619570
         N            0.785160433117    -1.021139123831    -0.000023329646    14.003074004430
         N            1.997948433117    -0.415229123831    -0.000080329646    14.003074004430
         C           -0.251389566883    -0.145022123831    -0.000024329646    12.000000000000
         C            0.299153433117     1.126815876169    -0.000055329646    12.000000000000
         C            1.690224433117     0.892499876169    -0.000092329646    12.000000000000
         C           -2.521312566883     0.369649876169     0.000239670354    12.000000000000
         H           -0.206942066883     2.057619176169    -0.000059229646     1.007825032230
         H            0.723169433117    -2.031241123831    -0.000010329646     1.007825032230
         H            2.490673433117     1.620998876169    -0.000126329646     1.007825032230
         H           -3.471968566883    -0.161117123831     0.000316670354     1.007825032230
         H           -2.440023566883     0.993933876169    -0.894876329646     1.007825032230
         H           -2.439769566883     0.993753876169     0.895458670354     1.007825032230

  Basis Set: AUG-CC-PVTZ
    Blend: AUG-CC-PVTZ
  Basis Set: (AUG-CC-PVTZ AUX)
    Blend: AUG-CC-PVTZ-JKFIT
	 Reference Energy          =    -338.7996699024754435 [Eh]
	 Singles Energy            =      -0.0000000000000000 [Eh]
	 Same-Spin Energy          =      -0.3532076783488098 [Eh]
	 Opposite-Spin Energy      =      -1.0832260018171687 [Eh]
	 Correlation Energy        =      -1.4364336801659785 [Eh]
	 Total Energy              =    -340.2361035826414195 [Eh]

	 ================> DF-SCS-MP2 Energies <==================
	-----------------------------------------------------------
	 SCS Same-Spin Scale       =       0.3333333333333333 [-]
	 SCS Opposite-Spin Scale   =       1.2000000000000000 [-]
	 SCS Same-Spin Energy      =      -0.1177358927829366 [Eh]
	 SCS Opposite-Spin Energy  =      -1.2998712021806023 [Eh]
	 SCS Correlation Energy    =      -1.4176070949635389 [Eh]
	 SCS Total Energy          =    -340.2172769974390008 [Eh]
	-----------------------------------------------------------

  Dipole Moment: [D]
     X:    -3.1307      Y:     0.6463      Z:     0.0003     Total:     3.1967

*** Psi4 exiting successfully. Buy a developer a beer!
