                               Psi4 1.3.2 release

  ==> Input File <==

--------------------------------------------------------------------------
#psi4
#
memory 32 gb

molecule  {
0 1
  O       -1.4607440    -0.6783760    -0.0000110
  N        0.8364910    -1.0546300    -0.0000300
  N        2.0492790    -0.4487200    -0.0000870
  C       -0.2000590    -0.1785130    -0.0000310
  C        0.3595089     1.1417299    -0.0000630
  C        1.7415550     0.8590090    -0.0000990
  C       -2.4699820     0.3361590     0.0002330
  H       -0.1651650     2.0416990    -0.0000660
  H        0.7745000    -2.0647320    -0.0000170
  H        2.5420040     1.5875080    -0.0001330
  H       -3.4206380    -0.1946080     0.0003100
  H       -2.3886930     0.9604430    -0.8948830
  H       -2.3884390     0.9602630     0.8954520
units angstrom
no_reorient  #important for SAPT in psi4, default
symmetry c1  #important for SAPT in psi4, default
}

set PROPERTIES_ORIGIN ["COM"]
properties('MP2/aug-cc-pvtz', properties = ['dipole'])
--------------------------------------------------------------------------

    Molecular point group: c1
  Charge       = 0
  Multiplicity = 1
  Basis Set: AUG-CC-PVTZ
    Blend: AUG-CC-PVTZ
  Basis Set: (AUG-CC-PVTZ AUX)
    Blend: AUG-CC-PVTZ-JKFIT

    Orbital Energies [Eh]
    ---------------------

    Doubly Occupied:

       1A    -20.614326     2A    -15.633696     3A    -15.578560
       4A    -11.350013     5A    -11.301105     6A    -11.258399
       7A    -11.222547     8A     -1.440942     9A     -1.355267
      10A     -1.092010    11A     -1.042161    12A     -0.961858
      13A     -0.818932    14A     -0.802364    15A     -0.754952
      16A     -0.679664    17A     -0.652723    18A     -0.626950
      19A     -0.604907    20A     -0.598909    21A     -0.576965
      22A     -0.524475    23A     -0.507565    24A     -0.454170
      25A     -0.367493    26A     -0.320640

  @DF-RHF Final Energy:  -338.79521114623708

   => Energetics <=

    Nuclear Repulsion Energy =            294.8203325400468202
    One-Electron Energy =               -1044.9479008910268476
    Two-Electron Energy =                 411.3323572047429479
    Total Energy =                       -338.7952111462370794
  Basis Set: (AUG-CC-PVTZ AUX)
    Blend: AUG-CC-PVTZ-RI
    Molecular point group: c1

    Geometry (in Angstrom), charge = 0, multiplicity = 1:

       Center              X                  Y                   Z               Mass
    ------------   -----------------  -----------------  -----------------  -----------------
         O           -1.513080916127    -0.650989959350    -0.000004206229    15.994914619570
         N            0.784154083873    -1.027243959350    -0.000023206229    14.003074004430
         N            1.996942083873    -0.421333959350    -0.000080206229    14.003074004430
         C           -0.252395916127    -0.151126959350    -0.000024206229    12.000000000000
         C            0.307171983873     1.169115940650    -0.000056206229    12.000000000000
         C            1.689218083873     0.886395040650    -0.000092206229    12.000000000000
         C           -2.522318916127     0.363545040650     0.000239793771    12.000000000000
         H           -0.217501916127     2.069085040650    -0.000059206229     1.007825032230
         H            0.722163083873    -2.037345959350    -0.000010206229     1.007825032230
         H            2.489667083873     1.614894040650    -0.000126206229     1.007825032230
         H           -3.472974916127    -0.167221959350     0.000316793771     1.007825032230
         H           -2.441029916127     0.987829040650    -0.894876206229     1.007825032230
         H           -2.440775916127     0.987649040650     0.895458793771     1.007825032230

  Basis Set: AUG-CC-PVTZ
    Blend: AUG-CC-PVTZ
  Basis Set: (AUG-CC-PVTZ AUX)
    Blend: AUG-CC-PVTZ-JKFIT
	 Reference Energy          =    -338.7952111462370794 [Eh]
	 Singles Energy            =      -0.0000000000000000 [Eh]
	 Same-Spin Energy          =      -0.3534521167027654 [Eh]
	 Opposite-Spin Energy      =      -1.0839002046901225 [Eh]
	 Correlation Energy        =      -1.4373523213928880 [Eh]
	 Total Energy              =    -340.2325634676299728 [Eh]

	 ================> DF-SCS-MP2 Energies <==================
	-----------------------------------------------------------
	 SCS Same-Spin Scale       =       0.3333333333333333 [-]
	 SCS Opposite-Spin Scale   =       1.2000000000000000 [-]
	 SCS Same-Spin Energy      =      -0.1178173722342551 [Eh]
	 SCS Opposite-Spin Energy  =      -1.3006802456281470 [Eh]
	 SCS Correlation Energy    =      -1.4184976178624020 [Eh]
	 SCS Total Energy          =    -340.2137087640994650 [Eh]
	-----------------------------------------------------------

  Dipole Moment: [D]
     X:    -3.1732      Y:     0.5787      Z:     0.0003     Total:     3.2255

*** Psi4 exiting successfully. Buy a developer a beer!
