                               Psi4 1.3.2 release

  ==> Input File <==

--------------------------------------------------------------------------
#psi4
#
memory 32 gb

molecule  {
0 1
  O       -1.4607440    -0.6783760    -0.0000110
  N        0.8472503    -1.0757038    -0.0000300
  N        2.0492790    -0.4487200    -0.0000870
  C       -0.2000590    -0.1785130    -0.0000310
  C        0.3504840     1.0933250    -0.0000620
  C        1.7415550     0.8590090    -0.0000990
  C       -2.4699820     0.3361590     0.0002330
  H       -0.1651650     2.0416990    -0.0000660
  H        0.7745000    -2.0647320    -0.0000170
  H        2.5420040     1.5875080    -0.0001330
  H       -3.4206380    -0.1946080     0.0003100
  H       -2.3886930     0.9604430    -0.8948830
  H       -2.3884390     0.9602630     0.8954520
units angstrom
no_reorient  #important for SAPT in psi4, default
symmetry c1  #important for SAPT in psi4, default
}

set PROPERTIES_ORIGIN ["COM"]
properties('MP2/aug-cc-pvtz', properties = ['dipole'])
--------------------------------------------------------------------------

    Molecular point group: c1
  Charge       = 0
  Multiplicity = 1
  Basis Set: AUG-CC-PVTZ
    Blend: AUG-CC-PVTZ
  Basis Set: (AUG-CC-PVTZ AUX)
    Blend: AUG-CC-PVTZ-JKFIT

    Orbital Energies [Eh]
    ---------------------

    Doubly Occupied:

       1A    -20.612626     2A    -15.628920     3A    -15.581648
       4A    -11.345007     5A    -11.300228     6A    -11.257788
       7A    -11.221822     8A     -1.438992     9A     -1.352982
      10A     -1.090126    11A     -1.048280    12A     -0.961586
      13A     -0.822608    14A     -0.796656    15A     -0.754217
      16A     -0.678673    17A     -0.652248    18A     -0.627344
      19A     -0.598738    20A     -0.597315    21A     -0.581298
      22A     -0.527960    23A     -0.506824    24A     -0.451372
      25A     -0.367658    26A     -0.324355

  @DF-RHF Final Energy:  -338.79837009808699

   => Energetics <=

    Nuclear Repulsion Energy =            295.2155169878216157
    One-Electron Energy =               -1045.7732332341527126
    Two-Electron Energy =                 411.7593461482441057
    Total Energy =                       -338.7983700980869912
  Basis Set: (AUG-CC-PVTZ AUX)
    Blend: AUG-CC-PVTZ-RI
    Molecular point group: c1

    Geometry (in Angstrom), charge = 0, multiplicity = 1:

       Center              X                  Y                   Z               Mass
    ------------   -----------------  -----------------  -----------------  -----------------
         O           -1.513512994993    -0.642056001836    -0.000004328618    15.994914619570
         N            0.794481305007    -1.039383801836    -0.000023328618    14.003074004430
         N            1.996510005007    -0.412400001836    -0.000080328618    14.003074004430
         C           -0.252827994993    -0.142193001836    -0.000024328618    12.000000000000
         C            0.297715005007     1.129644998164    -0.000055328618    12.000000000000
         C            1.688786005007     0.895328998164    -0.000092328618    12.000000000000
         C           -2.522750994993     0.372478998164     0.000239671382    12.000000000000
         H           -0.217933994993     2.078018998164    -0.000059328618     1.007825032230
         H            0.721731005007    -2.028412001836    -0.000010328618     1.007825032230
         H            2.489235005007     1.623827998164    -0.000126328618     1.007825032230
         H           -3.473406994993    -0.158288001836     0.000316671382     1.007825032230
         H           -2.441461994993     0.996762998164    -0.894876328618     1.007825032230
         H           -2.441207994993     0.996582998164     0.895458671382     1.007825032230

  Basis Set: AUG-CC-PVTZ
    Blend: AUG-CC-PVTZ
  Basis Set: (AUG-CC-PVTZ AUX)
    Blend: AUG-CC-PVTZ-JKFIT
	 Reference Energy          =    -338.7983700980869912 [Eh]
	 Singles Energy            =      -0.0000000000000000 [Eh]
	 Same-Spin Energy          =      -0.3531881768169409 [Eh]
	 Opposite-Spin Energy      =      -1.0835507837719085 [Eh]
	 Correlation Energy        =      -1.4367389605888494 [Eh]
	 Total Energy              =    -340.2351090586758460 [Eh]

	 ================> DF-SCS-MP2 Energies <==================
	-----------------------------------------------------------
	 SCS Same-Spin Scale       =       0.3333333333333333 [-]
	 SCS Opposite-Spin Scale   =       1.2000000000000000 [-]
	 SCS Same-Spin Energy      =      -0.1177293922723136 [Eh]
	 SCS Opposite-Spin Energy  =      -1.3002609405262902 [Eh]
	 SCS Correlation Energy    =      -1.4179903327986039 [Eh]
	 SCS Total Energy          =    -340.2163604308855724 [Eh]
	-----------------------------------------------------------

  Dipole Moment: [D]
     X:    -3.1391      Y:     0.6959      Z:     0.0003     Total:     3.2154

*** Psi4 exiting successfully. Buy a developer a beer!
