                               Psi4 1.3.2 release

  ==> Input File <==

--------------------------------------------------------------------------
#psi4
#
memory 32 gb

molecule  {
0 1
  O       -1.4607440    -0.6783760    -0.0000110
  N        0.8364910    -1.0546300    -0.0000300
  N        2.0492790    -0.4487200    -0.0000870
  C       -0.2000590    -0.1785130    -0.0000310
  C        0.3504840     1.0933250    -0.0000620
  C        1.7094419     0.7148861    -0.0000951
  C       -2.4699820     0.3361590     0.0002330
  H       -0.1651650     2.0416990    -0.0000660
  H        0.7745000    -2.0647320    -0.0000170
  H        2.5420040     1.5875080    -0.0001330
  H       -3.4206380    -0.1946080     0.0003100
  H       -2.3886930     0.9604430    -0.8948830
  H       -2.3884390     0.9602630     0.8954520
units angstrom
no_reorient  #important for SAPT in psi4, default
symmetry c1  #important for SAPT in psi4, default
}

set PROPERTIES_ORIGIN ["COM"]
properties('MP2/aug-cc-pvtz', properties = ['dipole'])
--------------------------------------------------------------------------

    Molecular point group: c1
  Charge       = 0
  Multiplicity = 1
  Basis Set: AUG-CC-PVTZ
    Blend: AUG-CC-PVTZ
  Basis Set: (AUG-CC-PVTZ AUX)
    Blend: AUG-CC-PVTZ-JKFIT

    Orbital Energies [Eh]
    ---------------------

    Doubly Occupied:

       1A    -20.613143     2A    -15.622649     3A    -15.571861
       4A    -11.345840     5A    -11.300615     6A    -11.253174
       7A    -11.215980     8A     -1.443185     9A     -1.385380
      10A     -1.119440    11A     -1.051971    12A     -0.966500
      13A     -0.810556    14A     -0.790306    15A     -0.760353
      16A     -0.681469    17A     -0.649141    18A     -0.636756
      19A     -0.614385    20A     -0.596623    21A     -0.560163
      22A     -0.525869    23A     -0.512234    24A     -0.447829
      25A     -0.375242    26A     -0.338931

  @DF-RHF Final Energy:  -338.77540444538323

   => Energetics <=

    Nuclear Repulsion Energy =            298.6162486620940513
    One-Electron Energy =               -1052.4041160547083109
    Two-Electron Energy =                 415.0124629472310858
    Total Energy =                       -338.7754044453832307
  Basis Set: (AUG-CC-PVTZ AUX)
    Blend: AUG-CC-PVTZ-RI
    Molecular point group: c1

    Geometry (in Angstrom), charge = 0, multiplicity = 1:

       Center              X                  Y                   Z               Mass
    ------------   -----------------  -----------------  -----------------  -----------------
         O           -1.508046076707    -0.627426670983    -0.000004805935    15.994914619570
         N            0.789188923293    -1.003680670983    -0.000023805935    14.003074004430
         N            2.001976923293    -0.397770670983    -0.000080805935    14.003074004430
         C           -0.247361076707    -0.127563670983    -0.000024805935    12.000000000000
         C            0.303181923293     1.144274329017    -0.000055805935    12.000000000000
         C            1.662139823293     0.765835429017    -0.000088905935    12.000000000000
         C           -2.517284076707     0.387108329017     0.000239194065    12.000000000000
         H           -0.212467076707     2.092648329017    -0.000059805935     1.007825032230
         H            0.727197923293    -2.013782670983    -0.000010805935     1.007825032230
         H            2.494701923293     1.638457329017    -0.000126805935     1.007825032230
         H           -3.467940076707    -0.143658670983     0.000316194065     1.007825032230
         H           -2.435995076707     1.011392329017    -0.894876805935     1.007825032230
         H           -2.435741076707     1.011212329017     0.895458194065     1.007825032230

  Basis Set: AUG-CC-PVTZ
    Blend: AUG-CC-PVTZ
  Basis Set: (AUG-CC-PVTZ AUX)
    Blend: AUG-CC-PVTZ-JKFIT
	 Reference Energy          =    -338.7754044453832307 [Eh]
	 Singles Energy            =      -0.0000000000000000 [Eh]
	 Same-Spin Energy          =      -0.3506921683841330 [Eh]
	 Opposite-Spin Energy      =      -1.0782015770485773 [Eh]
	 Correlation Energy        =      -1.4288937454327104 [Eh]
	 Total Energy              =    -340.2042981908159618 [Eh]

	 ================> DF-SCS-MP2 Energies <==================
	-----------------------------------------------------------
	 SCS Same-Spin Scale       =       0.3333333333333333 [-]
	 SCS Opposite-Spin Scale   =       1.2000000000000000 [-]
	 SCS Same-Spin Energy      =      -0.1168973894613777 [Eh]
	 SCS Opposite-Spin Energy  =      -1.2938418924582928 [Eh]
	 SCS Correlation Energy    =      -1.4107392819196705 [Eh]
	 SCS Total Energy          =    -340.1861437273029196 [Eh]
	-----------------------------------------------------------

  Dipole Moment: [D]
     X:    -3.1506      Y:     0.5529      Z:     0.0003     Total:     3.1987

*** Psi4 exiting successfully. Buy a developer a beer!
