                               Psi4 1.3.2 release

  ==> Input File <==

--------------------------------------------------------------------------
#psi4
#
memory 32 gb

molecule  {
0 1
  O       -1.4607440    -0.6783760    -0.0000110
  N        0.8364910    -1.0546300    -0.0000300
  N        1.9598220    -0.4934128    -0.0000828
  C       -0.2000590    -0.1785130    -0.0000310
  C        0.3504840     1.0933250    -0.0000620
  C        1.7415550     0.8590090    -0.0000990
  C       -2.4699820     0.3361590     0.0002330
  H       -0.1651650     2.0416990    -0.0000660
  H        0.7745000    -2.0647320    -0.0000170
  H        2.5420040     1.5875080    -0.0001330
  H       -3.4206380    -0.1946080     0.0003100
  H       -2.3886930     0.9604430    -0.8948830
  H       -2.3884390     0.9602630     0.8954520
units angstrom
no_reorient  #important for SAPT in psi4, default
symmetry c1  #important for SAPT in psi4, default
}

set PROPERTIES_ORIGIN ["COM"]
properties('MP2/aug-cc-pvtz', properties = ['dipole'])
--------------------------------------------------------------------------

    Molecular point group: c1
  Charge       = 0
  Multiplicity = 1
  Basis Set: AUG-CC-PVTZ
    Blend: AUG-CC-PVTZ
  Basis Set: (AUG-CC-PVTZ AUX)
    Blend: AUG-CC-PVTZ-JKFIT

    Orbital Energies [Eh]
    ---------------------

    Doubly Occupied:

       1A    -20.606232     2A    -15.640281     3A    -15.576132
       4A    -11.331193     5A    -11.297417     6A    -11.252097
       7A    -11.221926     8A     -1.442172     9A     -1.393612
      10A     -1.081278    11A     -1.058897    12A     -0.955566
      13A     -0.825710    14A     -0.813890    15A     -0.752085
      16A     -0.679208    17A     -0.652000    18A     -0.632119
      19A     -0.615825    20A     -0.596949    21A     -0.584682
      22A     -0.524611    23A     -0.506603    24A     -0.443313
      25A     -0.367771    26A     -0.312446

  @DF-RHF Final Energy:  -338.79070510549116

   => Energetics <=

    Nuclear Repulsion Energy =            297.8142459967549485
    One-Electron Energy =               -1050.8818688987132646
    Two-Electron Energy =                 414.2769177964671599
    Total Energy =                       -338.7907051054911562
  Basis Set: (AUG-CC-PVTZ AUX)
    Blend: AUG-CC-PVTZ-RI
    Molecular point group: c1

    Geometry (in Angstrom), charge = 0, multiplicity = 1:

       Center              X                  Y                   Z               Mass
    ------------   -----------------  -----------------  -----------------  -----------------
         O           -1.499200249380    -0.638682770748    -0.000004928456    15.994914619570
         N            0.798034750620    -1.014936770748    -0.000023928456    14.003074004430
         N            1.921365750620    -0.453719570748    -0.000076728456    14.003074004430
         C           -0.238515249380    -0.138819770748    -0.000024928456    12.000000000000
         C            0.312027750620     1.133018229252    -0.000055928456    12.000000000000
         C            1.703098750620     0.898702229252    -0.000092928456    12.000000000000
         C           -2.508438249380     0.375852229252     0.000239071544    12.000000000000
         H           -0.203621249380     2.081392229252    -0.000059928456     1.007825032230
         H            0.736043750620    -2.025038770748    -0.000010928456     1.007825032230
         H            2.503547750620     1.627201229252    -0.000126928456     1.007825032230
         H           -3.459094249380    -0.154914770748     0.000316071544     1.007825032230
         H           -2.427149249380     1.000136229252    -0.894876928456     1.007825032230
         H           -2.426895249380     0.999956229252     0.895458071544     1.007825032230

  Basis Set: AUG-CC-PVTZ
    Blend: AUG-CC-PVTZ
  Basis Set: (AUG-CC-PVTZ AUX)
    Blend: AUG-CC-PVTZ-JKFIT
	 Reference Energy          =    -338.7907051054911562 [Eh]
	 Singles Energy            =      -0.0000000000000000 [Eh]
	 Same-Spin Energy          =      -0.3544503818261645 [Eh]
	 Opposite-Spin Energy      =      -1.0828670807806788 [Eh]
	 Correlation Energy        =      -1.4373174626068432 [Eh]
	 Total Energy              =    -340.2280225680980266 [Eh]

	 ================> DF-SCS-MP2 Energies <==================
	-----------------------------------------------------------
	 SCS Same-Spin Scale       =       0.3333333333333333 [-]
	 SCS Opposite-Spin Scale   =       1.2000000000000000 [-]
	 SCS Same-Spin Energy      =      -0.1181501272753882 [Eh]
	 SCS Opposite-Spin Energy  =      -1.2994404969368145 [Eh]
	 SCS Correlation Energy    =      -1.4175906242122027 [Eh]
	 SCS Total Energy          =    -340.2082957297033659 [Eh]
	-----------------------------------------------------------

  Dipole Moment: [D]
     X:    -2.9774      Y:     0.5467      Z:     0.0003     Total:     3.0272

*** Psi4 exiting successfully. Buy a developer a beer!
