                               Psi4 1.3.2 release

  ==> Input File <==

--------------------------------------------------------------------------
#psi4
#
memory 32 gb

molecule  {
0 1
  O       -1.4607440    -0.6783760    -0.0000110
  N        0.8364910    -1.0546300    -0.0000300
  N        2.0492790    -0.4487200    -0.0000870
  C       -0.2000590    -0.1785130    -0.0000310
  C        0.3375275     0.9957180    -0.0000602
  C        1.7415550     0.8590090    -0.0000990
  C       -2.4699820     0.3361590     0.0002330
  H       -0.1651650     2.0416990    -0.0000660
  H        0.7745000    -2.0647320    -0.0000170
  H        2.5420040     1.5875080    -0.0001330
  H       -3.4206380    -0.1946080     0.0003100
  H       -2.3886930     0.9604430    -0.8948830
  H       -2.3884390     0.9602630     0.8954520
units angstrom
no_reorient  #important for SAPT in psi4, default
symmetry c1  #important for SAPT in psi4, default
}

set PROPERTIES_ORIGIN ["COM"]
properties('MP2/aug-cc-pvtz', properties = ['dipole'])
--------------------------------------------------------------------------

    Molecular point group: c1
  Charge       = 0
  Multiplicity = 1
  Basis Set: AUG-CC-PVTZ
    Blend: AUG-CC-PVTZ
  Basis Set: (AUG-CC-PVTZ AUX)
    Blend: AUG-CC-PVTZ-JKFIT

    Orbital Energies [Eh]
    ---------------------

    Doubly Occupied:

       1A    -20.609262     2A    -15.623956     3A    -15.585825
       4A    -11.327283     5A    -11.298265     6A    -11.256354
       7A    -11.215805     8A     -1.438439     9A     -1.359767
      10A     -1.090503    11A     -1.063989    12A     -0.960809
      13A     -0.821734    14A     -0.791427    15A     -0.755727
      16A     -0.679886    17A     -0.652456    18A     -0.625439
      19A     -0.602711    20A     -0.592041    21A     -0.568378
      22A     -0.530386    23A     -0.505163    24A     -0.452943
      25A     -0.366638    26A     -0.336316

  @DF-RHF Final Energy:  -338.78646830126064

   => Energetics <=

    Nuclear Repulsion Energy =            297.6087470665563615
    One-Electron Energy =               -1050.5674234962878018
    Two-Electron Energy =                 414.1722081284707997
    Total Energy =                       -338.7864683012606406
  Basis Set: (AUG-CC-PVTZ AUX)
    Blend: AUG-CC-PVTZ-RI
    Molecular point group: c1

    Geometry (in Angstrom), charge = 0, multiplicity = 1:

       Center              X                  Y                   Z               Mass
    ------------   -----------------  -----------------  -----------------  -----------------
         O           -1.510390634168    -0.633119706302    -0.000004548918    15.994914619570
         N            0.786844365832    -1.009373706302    -0.000023548918    14.003074004430
         N            1.999632365832    -0.403463706302    -0.000080548918    14.003074004430
         C           -0.249705634168    -0.133256706302    -0.000024548918    12.000000000000
         C            0.287880865832     1.040974293698    -0.000053748918    12.000000000000
         C            1.691908365832     0.904265293698    -0.000092548918    12.000000000000
         C           -2.519628634168     0.381415293698     0.000239451082    12.000000000000
         H           -0.214811634168     2.086955293698    -0.000059548918     1.007825032230
         H            0.724853365832    -2.019475706302    -0.000010548918     1.007825032230
         H            2.492357365832     1.632764293698    -0.000126548918     1.007825032230
         H           -3.470284634168    -0.149351706302     0.000316451082     1.007825032230
         H           -2.438339634168     1.005699293698    -0.894876548918     1.007825032230
         H           -2.438085634168     1.005519293698     0.895458451082     1.007825032230

  Basis Set: AUG-CC-PVTZ
    Blend: AUG-CC-PVTZ
  Basis Set: (AUG-CC-PVTZ AUX)
    Blend: AUG-CC-PVTZ-JKFIT
	 Reference Energy          =    -338.7864683012606406 [Eh]
	 Singles Energy            =      -0.0000000000000000 [Eh]
	 Same-Spin Energy          =      -0.3530119486439238 [Eh]
	 Opposite-Spin Energy      =      -1.0828797631540494 [Eh]
	 Correlation Energy        =      -1.4358917117979733 [Eh]
	 Total Energy              =    -340.2223600130586192 [Eh]

	 ================> DF-SCS-MP2 Energies <==================
	-----------------------------------------------------------
	 SCS Same-Spin Scale       =       0.3333333333333333 [-]
	 SCS Opposite-Spin Scale   =       1.2000000000000000 [-]
	 SCS Same-Spin Energy      =      -0.1176706495479746 [Eh]
	 SCS Opposite-Spin Energy  =      -1.2994557157848592 [Eh]
	 SCS Correlation Energy    =      -1.4171263653328339 [Eh]
	 SCS Total Energy          =    -340.2035946665934603 [Eh]
	-----------------------------------------------------------

  Dipole Moment: [D]
     X:    -3.0222      Y:     0.7738      Z:     0.0003     Total:     3.1197

*** Psi4 exiting successfully. Buy a developer a beer!
