                               Psi4 1.3.2 release

  ==> Input File <==

--------------------------------------------------------------------------
#psi4
#
memory 32 gb

molecule  {
0 1
  O       -1.4607440    -0.6783760    -0.0000110
  N        0.7392335    -1.1581795    -0.0000267
  N        2.0492790    -0.4487200    -0.0000870
  C       -0.2000590    -0.1785130    -0.0000310
  C        0.3504840     1.0933250    -0.0000620
  C        1.7415550     0.8590090    -0.0000990
  C       -2.4699820     0.3361590     0.0002330
  H       -0.1651650     2.0416990    -0.0000660
  H        0.7745000    -2.0647320    -0.0000170
  H        2.5420040     1.5875080    -0.0001330
  H       -3.4206380    -0.1946080     0.0003100
  H       -2.3886930     0.9604430    -0.8948830
  H       -2.3884390     0.9602630     0.8954520
units angstrom
no_reorient  #important for SAPT in psi4, default
symmetry c1  #important for SAPT in psi4, default
}

set PROPERTIES_ORIGIN ["COM"]
properties('MP2/aug-cc-pvtz', properties = ['dipole'])
--------------------------------------------------------------------------

    Molecular point group: c1
  Charge       = 0
  Multiplicity = 1
  Basis Set: AUG-CC-PVTZ
    Blend: AUG-CC-PVTZ
  Basis Set: (AUG-CC-PVTZ AUX)
    Blend: AUG-CC-PVTZ-JKFIT

    Orbital Energies [Eh]
    ---------------------

    Doubly Occupied:

       1A    -20.611189     2A    -15.614121     3A    -15.584769
       4A    -11.355835     5A    -11.298497     6A    -11.270879
       7A    -11.222969     8A     -1.440487     9A     -1.314952
      10A     -1.111335    11A     -1.037951    12A     -0.962449
      13A     -0.844236    14A     -0.789432    15A     -0.753940
      16A     -0.677979    17A     -0.653155    18A     -0.621469
      19A     -0.609101    20A     -0.583344    21A     -0.574960
      22A     -0.529198    23A     -0.499845    24A     -0.442422
      25A     -0.379935    26A     -0.326769

  @DF-RHF Final Energy:  -338.77169785117246

   => Energetics <=

    Nuclear Repulsion Energy =            293.8777244245311522
    One-Electron Energy =               -1043.0764079410084832
    Two-Electron Energy =                 410.4269856653048691
    Total Energy =                       -338.7716978511724619
  Basis Set: (AUG-CC-PVTZ AUX)
    Blend: AUG-CC-PVTZ-RI
    Molecular point group: c1

    Geometry (in Angstrom), charge = 0, multiplicity = 1:

       Center              X                  Y                   Z               Mass
    ------------   -----------------  -----------------  -----------------  -----------------
         O           -1.498086193362    -0.630276942807    -0.000004799919    15.994914619570
         N            0.701891306638    -1.110080442807    -0.000020499919    14.003074004430
         N            2.011936806638    -0.400620942807    -0.000080799919    14.003074004430
         C           -0.237401193362    -0.130413942807    -0.000024799919    12.000000000000
         C            0.313141806638     1.141424057193    -0.000055799919    12.000000000000
         C            1.704212806638     0.907108057193    -0.000092799919    12.000000000000
         C           -2.507324193362     0.384258057193     0.000239200081    12.000000000000
         H           -0.202507193362     2.089798057193    -0.000059799919     1.007825032230
         H            0.737157806638    -2.016632942807    -0.000010799919     1.007825032230
         H            2.504661806638     1.635607057193    -0.000126799919     1.007825032230
         H           -3.457980193362    -0.146508942807     0.000316200081     1.007825032230
         H           -2.426035193362     1.008542057193    -0.894876799919     1.007825032230
         H           -2.425781193362     1.008362057193     0.895458200081     1.007825032230

  Basis Set: AUG-CC-PVTZ
    Blend: AUG-CC-PVTZ
  Basis Set: (AUG-CC-PVTZ AUX)
    Blend: AUG-CC-PVTZ-JKFIT
	 Reference Energy          =    -338.7716978511724619 [Eh]
	 Singles Energy            =      -0.0000000000000000 [Eh]
	 Same-Spin Energy          =      -0.3519938170312072 [Eh]
	 Opposite-Spin Energy      =      -1.0851021716348654 [Eh]
	 Correlation Energy        =      -1.4370959886660728 [Eh]
	 Total Energy              =    -340.2087938398385631 [Eh]

	 ================> DF-SCS-MP2 Energies <==================
	-----------------------------------------------------------
	 SCS Same-Spin Scale       =       0.3333333333333333 [-]
	 SCS Opposite-Spin Scale   =       1.2000000000000000 [-]
	 SCS Same-Spin Energy      =      -0.1173312723437357 [Eh]
	 SCS Opposite-Spin Energy  =      -1.3021226059618385 [Eh]
	 SCS Correlation Energy    =      -1.4194538783055743 [Eh]
	 SCS Total Energy          =    -340.1911517294780083 [Eh]
	-----------------------------------------------------------

  Dipole Moment: [D]
     X:    -3.0032      Y:     0.9934      Z:     0.0003     Total:     3.1633

*** Psi4 exiting successfully. Buy a developer a beer!
