                               Psi4 1.4a3.dev225

  ==> Input File <==

--------------------------------------------------------------------------
#psi4
#
memory 32 gb

molecule  {
0 1
  O       -1.4607440    -0.6783760    -0.0000110
  N        0.8364910    -1.0546300    -0.0000300
  N        2.0492790    -0.4487200    -0.0000870
  C       -0.2000590    -0.1785130    -0.0000310
  C        0.3504840     1.0933250    -0.0000620
  C        1.7415550     0.8590090    -0.0000990
  C       -2.4699820     0.3361590     0.0002330
  H       -0.1651650     2.0416990    -0.0000660
  H        0.7745000    -2.0647320    -0.0000170
  H        2.5567953     1.6009697    -0.0001336
  H       -3.4206380    -0.1946080     0.0003100
  H       -2.3886930     0.9604430    -0.8948830
  H       -2.3884390     0.9602630     0.8954520
units angstrom
no_reorient  #important for SAPT in psi4, default
symmetry c1  #important for SAPT in psi4, default
}

set PROPERTIES_ORIGIN ["COM"]
properties('MP2/aug-cc-pvtz', properties = ['dipole'])
--------------------------------------------------------------------------

    Molecular point group: c1
  Charge       = 0
  Multiplicity = 1
  Basis Set: AUG-CC-PVTZ
    Blend: AUG-CC-PVTZ
  Basis Set: (AUG-CC-PVTZ AUX)
    Blend: AUG-CC-PVTZ-JKFIT

    Orbital Energies [Eh]
    ---------------------

    Doubly Occupied:

       1A    -20.612670     2A    -15.630533     3A    -15.580940
       4A    -11.343108     5A    -11.300246     6A    -11.259638
       7A    -11.220379     8A     -1.440056     9A     -1.356463
      10A     -1.091009    11A     -1.048627    12A     -0.961522
      13A     -0.816435    14A     -0.799183    15A     -0.754728
      16A     -0.679620    17A     -0.649928    18A     -0.625403
      19A     -0.599970    20A     -0.597205    21A     -0.578065
      22A     -0.527380    23A     -0.506797    24A     -0.453899
      25A     -0.366639    26A     -0.325816

  @DF-RHF Final Energy:  -338.79892365560573

   => Energetics <=

    Nuclear Repulsion Energy =            295.6090857120008764
    One-Electron Energy =               -1046.5635013477522079
    Two-Electron Energy =                 412.1554919801455412
    Total Energy =                       -338.7989236556057335
  Basis Set: (AUG-CC-PVTZ AUX)
    Blend: AUG-CC-PVTZ-RI
    Molecular point group: c1

    Geometry (in Angstrom), charge = 0, multiplicity = 1:

       Center              X                  Y                   Z               Mass
    ------------   -----------------  -----------------  -----------------  -----------------
         O           -1.512128405669    -0.645204102550    -0.000004322451    15.994914619570
         N            0.785106594331    -1.021458102550    -0.000023322451    14.003074004430
         N            1.997894594331    -0.415548102550    -0.000080322451    14.003074004430
         C           -0.251443405669    -0.145341102550    -0.000024322451    12.000000000000
         C            0.299099594331     1.126496897450    -0.000055322451    12.000000000000
         C            1.690170594331     0.892180897450    -0.000092322451    12.000000000000
         C           -2.521366405669     0.369330897450     0.000239677549    12.000000000000
         H           -0.216549405669     2.074870897450    -0.000059322451     1.007825032230
         H            0.723115594331    -2.031560102550    -0.000010322451     1.007825032230
         H            2.505410894331     1.634141597450    -0.000126922451     1.007825032230
         H           -3.472022405669    -0.161436102550     0.000316677549     1.007825032230
         H           -2.440077405669     0.993614897450    -0.894876322451     1.007825032230
         H           -2.439823405669     0.993434897450     0.895458677549     1.007825032230

  Basis Set: AUG-CC-PVTZ
    Blend: AUG-CC-PVTZ
  Basis Set: (AUG-CC-PVTZ AUX)
    Blend: AUG-CC-PVTZ-JKFIT
	 Reference Energy          =    -338.7989236556057335 [Eh]
	 Singles Energy            =      -0.0000000000000000 [Eh]
	 Same-Spin Energy          =      -0.3532743434563993 [Eh]
	 Opposite-Spin Energy      =      -1.0834480538049676 [Eh]
	 Correlation Energy        =      -1.4367223972613670 [Eh]
	 Total Energy              =    -340.2356460528670823 [Eh]

	 ================> DF-SCS-MP2 Energies <==================
	-----------------------------------------------------------
	 SCS Same-Spin Scale       =       0.3333333333333333 [-]
	 SCS Opposite-Spin Scale   =       1.2000000000000000 [-]
	 SCS Same-Spin Energy      =      -0.1177581144854664 [Eh]
	 SCS Opposite-Spin Energy  =      -1.3001376645659610 [Eh]
	 SCS Correlation Energy    =      -1.4178957790514275 [Eh]
	 SCS Total Energy          =    -340.2168194346571681 [Eh]
	-----------------------------------------------------------

  Dipole Moment: [D]
     X:    -3.1311      Y:     0.6445      Z:     0.0003     Total:     3.1968

*** Psi4 exiting successfully. Buy a developer a beer!
