                               Psi4 1.3.2 release

  ==> Input File <==

--------------------------------------------------------------------------
#psi4
#
memory 32 gb

molecule  {
0 1
  O       -1.4607440    -0.6783760    -0.0000110
  N        0.8364910    -1.0546300    -0.0000300
  N        1.9793004    -0.3252684    -0.0000853
  C       -0.2000590    -0.1785130    -0.0000310
  C        0.3504840     1.0933250    -0.0000620
  C        1.7415550     0.8590090    -0.0000990
  C       -2.4699820     0.3361590     0.0002330
  H       -0.1651650     2.0416990    -0.0000660
  H        0.7745000    -2.0647320    -0.0000170
  H        2.5420040     1.5875080    -0.0001330
  H       -3.4206380    -0.1946080     0.0003100
  H       -2.3886930     0.9604430    -0.8948830
  H       -2.3884390     0.9602630     0.8954520
units angstrom
no_reorient  #important for SAPT in psi4, default
symmetry c1  #important for SAPT in psi4, default
}

set PROPERTIES_ORIGIN ["COM"]
properties('MP2/aug-cc-pvtz', properties = ['dipole'])
--------------------------------------------------------------------------

    Molecular point group: c1
  Charge       = 0
  Multiplicity = 1
  Basis Set: AUG-CC-PVTZ
    Blend: AUG-CC-PVTZ
  Basis Set: (AUG-CC-PVTZ AUX)
    Blend: AUG-CC-PVTZ-JKFIT

    Orbital Energies [Eh]
    ---------------------

    Doubly Occupied:

       1A    -20.609834     2A    -15.625453     3A    -15.562729
       4A    -11.338923     5A    -11.296995     6A    -11.238409
       7A    -11.209150     8A     -1.438867     9A     -1.375025
      10A     -1.129084    11A     -1.034827    12A     -0.962104
      13A     -0.818104    14A     -0.800344    15A     -0.754564
      16A     -0.677770    17A     -0.654588    18A     -0.633124
      19A     -0.609009    20A     -0.607195    21A     -0.583116
      22A     -0.526246    23A     -0.508452    24A     -0.427674
      25A     -0.380999    26A     -0.327597

  @DF-RHF Final Energy:  -338.78851138560373

   => Energetics <=

    Nuclear Repulsion Energy =            298.9046770034977953
    One-Electron Energy =               -1053.1260130109274087
    Two-Electron Energy =                 415.4328246218258869
    Total Energy =                       -338.7885113856037265
  Basis Set: (AUG-CC-PVTZ AUX)
    Blend: AUG-CC-PVTZ-RI
    Molecular point group: c1

    Geometry (in Angstrom), charge = 0, multiplicity = 1:

       Center              X                  Y                   Z               Mass
    ------------   -----------------  -----------------  -----------------  -----------------
         O           -1.501982126022    -0.662696908403    -0.000004571410    15.994914619570
         N            0.795252873978    -1.038950908403    -0.000023571410    14.003074004430
         N            1.938062273978    -0.309589308403    -0.000078871410    14.003074004430
         C           -0.241297126022    -0.162833908403    -0.000024571410    12.000000000000
         C            0.309245873978     1.109004091597    -0.000055571410    12.000000000000
         C            1.700316873978     0.874688091597    -0.000092571410    12.000000000000
         C           -2.511220126022     0.351838091597     0.000239428590    12.000000000000
         H           -0.206403126022     2.057378091597    -0.000059571410     1.007825032230
         H            0.733261873978    -2.049052908403    -0.000010571410     1.007825032230
         H            2.500765873978     1.603187091597    -0.000126571410     1.007825032230
         H           -3.461876126022    -0.178928908403     0.000316428590     1.007825032230
         H           -2.429931126022     0.976122091597    -0.894876571410     1.007825032230
         H           -2.429677126022     0.975942091597     0.895458428590     1.007825032230

  Basis Set: AUG-CC-PVTZ
    Blend: AUG-CC-PVTZ
  Basis Set: (AUG-CC-PVTZ AUX)
    Blend: AUG-CC-PVTZ-JKFIT
	 Reference Energy          =    -338.7885113856037265 [Eh]
	 Singles Energy            =      -0.0000000000000000 [Eh]
	 Same-Spin Energy          =      -0.3500228999792915 [Eh]
	 Opposite-Spin Energy      =      -1.0765441800163953 [Eh]
	 Correlation Energy        =      -1.4265670799956869 [Eh]
	 Total Energy              =    -340.2150784655993903 [Eh]

	 ================> DF-SCS-MP2 Energies <==================
	-----------------------------------------------------------
	 SCS Same-Spin Scale       =       0.3333333333333333 [-]
	 SCS Opposite-Spin Scale   =       1.2000000000000000 [-]
	 SCS Same-Spin Energy      =      -0.1166742999930972 [Eh]
	 SCS Opposite-Spin Energy  =      -1.2918530160196744 [Eh]
	 SCS Correlation Energy    =      -1.4085273160127716 [Eh]
	 SCS Total Energy          =    -340.1970387016165205 [Eh]
	-----------------------------------------------------------

  Dipole Moment: [D]
     X:    -2.7866      Y:     0.4681      Z:     0.0003     Total:     2.8257

*** Psi4 exiting successfully. Buy a developer a beer!
