                               Psi4 1.4a3.dev225

  ==> Input File <==

--------------------------------------------------------------------------
#psi4
#
memory 32 gb

molecule  {
0 1
  O       -1.4607440    -0.6783760    -0.0000110
  N        0.8364910    -1.0546300    -0.0000300
  N        2.0492790    -0.4487200    -0.0000870
  C       -0.2000590    -0.1785130    -0.0000310
  C        0.3504840     1.0933250    -0.0000620
  C        1.7369739     0.8784773    -0.0000992
  C       -2.4699820     0.3361590     0.0002330
  H       -0.1651650     2.0416990    -0.0000660
  H        0.7745000    -2.0647320    -0.0000170
  H        2.5420040     1.5875080    -0.0001330
  H       -3.4206380    -0.1946080     0.0003100
  H       -2.3886930     0.9604430    -0.8948830
  H       -2.3884390     0.9602630     0.8954520
units angstrom
no_reorient  #important for SAPT in psi4, default
symmetry c1  #important for SAPT in psi4, default
}

set PROPERTIES_ORIGIN ["COM"]
properties('MP2/aug-cc-pvtz', properties = ['dipole'])
--------------------------------------------------------------------------

    Molecular point group: c1
  Charge       = 0
  Multiplicity = 1
  Basis Set: AUG-CC-PVTZ
    Blend: AUG-CC-PVTZ
  Basis Set: (AUG-CC-PVTZ AUX)
    Blend: AUG-CC-PVTZ-JKFIT

    Orbital Energies [Eh]
    ---------------------

    Doubly Occupied:

       1A    -20.612638     2A    -15.631924     3A    -15.581434
       4A    -11.342858     5A    -11.300330     6A    -11.257825
       7A    -11.220796     8A     -1.439934     9A     -1.353711
      10A     -1.087729    11A     -1.049403    12A     -0.960919
      13A     -0.820962    14A     -0.799623    15A     -0.754732
      16A     -0.679608    17A     -0.650656    18A     -0.624017
      19A     -0.600321    20A     -0.598715    21A     -0.580109
      22A     -0.528142    23A     -0.506225    24A     -0.453421
      25A     -0.367246    26A     -0.322953

  @DF-RHF Final Energy:  -338.79734441286456

   => Energetics <=

    Nuclear Repulsion Energy =            295.4663289340546726
    One-Electron Energy =               -1046.2748834264684774
    Two-Electron Energy =                 412.0112100795492438
    Total Energy =                       -338.7973444128645610
  Basis Set: (AUG-CC-PVTZ AUX)
    Blend: AUG-CC-PVTZ-RI
    Molecular point group: c1

    Geometry (in Angstrom), charge = 0, multiplicity = 1:

       Center              X                  Y                   Z               Mass
    ------------   -----------------  -----------------  -----------------  -----------------
         O           -1.511415691149    -0.647448437294    -0.000004304140    15.994914619570
         N            0.785819308851    -1.023702437294    -0.000023304140    14.003074004430
         N            1.998607308851    -0.417792437294    -0.000080304140    14.003074004430
         C           -0.250730691149    -0.147585437294    -0.000024304140    12.000000000000
         C            0.299812308851     1.124252562706    -0.000055304140    12.000000000000
         C            1.686302208851     0.909404862706    -0.000092504140    12.000000000000
         C           -2.520653691149     0.367086562706     0.000239695860    12.000000000000
         H           -0.215836691149     2.072626562706    -0.000059304140     1.007825032230
         H            0.723828308851    -2.033804437294    -0.000010304140     1.007825032230
         H            2.491332308851     1.618435562706    -0.000126304140     1.007825032230
         H           -3.471309691149    -0.163680437294     0.000316695860     1.007825032230
         H           -2.439364691149     0.991370562706    -0.894876304140     1.007825032230
         H           -2.439110691149     0.991190562706     0.895458695860     1.007825032230

  Basis Set: AUG-CC-PVTZ
    Blend: AUG-CC-PVTZ
  Basis Set: (AUG-CC-PVTZ AUX)
    Blend: AUG-CC-PVTZ-JKFIT
	 Reference Energy          =    -338.7973444128645610 [Eh]
	 Singles Energy            =      -0.0000000000000000 [Eh]
	 Same-Spin Energy          =      -0.3538237483580051 [Eh]
	 Opposite-Spin Energy      =      -1.0844070504228678 [Eh]
	 Correlation Energy        =      -1.4382307987808729 [Eh]
	 Total Energy              =    -340.2355752116454255 [Eh]

	 ================> DF-SCS-MP2 Energies <==================
	-----------------------------------------------------------
	 SCS Same-Spin Scale       =       0.3333333333333333 [-]
	 SCS Opposite-Spin Scale   =       1.2000000000000000 [-]
	 SCS Same-Spin Energy      =      -0.1179412494526683 [Eh]
	 SCS Opposite-Spin Energy  =      -1.3012884605074413 [Eh]
	 SCS Correlation Energy    =      -1.4192297099601097 [Eh]
	 SCS Total Energy          =    -340.2165741228246816 [Eh]
	-----------------------------------------------------------

  Dipole Moment: [D]
     X:    -3.1467      Y:     0.6472      Z:     0.0003     Total:     3.2125

*** Psi4 exiting successfully. Buy a developer a beer!
