                               Psi4 1.3.2 release

  ==> Input File <==

--------------------------------------------------------------------------
#psi4
#
memory 32 gb

molecule  {
0 1
  O       -1.4607440    -0.6783760    -0.0000110
  N        0.8364910    -1.0546300    -0.0000300
  N        2.0492790    -0.4487200    -0.0000870
  C       -0.2592151    -0.0494738    -0.0000055
  C        0.3504840     1.0933250    -0.0000620
  C        1.7415550     0.8590090    -0.0000990
  C       -2.4699820     0.3361590     0.0002330
  H       -0.1651650     2.0416990    -0.0000660
  H        0.7745000    -2.0647320    -0.0000170
  H        2.5420040     1.5875080    -0.0001330
  H       -3.4206380    -0.1946080     0.0003100
  H       -2.3886930     0.9604430    -0.8948830
  H       -2.3884390     0.9602630     0.8954520
units angstrom
no_reorient  #important for SAPT in psi4, default
symmetry c1  #important for SAPT in psi4, default
}

set PROPERTIES_ORIGIN ["COM"]
properties('MP2/aug-cc-pvtz', properties = ['dipole'])
--------------------------------------------------------------------------

    Molecular point group: c1
  Charge       = 0
  Multiplicity = 1
  Basis Set: AUG-CC-PVTZ
    Blend: AUG-CC-PVTZ
  Basis Set: (AUG-CC-PVTZ AUX)
    Blend: AUG-CC-PVTZ-JKFIT

    Orbital Energies [Eh]
    ---------------------

    Doubly Occupied:

       1A    -20.617705     2A    -15.614533     3A    -15.592560
       4A    -11.339942     5A    -11.300104     6A    -11.255122
       7A    -11.221845     8A     -1.442187     9A     -1.337934
      10A     -1.075267    11A     -1.061324    12A     -0.962007
      13A     -0.819057    14A     -0.782646    15A     -0.750112
      16A     -0.681489    17A     -0.655983    18A     -0.637790
      19A     -0.587011    20A     -0.583444    21A     -0.566898
      22A     -0.542661    23A     -0.508515    24A     -0.453599
      25A     -0.374538    26A     -0.325121

  @DF-RHF Final Energy:  -338.77075852433171

   => Energetics <=

    Nuclear Repulsion Energy =            295.3534425108245500
    One-Electron Energy =               -1046.0696100127386217
    Two-Electron Energy =                 411.9454089775823036
    Total Energy =                       -338.7707585243317112
  Basis Set: (AUG-CC-PVTZ AUX)
    Blend: AUG-CC-PVTZ-RI
    Molecular point group: c1

    Geometry (in Angstrom), charge = 0, multiplicity = 1:

       Center              X                  Y                   Z               Mass
    ------------   -----------------  -----------------  -----------------  -----------------
         O           -1.504736310495    -0.660858712140    -0.000007449538    15.994914619570
         N            0.792498689505    -1.037112712140    -0.000026449538    14.003074004430
         N            2.005286689505    -0.431202712140    -0.000083449538    14.003074004430
         C           -0.303207410495    -0.031956512140    -0.000001949538    12.000000000000
         C            0.306491689505     1.110842287860    -0.000058449538    12.000000000000
         C            1.697562689505     0.876526287860    -0.000095449538    12.000000000000
         C           -2.513974310495     0.353676287860     0.000236550462    12.000000000000
         H           -0.209157310495     2.059216287860    -0.000062449538     1.007825032230
         H            0.730507689505    -2.047214712140    -0.000013449538     1.007825032230
         H            2.498011689505     1.605025287860    -0.000129449538     1.007825032230
         H           -3.464630310495    -0.177090712140     0.000313550462     1.007825032230
         H           -2.432685310495     0.977960287860    -0.894879449538     1.007825032230
         H           -2.432431310495     0.977780287860     0.895455550462     1.007825032230

  Basis Set: AUG-CC-PVTZ
    Blend: AUG-CC-PVTZ
  Basis Set: (AUG-CC-PVTZ AUX)
    Blend: AUG-CC-PVTZ-JKFIT
	 Reference Energy          =    -338.7707585243317112 [Eh]
	 Singles Energy            =      -0.0000000000000000 [Eh]
	 Same-Spin Energy          =      -0.3544048003457342 [Eh]
	 Opposite-Spin Energy      =      -1.0875009607914450 [Eh]
	 Correlation Energy        =      -1.4419057611371793 [Eh]
	 Total Energy              =    -340.2126642854689180 [Eh]

	 ================> DF-SCS-MP2 Energies <==================
	-----------------------------------------------------------
	 SCS Same-Spin Scale       =       0.3333333333333333 [-]
	 SCS Opposite-Spin Scale   =       1.2000000000000000 [-]
	 SCS Same-Spin Energy      =      -0.1181349334485781 [Eh]
	 SCS Opposite-Spin Energy  =      -1.3050011529497338 [Eh]
	 SCS Correlation Energy    =      -1.4231360863983120 [Eh]
	 SCS Total Energy          =    -340.1938946107300126 [Eh]
	-----------------------------------------------------------

  Dipole Moment: [D]
     X:    -3.2649      Y:     1.0054      Z:     0.0003     Total:     3.4162

*** Psi4 exiting successfully. Buy a developer a beer!
