                               Psi4 1.3.2 release

  ==> Input File <==

--------------------------------------------------------------------------
#psi4
#
memory 32 gb

molecule  {
0 1
  O       -1.4607440    -0.6783760    -0.0000110
  N        0.8364910    -1.0546300    -0.0000300
  N        2.1387360    -0.4040272    -0.0000912
  C       -0.2000590    -0.1785130    -0.0000310
  C        0.3504840     1.0933250    -0.0000620
  C        1.7415550     0.8590090    -0.0000990
  C       -2.4699820     0.3361590     0.0002330
  H       -0.1651650     2.0416990    -0.0000660
  H        0.7745000    -2.0647320    -0.0000170
  H        2.5420040     1.5875080    -0.0001330
  H       -3.4206380    -0.1946080     0.0003100
  H       -2.3886930     0.9604430    -0.8948830
  H       -2.3884390     0.9602630     0.8954520
units angstrom
no_reorient  #important for SAPT in psi4, default
symmetry c1  #important for SAPT in psi4, default
}

set PROPERTIES_ORIGIN ["COM"]
properties('MP2/aug-cc-pvtz', properties = ['dipole'])
--------------------------------------------------------------------------

    Molecular point group: c1
  Charge       = 0
  Multiplicity = 1
  Basis Set: AUG-CC-PVTZ
    Blend: AUG-CC-PVTZ
  Basis Set: (AUG-CC-PVTZ AUX)
    Blend: AUG-CC-PVTZ-JKFIT

    Orbital Energies [Eh]
    ---------------------

    Doubly Occupied:

       1A    -20.617433     2A    -15.621007     3A    -15.588305
       4A    -11.351932     5A    -11.302246     6A    -11.262599
       7A    -11.219227     8A     -1.442120     9A     -1.325949
      10A     -1.102596    11A     -1.039664    12A     -0.966166
      13A     -0.814293    14A     -0.786591    15A     -0.756039
      16A     -0.680648    17A     -0.650763    18A     -0.621600
      19A     -0.596212    20A     -0.588433    21A     -0.570191
      22A     -0.529524    23A     -0.506228    24A     -0.463449
      25A     -0.371320    26A     -0.331920

  @DF-RHF Final Energy:  -338.79099019748890

   => Energetics <=

    Nuclear Repulsion Energy =            293.7644702938665660
    One-Electron Energy =               -1042.8980146456965485
    Two-Electron Energy =                 410.3425541543410873
    Total Energy =                       -338.7909901974888953
  Basis Set: (AUG-CC-PVTZ AUX)
    Blend: AUG-CC-PVTZ-RI
    Molecular point group: c1

    Geometry (in Angstrom), charge = 0, multiplicity = 1:

       Center              X                  Y                   Z               Mass
    ------------   -----------------  -----------------  -----------------  -----------------
         O           -1.524752485579    -0.651448691604    -0.000003728780    15.994914619570
         N            0.772482514421    -1.027702691604    -0.000022728780    14.003074004430
         N            2.074727514421    -0.377099891604    -0.000083928780    14.003074004430
         C           -0.264067485579    -0.151585691604    -0.000023728780    12.000000000000
         C            0.286475514421     1.120252308396    -0.000054728780    12.000000000000
         C            1.677546514421     0.885936308396    -0.000091728780    12.000000000000
         C           -2.533990485579     0.363086308396     0.000240271220    12.000000000000
         H           -0.229173485579     2.068626308396    -0.000058728780     1.007825032230
         H            0.710491514421    -2.037804691604    -0.000009728780     1.007825032230
         H            2.477995514421     1.614435308396    -0.000125728780     1.007825032230
         H           -3.484646485579    -0.167680691604     0.000317271220     1.007825032230
         H           -2.452701485579     0.987370308396    -0.894875728780     1.007825032230
         H           -2.452447485579     0.987190308396     0.895459271220     1.007825032230

  Basis Set: AUG-CC-PVTZ
    Blend: AUG-CC-PVTZ
  Basis Set: (AUG-CC-PVTZ AUX)
    Blend: AUG-CC-PVTZ-JKFIT
	 Reference Energy          =    -338.7909901974888953 [Eh]
	 Singles Energy            =      -0.0000000000000000 [Eh]
	 Same-Spin Energy          =      -0.3523343790993972 [Eh]
	 Opposite-Spin Energy      =      -1.0843708974613624 [Eh]
	 Correlation Energy        =      -1.4367052765607595 [Eh]
	 Total Energy              =    -340.2276954740496535 [Eh]

	 ================> DF-SCS-MP2 Energies <==================
	-----------------------------------------------------------
	 SCS Same-Spin Scale       =       0.3333333333333333 [-]
	 SCS Opposite-Spin Scale   =       1.2000000000000000 [-]
	 SCS Same-Spin Energy      =      -0.1174447930331324 [Eh]
	 SCS Opposite-Spin Energy  =      -1.3012450769536348 [Eh]
	 SCS Correlation Energy    =      -1.4186898699867672 [Eh]
	 SCS Total Energy          =    -340.2096800674756878 [Eh]
	-----------------------------------------------------------

  Dipole Moment: [D]
     X:    -3.2261      Y:     0.7385      Z:     0.0003     Total:     3.3095

*** Psi4 exiting successfully. Buy a developer a beer!
