                               Psi4 1.3.2 release

  ==> Input File <==

--------------------------------------------------------------------------
#psi4
#
memory 32 gb

molecule  {
0 1
  O       -1.4607440    -0.6783760    -0.0000110
  N        0.8364910    -1.0546300    -0.0000300
  N        2.0492790    -0.4487200    -0.0000870
  C       -0.2000590    -0.1785130    -0.0000310
  C        0.3504840     1.0933250    -0.0000620
  C        1.5443333     0.8922296    -0.0000938
  C       -2.4699820     0.3361590     0.0002330
  H       -0.1651650     2.0416990    -0.0000660
  H        0.7745000    -2.0647320    -0.0000170
  H        2.5420040     1.5875080    -0.0001330
  H       -3.4206380    -0.1946080     0.0003100
  H       -2.3886930     0.9604430    -0.8948830
  H       -2.3884390     0.9602630     0.8954520
units angstrom
no_reorient  #important for SAPT in psi4, default
symmetry c1  #important for SAPT in psi4, default
}

set PROPERTIES_ORIGIN ["COM"]
properties('MP2/aug-cc-pvtz', properties = ['dipole'])
--------------------------------------------------------------------------

    Molecular point group: c1
  Charge       = 0
  Multiplicity = 1
  Basis Set: AUG-CC-PVTZ
    Blend: AUG-CC-PVTZ
  Basis Set: (AUG-CC-PVTZ AUX)
    Blend: AUG-CC-PVTZ-JKFIT

    Orbital Energies [Eh]
    ---------------------

    Doubly Occupied:

       1A    -20.614807     2A    -15.639213     3A    -15.568352
       4A    -11.346896     5A    -11.304130     6A    -11.248767
       7A    -11.210192     8A     -1.443596     9A     -1.356398
      10A     -1.109988    11A     -1.057328    12A     -0.960514
      13A     -0.840128    14A     -0.788685    15A     -0.751985
      16A     -0.684184    17A     -0.652518    18A     -0.637950
      19A     -0.610444    20A     -0.604352    21A     -0.548276
      22A     -0.508282    23A     -0.496117    24A     -0.461128
      25A     -0.403070    26A     -0.304535

  @DF-RHF Final Energy:  -338.72643394617097

   => Energetics <=

    Nuclear Repulsion Energy =            298.2484527878831955
    One-Electron Energy =               -1051.6461020043223016
    Two-Electron Energy =                 414.6712152702680783
    Total Energy =                       -338.7264339461709710
  Basis Set: (AUG-CC-PVTZ AUX)
    Blend: AUG-CC-PVTZ-RI
    Molecular point group: c1

    Geometry (in Angstrom), charge = 0, multiplicity = 1:

       Center              X                  Y                   Z               Mass
    ------------   -----------------  -----------------  -----------------  -----------------
         O           -1.487838597300    -0.649131567785    -0.000004965041    15.994914619570
         N            0.809396402700    -1.025385567785    -0.000023965041    14.003074004430
         N            2.022184402700    -0.419475567785    -0.000080965041    14.003074004430
         C           -0.227153597300    -0.149268567785    -0.000024965041    12.000000000000
         C            0.323389402700     1.122569432215    -0.000055965041    12.000000000000
         C            1.517238702700     0.921474032215    -0.000087765041    12.000000000000
         C           -2.497076597300     0.365403432215     0.000239034959    12.000000000000
         H           -0.192259597300     2.070943432215    -0.000059965041     1.007825032230
         H            0.747405402700    -2.035487567785    -0.000010965041     1.007825032230
         H            2.514909402700     1.616752432215    -0.000126965041     1.007825032230
         H           -3.447732597300    -0.165363567785     0.000316034959     1.007825032230
         H           -2.415787597300     0.989687432215    -0.894876965041     1.007825032230
         H           -2.415533597300     0.989507432215     0.895458034959     1.007825032230

  Basis Set: AUG-CC-PVTZ
    Blend: AUG-CC-PVTZ
  Basis Set: (AUG-CC-PVTZ AUX)
    Blend: AUG-CC-PVTZ-JKFIT
	 Reference Energy          =    -338.7264339461709710 [Eh]
	 Singles Energy            =      -0.0000000000000000 [Eh]
	 Same-Spin Energy          =      -0.3576924020085697 [Eh]
	 Opposite-Spin Energy      =      -1.0909097780242107 [Eh]
	 Correlation Energy        =      -1.4486021800327804 [Eh]
	 Total Energy              =    -340.1750361262037359 [Eh]

	 ================> DF-SCS-MP2 Energies <==================
	-----------------------------------------------------------
	 SCS Same-Spin Scale       =       0.3333333333333333 [-]
	 SCS Opposite-Spin Scale   =       1.2000000000000000 [-]
	 SCS Same-Spin Energy      =      -0.1192308006695232 [Eh]
	 SCS Opposite-Spin Energy  =      -1.3090917336290528 [Eh]
	 SCS Correlation Energy    =      -1.4283225342985761 [Eh]
	 SCS Total Energy          =    -340.1547564804695298 [Eh]
	-----------------------------------------------------------

  Dipole Moment: [D]
     X:    -3.4652      Y:     0.6075      Z:     0.0004     Total:     3.5180

*** Psi4 exiting successfully. Buy a developer a beer!
