                               Psi4 1.3.2 release

  ==> Input File <==

--------------------------------------------------------------------------
#psi4
#
memory 32 gb

molecule  {
0 1
  O       -1.4692758    -0.6562979    -0.0000114
  N        0.8364910    -1.0546300    -0.0000300
  N        2.0492790    -0.4487200    -0.0000870
  C       -0.2000590    -0.1785130    -0.0000310
  C        0.3504840     1.0933250    -0.0000620
  C        1.7415550     0.8590090    -0.0000990
  C       -2.4699820     0.3361590     0.0002330
  H       -0.1651650     2.0416990    -0.0000660
  H        0.7745000    -2.0647320    -0.0000170
  H        2.5420040     1.5875080    -0.0001330
  H       -3.4206380    -0.1946080     0.0003100
  H       -2.3886930     0.9604430    -0.8948830
  H       -2.3884390     0.9602630     0.8954520
units angstrom
no_reorient  #important for SAPT in psi4, default
symmetry c1  #important for SAPT in psi4, default
}

set PROPERTIES_ORIGIN ["COM"]
properties('MP2/aug-cc-pvtz', properties = ['dipole'])
--------------------------------------------------------------------------

    Molecular point group: c1
  Charge       = 0
  Multiplicity = 1
  Basis Set: AUG-CC-PVTZ
    Blend: AUG-CC-PVTZ
  Basis Set: (AUG-CC-PVTZ AUX)
    Blend: AUG-CC-PVTZ-JKFIT

    Orbital Energies [Eh]
    ---------------------

    Doubly Occupied:

       1A    -20.611752     2A    -15.631812     3A    -15.581487
       4A    -11.343916     5A    -11.297853     6A    -11.257808
       7A    -11.220128     8A     -1.444403     9A     -1.358102
      10A     -1.092563    11A     -1.049853    12A     -0.961524
      13A     -0.818810    14A     -0.800344    15A     -0.757617
      16A     -0.682614    17A     -0.653706    18A     -0.626466
      19A     -0.600524    20A     -0.599649    21A     -0.580480
      22A     -0.524269    23A     -0.504084    24A     -0.454840
      25A     -0.367032    26A     -0.326210

  @DF-RHF Final Energy:  -338.80015290798372

   => Energetics <=

    Nuclear Repulsion Energy =            295.9909398486234977
    One-Electron Energy =               -1047.2864968686369593
    Two-Electron Energy =                 412.4954041120297461
    Total Energy =                       -338.8001529079837155
  Basis Set: (AUG-CC-PVTZ AUX)
    Blend: AUG-CC-PVTZ-RI
    Molecular point group: c1

    Geometry (in Angstrom), charge = 0, multiplicity = 1:

       Center              X                  Y                   Z               Mass
    ------------   -----------------  -----------------  -----------------  -----------------
         O           -1.519116345160    -0.626589308704    -0.000004663365    15.994914619570
         N            0.786650454840    -1.024921408704    -0.000023263365    14.003074004430
         N            1.999438454840    -0.419011408704    -0.000080263365    14.003074004430
         C           -0.249899545160    -0.148804408704    -0.000024263365    12.000000000000
         C            0.300643454840     1.123033591296    -0.000055263365    12.000000000000
         C            1.691714454840     0.888717591296    -0.000092263365    12.000000000000
         C           -2.519822545160     0.365867591296     0.000239736635    12.000000000000
         H           -0.215005545160     2.071407591296    -0.000059263365     1.007825032230
         H            0.724659454840    -2.035023408704    -0.000010263365     1.007825032230
         H            2.492163454840     1.617216591296    -0.000126263365     1.007825032230
         H           -3.470478545160    -0.164899408704     0.000316736635     1.007825032230
         H           -2.438533545160     0.990151591296    -0.894876263365     1.007825032230
         H           -2.438279545160     0.989971591296     0.895458736635     1.007825032230

  Basis Set: AUG-CC-PVTZ
    Blend: AUG-CC-PVTZ
  Basis Set: (AUG-CC-PVTZ AUX)
    Blend: AUG-CC-PVTZ-JKFIT
	 Reference Energy          =    -338.8001529079837155 [Eh]
	 Singles Energy            =      -0.0000000000000000 [Eh]
	 Same-Spin Energy          =      -0.3531292959084228 [Eh]
	 Opposite-Spin Energy      =      -1.0827380287979871 [Eh]
	 Correlation Energy        =      -1.4358673247064098 [Eh]
	 Total Energy              =    -340.2360202326901231 [Eh]

	 ================> DF-SCS-MP2 Energies <==================
	-----------------------------------------------------------
	 SCS Same-Spin Scale       =       0.3333333333333333 [-]
	 SCS Opposite-Spin Scale   =       1.2000000000000000 [-]
	 SCS Same-Spin Energy      =      -0.1177097653028076 [Eh]
	 SCS Opposite-Spin Energy  =      -1.2992856345575845 [Eh]
	 SCS Correlation Energy    =      -1.4169953998603921 [Eh]
	 SCS Total Energy          =    -340.2171483078441270 [Eh]
	-----------------------------------------------------------

  Dipole Moment: [D]
     X:    -3.0636      Y:     0.5899      Z:     0.0003     Total:     3.1199

*** Psi4 exiting successfully. Buy a developer a beer!
