                               Psi4 1.3.2 release

  ==> Input File <==

--------------------------------------------------------------------------
#psi4
#
memory 32 gb

molecule  {
0 1
  O       -1.4607440    -0.6783760    -0.0000110
  N        0.8364910    -1.0546300    -0.0000300
  N        2.0492790    -0.4487200    -0.0000870
  C       -0.2000590    -0.1785130    -0.0000310
  C        0.3504840     1.0933250    -0.0000620
  C        1.7415550     0.8590090    -0.0000990
  C       -2.4699820     0.3361590     0.0002330
  H       -0.1651650     2.0416990    -0.0000660
  H        0.7745000    -2.0647320    -0.0000170
  H        2.4680476     1.5201993    -0.0001299
  H       -3.4206380    -0.1946080     0.0003100
  H       -2.3886930     0.9604430    -0.8948830
  H       -2.3884390     0.9602630     0.8954520
units angstrom
no_reorient  #important for SAPT in psi4, default
symmetry c1  #important for SAPT in psi4, default
}

set PROPERTIES_ORIGIN ["COM"]
properties('MP2/aug-cc-pvtz', properties = ['dipole'])
--------------------------------------------------------------------------

    Molecular point group: c1
  Charge       = 0
  Multiplicity = 1
  Basis Set: AUG-CC-PVTZ
    Blend: AUG-CC-PVTZ
  Basis Set: (AUG-CC-PVTZ AUX)
    Blend: AUG-CC-PVTZ-JKFIT

    Orbital Energies [Eh]
    ---------------------

    Doubly Occupied:

       1A    -20.612223     2A    -15.630056     3A    -15.580476
       4A    -11.342446     5A    -11.299983     6A    -11.245803
       7A    -11.219421     8A     -1.439613     9A     -1.355883
      10A     -1.093390    11A     -1.048245    12A     -0.961495
      13A     -0.831256    14A     -0.802093    15A     -0.756119
      16A     -0.679234    17A     -0.651170    18A     -0.626986
      19A     -0.605649    20A     -0.599440    21A     -0.586555
      22A     -0.528762    23A     -0.506420    24A     -0.454442
      25A     -0.366233    26A     -0.325265

  @DF-RHF Final Energy:  -338.79330432125323

   => Energetics <=

    Nuclear Repulsion Energy =            296.2459221983469888
    One-Electron Energy =               -1047.7811381075941881
    Two-Electron Energy =                 412.7419115879939682
    Total Energy =                       -338.7933043212532311
  Basis Set: (AUG-CC-PVTZ AUX)
    Blend: AUG-CC-PVTZ-RI
    Molecular point group: c1

    Geometry (in Angstrom), charge = 0, multiplicity = 1:

       Center              X                  Y                   Z               Mass
    ------------   -----------------  -----------------  -----------------  -----------------
         O           -1.511216177557    -0.644373872251    -0.000004360483    15.994914619570
         N            0.786018822443    -1.020627872251    -0.000023360483    14.003074004430
         N            1.998806822443    -0.414717872251    -0.000080360483    14.003074004430
         C           -0.250531177557    -0.144510872251    -0.000024360483    12.000000000000
         C            0.300011822443     1.127327127749    -0.000055360483    12.000000000000
         C            1.691082822443     0.893011127749    -0.000092360483    12.000000000000
         C           -2.520454177557     0.370161127749     0.000239639517    12.000000000000
         H           -0.215637177557     2.075701127749    -0.000059360483     1.007825032230
         H            0.724027822443    -2.030729872251    -0.000010360483     1.007825032230
         H            2.417575422443     1.554201427749    -0.000123260483     1.007825032230
         H           -3.471110177557    -0.160605872251     0.000316639517     1.007825032230
         H           -2.439165177557     0.994445127749    -0.894876360483     1.007825032230
         H           -2.438911177557     0.994265127749     0.895458639517     1.007825032230

  Basis Set: AUG-CC-PVTZ
    Blend: AUG-CC-PVTZ
  Basis Set: (AUG-CC-PVTZ AUX)
    Blend: AUG-CC-PVTZ-JKFIT
	 Reference Energy          =    -338.7933043212532311 [Eh]
	 Singles Energy            =      -0.0000000000000000 [Eh]
	 Same-Spin Energy          =      -0.3531513278417789 [Eh]
	 Opposite-Spin Energy      =      -1.0829919275934687 [Eh]
	 Correlation Energy        =      -1.4361432554352476 [Eh]
	 Total Energy              =    -340.2294475766884716 [Eh]

	 ================> DF-SCS-MP2 Energies <==================
	-----------------------------------------------------------
	 SCS Same-Spin Scale       =       0.3333333333333333 [-]
	 SCS Opposite-Spin Scale   =       1.2000000000000000 [-]
	 SCS Same-Spin Energy      =      -0.1177171092805930 [Eh]
	 SCS Opposite-Spin Energy  =      -1.2995903131121624 [Eh]
	 SCS Correlation Energy    =      -1.4173074223927555 [Eh]
	 SCS Total Energy          =    -340.2106117436459840 [Eh]
	-----------------------------------------------------------

  Dipole Moment: [D]
     X:    -3.1216      Y:     0.6528      Z:     0.0003     Total:     3.1891

*** Psi4 exiting successfully. Buy a developer a beer!
