                               Psi4 1.3.2 release

  ==> Input File <==

--------------------------------------------------------------------------
#psi4
#
memory 32 gb

molecule  {
0 1
  O       -1.4607440    -0.6783760    -0.0000110
  N        0.8364910    -1.0546300    -0.0000300
  N        2.0492790    -0.4487200    -0.0000870
  C       -0.3859778    -0.2522300    -0.0000281
  C        0.3504840     1.0933250    -0.0000620
  C        1.7415550     0.8590090    -0.0000990
  C       -2.4699820     0.3361590     0.0002330
  H       -0.1651650     2.0416990    -0.0000660
  H        0.7745000    -2.0647320    -0.0000170
  H        2.5420040     1.5875080    -0.0001330
  H       -3.4206380    -0.1946080     0.0003100
  H       -2.3886930     0.9604430    -0.8948830
  H       -2.3884390     0.9602630     0.8954520
units angstrom
no_reorient  #important for SAPT in psi4, default
symmetry c1  #important for SAPT in psi4, default
}

set PROPERTIES_ORIGIN ["COM"]
properties('MP2/aug-cc-pvtz', properties = ['dipole'])
--------------------------------------------------------------------------

    Molecular point group: c1
  Charge       = 0
  Multiplicity = 1
  Basis Set: AUG-CC-PVTZ
    Blend: AUG-CC-PVTZ
  Basis Set: (AUG-CC-PVTZ AUX)
    Blend: AUG-CC-PVTZ-JKFIT

    Orbital Energies [Eh]
    ---------------------

    Doubly Occupied:

       1A    -20.652616     2A    -15.613925     3A    -15.565512
       4A    -11.364917     5A    -11.328022     6A    -11.246490
       7A    -11.217489     8A     -1.565942     9A     -1.322676
      10A     -1.080031    11A     -1.028427    12A     -0.984328
      13A     -0.829691    14A     -0.791027    15A     -0.764066
      16A     -0.737297    17A     -0.692304    18A     -0.625694
      19A     -0.594489    20A     -0.590419    21A     -0.573374
      22A     -0.538545    23A     -0.507506    24A     -0.432730
      25A     -0.349120    26A     -0.286135

  @DF-RHF Final Energy:  -338.72758529033666

   => Energetics <=

    Nuclear Repulsion Energy =            295.6740443154378681
    One-Electron Energy =               -1046.2377169391729694
    Two-Electron Energy =                 411.8360873333984387
    Total Energy =                       -338.7275852903366626
  Basis Set: (AUG-CC-PVTZ AUX)
    Blend: AUG-CC-PVTZ-RI
    Molecular point group: c1

    Geometry (in Angstrom), charge = 0, multiplicity = 1:

       Center              X                  Y                   Z               Mass
    ------------   -----------------  -----------------  -----------------  -----------------
         O           -1.489221948131    -0.636043579941    -0.000004683546    15.994914619570
         N            0.808013051869    -1.012297579941    -0.000023683546    14.003074004430
         N            2.020801051869    -0.406387579941    -0.000080683546    14.003074004430
         C           -0.414455748131    -0.209897579941    -0.000021783546    12.000000000000
         C            0.322006051869     1.135657420059    -0.000055683546    12.000000000000
         C            1.713077051869     0.901341420059    -0.000092683546    12.000000000000
         C           -2.498459948131     0.378491420059     0.000239316454    12.000000000000
         H           -0.193642948131     2.084031420059    -0.000059683546     1.007825032230
         H            0.746022051869    -2.022399579941    -0.000010683546     1.007825032230
         H            2.513526051869     1.629840420059    -0.000126683546     1.007825032230
         H           -3.449115948131    -0.152275579941     0.000316316454     1.007825032230
         H           -2.417170948131     1.002775420059    -0.894876683546     1.007825032230
         H           -2.416916948131     1.002595420059     0.895458316454     1.007825032230

  Basis Set: AUG-CC-PVTZ
    Blend: AUG-CC-PVTZ
  Basis Set: (AUG-CC-PVTZ AUX)
    Blend: AUG-CC-PVTZ-JKFIT
	 Reference Energy          =    -338.7275852903366626 [Eh]
	 Singles Energy            =      -0.0000000000000000 [Eh]
	 Same-Spin Energy          =      -0.3553637144501001 [Eh]
	 Opposite-Spin Energy      =      -1.0855392548305751 [Eh]
	 Correlation Energy        =      -1.4409029692806752 [Eh]
	 Total Energy              =    -340.1684882596173338 [Eh]

	 ================> DF-SCS-MP2 Energies <==================
	-----------------------------------------------------------
	 SCS Same-Spin Scale       =       0.3333333333333333 [-]
	 SCS Opposite-Spin Scale   =       1.2000000000000000 [-]
	 SCS Same-Spin Energy      =      -0.1184545714833667 [Eh]
	 SCS Opposite-Spin Energy  =      -1.3026471057966902 [Eh]
	 SCS Correlation Energy    =      -1.4211016772800569 [Eh]
	 SCS Total Energy          =    -340.1486869676166975 [Eh]
	-----------------------------------------------------------

  Dipole Moment: [D]
     X:    -4.7296      Y:     0.3036      Z:     0.0004     Total:     4.7393

*** Psi4 exiting successfully. Buy a developer a beer!
