                               Psi4 1.3.2 release

  ==> Input File <==

--------------------------------------------------------------------------
#psi4
#
memory 32 gb

molecule  {
0 1
  O       -1.4607440    -0.6783760    -0.0000110
  N        0.8364910    -1.0546300    -0.0000300
  N        2.0947306    -0.4371840    -0.0000885
  C       -0.2000590    -0.1785130    -0.0000310
  C        0.3504840     1.0933250    -0.0000620
  C        1.7415550     0.8590090    -0.0000990
  C       -2.4699820     0.3361590     0.0002330
  H       -0.1651650     2.0416990    -0.0000660
  H        0.7745000    -2.0647320    -0.0000170
  H        2.5420040     1.5875080    -0.0001330
  H       -3.4206380    -0.1946080     0.0003100
  H       -2.3886930     0.9604430    -0.8948830
  H       -2.3884390     0.9602630     0.8954520
units angstrom
no_reorient  #important for SAPT in psi4, default
symmetry c1  #important for SAPT in psi4, default
}

set PROPERTIES_ORIGIN ["COM"]
properties('MP2/aug-cc-pvtz', properties = ['dipole'])
--------------------------------------------------------------------------

    Molecular point group: c1
  Charge       = 0
  Multiplicity = 1
  Basis Set: AUG-CC-PVTZ
    Blend: AUG-CC-PVTZ
  Basis Set: (AUG-CC-PVTZ AUX)
    Blend: AUG-CC-PVTZ-JKFIT

    Orbital Energies [Eh]
    ---------------------

    Doubly Occupied:

       1A    -20.615183     2A    -15.626484     3A    -15.584992
       4A    -11.347718     5A    -11.301443     6A    -11.261049
       7A    -11.220439     8A     -1.441035     9A     -1.340116
      10A     -1.093962    11A     -1.045093    12A     -0.963730
      13A     -0.816166    14A     -0.793728    15A     -0.755628
      16A     -0.680213    17A     -0.650384    18A     -0.622421
      19A     -0.597498    20A     -0.593664    21A     -0.575201
      22A     -0.528713    23A     -0.506408    24A     -0.459900
      25A     -0.367259    26A     -0.329125

  @DF-RHF Final Energy:  -338.79613044359866

   => Energetics <=

    Nuclear Repulsion Energy =            294.5939530891102436
    One-Electron Energy =               -1044.5450625832056630
    Two-Electron Energy =                 411.1549790504967063
    Total Energy =                       -338.7961304435986563
  Basis Set: (AUG-CC-PVTZ AUX)
    Blend: AUG-CC-PVTZ-RI
    Molecular point group: c1

    Geometry (in Angstrom), charge = 0, multiplicity = 1:

       Center              X                  Y                   Z               Mass
    ------------   -----------------  -----------------  -----------------  -----------------
         O           -1.518467698615    -0.646713285849    -0.000004114390    15.994914619570
         N            0.778767301385    -1.022967285849    -0.000023114390    14.003074004430
         N            2.037006901385    -0.405521285849    -0.000081614390    14.003074004430
         C           -0.257782698615    -0.146850285849    -0.000024114390    12.000000000000
         C            0.292760301385     1.124987714151    -0.000055114390    12.000000000000
         C            1.683831301385     0.890671714151    -0.000092114390    12.000000000000
         C           -2.527705698615     0.367821714151     0.000239885610    12.000000000000
         H           -0.222888698615     2.073361714151    -0.000059114390     1.007825032230
         H            0.716776301385    -2.033069285849    -0.000010114390     1.007825032230
         H            2.484280301385     1.619170714151    -0.000126114390     1.007825032230
         H           -3.478361698615    -0.162945285849     0.000316885610     1.007825032230
         H           -2.446416698615     0.992105714151    -0.894876114390     1.007825032230
         H           -2.446162698615     0.991925714151     0.895458885610     1.007825032230

  Basis Set: AUG-CC-PVTZ
    Blend: AUG-CC-PVTZ
  Basis Set: (AUG-CC-PVTZ AUX)
    Blend: AUG-CC-PVTZ-JKFIT
	 Reference Energy          =    -338.7961304435986563 [Eh]
	 Singles Energy            =      -0.0000000000000000 [Eh]
	 Same-Spin Energy          =      -0.3530548900708118 [Eh]
	 Opposite-Spin Energy      =      -1.0843106682968400 [Eh]
	 Correlation Energy        =      -1.4373655583676519 [Eh]
	 Total Energy              =    -340.2334960019663299 [Eh]

	 ================> DF-SCS-MP2 Energies <==================
	-----------------------------------------------------------
	 SCS Same-Spin Scale       =       0.3333333333333333 [-]
	 SCS Opposite-Spin Scale   =       1.2000000000000000 [-]
	 SCS Same-Spin Energy      =      -0.1176849633569373 [Eh]
	 SCS Opposite-Spin Energy  =      -1.3011728019562079 [Eh]
	 SCS Correlation Energy    =      -1.4188577653131451 [Eh]
	 SCS Total Energy          =    -340.2149882089117909 [Eh]
	-----------------------------------------------------------

  Dipole Moment: [D]
     X:    -3.1984      Y:     0.6990      Z:     0.0003     Total:     3.2739

*** Psi4 exiting successfully. Buy a developer a beer!
