                               Psi4 1.3.2 release

  ==> Input File <==

--------------------------------------------------------------------------
#psi4
#
memory 32 gb

molecule  {
0 1
  O       -1.4607440    -0.6783760    -0.0000110
  N        0.8364910    -1.0546300    -0.0000300
  N        2.0492790    -0.4487200    -0.0000870
  C       -0.1682613    -0.2676716    -0.0000479
  C        0.3504840     1.0933250    -0.0000620
  C        1.7415550     0.8590090    -0.0000990
  C       -2.4699820     0.3361590     0.0002330
  H       -0.1651650     2.0416990    -0.0000660
  H        0.7745000    -2.0647320    -0.0000170
  H        2.5420040     1.5875080    -0.0001330
  H       -3.4206380    -0.1946080     0.0003100
  H       -2.3886930     0.9604430    -0.8948830
  H       -2.3884390     0.9602630     0.8954520
units angstrom
no_reorient  #important for SAPT in psi4, default
symmetry c1  #important for SAPT in psi4, default
}

set PROPERTIES_ORIGIN ["COM"]
properties('MP2/aug-cc-pvtz', properties = ['dipole'])
--------------------------------------------------------------------------

    Molecular point group: c1
  Charge       = 0
  Multiplicity = 1
  Basis Set: AUG-CC-PVTZ
    Blend: AUG-CC-PVTZ
  Basis Set: (AUG-CC-PVTZ AUX)
    Blend: AUG-CC-PVTZ-JKFIT

    Orbital Energies [Eh]
    ---------------------

    Doubly Occupied:

       1A    -20.610649     2A    -15.639778     3A    -15.572218
       4A    -11.345760     5A    -11.301622     6A    -11.257865
       7A    -11.218840     8A     -1.441603     9A     -1.371135
      10A     -1.112201    11A     -1.034259    12A     -0.962471
      13A     -0.822014    14A     -0.809377    15A     -0.757838
      16A     -0.681344    17A     -0.648591    18A     -0.618174
      19A     -0.610055    20A     -0.607303    21A     -0.578943
      22A     -0.513400    23A     -0.506349    24A     -0.452209
      25A     -0.372615    26A     -0.316798

  @DF-RHF Final Energy:  -338.79195373994173

   => Energetics <=

    Nuclear Repulsion Energy =            295.9562989283394359
    One-Electron Energy =               -1047.1696792017512507
    Two-Electron Energy =                 412.4214265334700258
    Total Energy =                       -338.7919537399417322
  Basis Set: (AUG-CC-PVTZ AUX)
    Blend: AUG-CC-PVTZ-RI
    Molecular point group: c1

    Geometry (in Angstrom), charge = 0, multiplicity = 1:

       Center              X                  Y                   Z               Mass
    ------------   -----------------  -----------------  -----------------  -----------------
         O           -1.515868056755    -0.634153697681    -0.000002260244    15.994914619570
         N            0.781366943245    -1.010407697681    -0.000021260244    14.003074004430
         N            1.994154943245    -0.404497697681    -0.000078260244    14.003074004430
         C           -0.223385356755    -0.223449297681    -0.000039160244    12.000000000000
         C            0.295359943245     1.137547302319    -0.000053260244    12.000000000000
         C            1.686430943245     0.903231302319    -0.000090260244    12.000000000000
         C           -2.525106056755     0.380381302319     0.000241739756    12.000000000000
         H           -0.220289056755     2.085921302319    -0.000057260244     1.007825032230
         H            0.719375943245    -2.020509697681    -0.000008260244     1.007825032230
         H            2.486879943245     1.631730302319    -0.000124260244     1.007825032230
         H           -3.475762056755    -0.150385697681     0.000318739756     1.007825032230
         H           -2.443817056755     1.004665302319    -0.894874260244     1.007825032230
         H           -2.443563056755     1.004485302319     0.895460739756     1.007825032230

  Basis Set: AUG-CC-PVTZ
    Blend: AUG-CC-PVTZ
  Basis Set: (AUG-CC-PVTZ AUX)
    Blend: AUG-CC-PVTZ-JKFIT
	 Reference Energy          =    -338.7919537399417322 [Eh]
	 Singles Energy            =      -0.0000000000000000 [Eh]
	 Same-Spin Energy          =      -0.3524274109548325 [Eh]
	 Opposite-Spin Energy      =      -1.0810160001110689 [Eh]
	 Correlation Energy        =      -1.4334434110659013 [Eh]
	 Total Energy              =    -340.2253971510076553 [Eh]

	 ================> DF-SCS-MP2 Energies <==================
	-----------------------------------------------------------
	 SCS Same-Spin Scale       =       0.3333333333333333 [-]
	 SCS Opposite-Spin Scale   =       1.2000000000000000 [-]
	 SCS Same-Spin Energy      =      -0.1174758036516108 [Eh]
	 SCS Opposite-Spin Energy  =      -1.2972192001332827 [Eh]
	 SCS Correlation Energy    =      -1.4146950037848935 [Eh]
	 SCS Total Energy          =    -340.2066487437266460 [Eh]
	-----------------------------------------------------------

  Dipole Moment: [D]
     X:    -3.1309      Y:     0.3941      Z:     0.0004     Total:     3.1556

*** Psi4 exiting successfully. Buy a developer a beer!
