                               Psi4 1.3.2 release

  ==> Input File <==

--------------------------------------------------------------------------
#psi4
#
memory 32 gb

molecule  {
0 1
  O       -1.4607440    -0.6783760    -0.0000110
  N        0.8950808    -0.9801898    -0.0000322
  N        2.0492790    -0.4487200    -0.0000870
  C       -0.2000590    -0.1785130    -0.0000310
  C        0.3504840     1.0933250    -0.0000620
  C        1.7415550     0.8590090    -0.0000990
  C       -2.4699820     0.3361590     0.0002330
  H       -0.1651650     2.0416990    -0.0000660
  H        0.7745000    -2.0647320    -0.0000170
  H        2.5420040     1.5875080    -0.0001330
  H       -3.4206380    -0.1946080     0.0003100
  H       -2.3886930     0.9604430    -0.8948830
  H       -2.3884390     0.9602630     0.8954520
units angstrom
no_reorient  #important for SAPT in psi4, default
symmetry c1  #important for SAPT in psi4, default
}

set PROPERTIES_ORIGIN ["COM"]
properties('MP2/aug-cc-pvtz', properties = ['dipole'])
--------------------------------------------------------------------------

    Molecular point group: c1
  Charge       = 0
  Multiplicity = 1
  Basis Set: AUG-CC-PVTZ
    Blend: AUG-CC-PVTZ
  Basis Set: (AUG-CC-PVTZ AUX)
    Blend: AUG-CC-PVTZ-JKFIT

    Orbital Energies [Eh]
    ---------------------

    Doubly Occupied:

       1A    -20.612919     2A    -15.642608     3A    -15.579969
       4A    -11.335243     5A    -11.301038     6A    -11.248195
       7A    -11.219486     8A     -1.442460     9A     -1.393063
      10A     -1.083654    11A     -1.056450    12A     -0.961342
      13A     -0.815152    14A     -0.798096    15A     -0.755513
      16A     -0.681610    17A     -0.649341    18A     -0.630936
      19A     -0.616255    20A     -0.585858    21A     -0.574932
      22A     -0.526853    23A     -0.510862    24A     -0.458973
      25A     -0.361005    26A     -0.322312

  @DF-RHF Final Energy:  -338.78403775419122

   => Energetics <=

    Nuclear Repulsion Energy =            297.2187323727522994
    One-Electron Energy =               -1049.6772923883193016
    Two-Electron Energy =                 413.6745222613757278
    Total Energy =                       -338.7840377541912176
  Basis Set: (AUG-CC-PVTZ AUX)
    Blend: AUG-CC-PVTZ-RI
    Molecular point group: c1

    Geometry (in Angstrom), charge = 0, multiplicity = 1:

       Center              X                  Y                   Z               Mass
    ------------   -----------------  -----------------  -----------------  -----------------
         O           -1.520344077152    -0.655697171830    -0.000004014417    15.994914619570
         N            0.835480722848    -0.957510971830    -0.000025214417    14.003074004430
         N            1.989678922848    -0.426041171830    -0.000080014417    14.003074004430
         C           -0.259659077152    -0.155834171830    -0.000024014417    12.000000000000
         C            0.290883922848     1.116003828170    -0.000055014417    12.000000000000
         C            1.681954922848     0.881687828170    -0.000092014417    12.000000000000
         C           -2.529582077152     0.358837828170     0.000239985583    12.000000000000
         H           -0.224765077152     2.064377828170    -0.000059014417     1.007825032230
         H            0.714899922848    -2.042053171830    -0.000010014417     1.007825032230
         H            2.482403922848     1.610186828170    -0.000126014417     1.007825032230
         H           -3.480238077152    -0.171929171830     0.000316985583     1.007825032230
         H           -2.448293077152     0.983121828170    -0.894876014417     1.007825032230
         H           -2.448039077152     0.982941828170     0.895458985583     1.007825032230

  Basis Set: AUG-CC-PVTZ
    Blend: AUG-CC-PVTZ
  Basis Set: (AUG-CC-PVTZ AUX)
    Blend: AUG-CC-PVTZ-JKFIT
	 Reference Energy          =    -338.7840377541912176 [Eh]
	 Singles Energy            =      -0.0000000000000000 [Eh]
	 Same-Spin Energy          =      -0.3549689643827996 [Eh]
	 Opposite-Spin Energy      =      -1.0842020909720107 [Eh]
	 Correlation Energy        =      -1.4391710553548103 [Eh]
	 Total Energy              =    -340.2232088095460085 [Eh]

	 ================> DF-SCS-MP2 Energies <==================
	-----------------------------------------------------------
	 SCS Same-Spin Scale       =       0.3333333333333333 [-]
	 SCS Opposite-Spin Scale   =       1.2000000000000000 [-]
	 SCS Same-Spin Energy      =      -0.1183229881275999 [Eh]
	 SCS Opposite-Spin Energy  =      -1.3010425091664128 [Eh]
	 SCS Correlation Energy    =      -1.4193654972940126 [Eh]
	 SCS Total Energy          =    -340.2034032514852129 [Eh]
	-----------------------------------------------------------

  Dipole Moment: [D]
     X:    -3.1556      Y:     0.4666      Z:     0.0004     Total:     3.1899

*** Psi4 exiting successfully. Buy a developer a beer!
