                               Psi4 1.3.2 release

  ==> Input File <==

--------------------------------------------------------------------------
#psi4
#
memory 32 gb

molecule  {
0 1
  O       -1.4607440    -0.6783760    -0.0000110
  N        0.8364910    -1.0546300    -0.0000300
  N        2.0885909    -0.5347958    -0.0000851
  C       -0.2000590    -0.1785130    -0.0000310
  C        0.3504840     1.0933250    -0.0000620
  C        1.7415550     0.8590090    -0.0000990
  C       -2.4699820     0.3361590     0.0002330
  H       -0.1651650     2.0416990    -0.0000660
  H        0.7745000    -2.0647320    -0.0000170
  H        2.5420040     1.5875080    -0.0001330
  H       -3.4206380    -0.1946080     0.0003100
  H       -2.3886930     0.9604430    -0.8948830
  H       -2.3884390     0.9602630     0.8954520
units angstrom
no_reorient  #important for SAPT in psi4, default
symmetry c1  #important for SAPT in psi4, default
}

set PROPERTIES_ORIGIN ["COM"]
properties('MP2/aug-cc-pvtz', properties = ['dipole'])
--------------------------------------------------------------------------

    Molecular point group: c1
  Charge       = 0
  Multiplicity = 1
  Basis Set: AUG-CC-PVTZ
    Blend: AUG-CC-PVTZ
  Basis Set: (AUG-CC-PVTZ AUX)
    Blend: AUG-CC-PVTZ-JKFIT

    Orbital Energies [Eh]
    ---------------------

    Doubly Occupied:

       1A    -20.614210     2A    -15.634609     3A    -15.590464
       4A    -11.345431     5A    -11.302194     6A    -11.268301
       7A    -11.227727     8A     -1.441174     9A     -1.347707
      10A     -1.070502    11A     -1.057653    12A     -0.960377
      13A     -0.819202    14A     -0.800676    15A     -0.753841
      16A     -0.681006    17A     -0.651110    18A     -0.618601
      19A     -0.599689    20A     -0.596327    21A     -0.570391
      22A     -0.527938    23A     -0.506184    24A     -0.463739
      25A     -0.365539    26A     -0.317944

  @DF-RHF Final Energy:  -338.78179221169455

   => Energetics <=

    Nuclear Repulsion Energy =            293.8503341023953226
    One-Electron Energy =               -1042.9991777039163026
    Two-Electron Energy =                 410.3670513898264289
    Total Energy =                       -338.7817922116945510
  Basis Set: (AUG-CC-PVTZ AUX)
    Blend: AUG-CC-PVTZ-RI
    Molecular point group: c1

    Geometry (in Angstrom), charge = 0, multiplicity = 1:

       Center              X                  Y                   Z               Mass
    ------------   -----------------  -----------------  -----------------  -----------------
         O           -1.517590835627    -0.632772511123    -0.000004599973    15.994914619570
         N            0.779644164373    -1.009026511123    -0.000023599973    14.003074004430
         N            2.031744064373    -0.489192311123    -0.000078699973    14.003074004430
         C           -0.256905835627    -0.132909511123    -0.000024599973    12.000000000000
         C            0.293637164373     1.138928488877    -0.000055599973    12.000000000000
         C            1.684708164373     0.904612488877    -0.000092599973    12.000000000000
         C           -2.526828835627     0.381762488877     0.000239400027    12.000000000000
         H           -0.222011835627     2.087302488877    -0.000059599973     1.007825032230
         H            0.717653164373    -2.019128511123    -0.000010599973     1.007825032230
         H            2.485157164373     1.633111488877    -0.000126599973     1.007825032230
         H           -3.477484835627    -0.149004511123     0.000316400027     1.007825032230
         H           -2.445539835627     1.006046488877    -0.894876599973     1.007825032230
         H           -2.445285835627     1.005866488877     0.895458400027     1.007825032230

  Basis Set: AUG-CC-PVTZ
    Blend: AUG-CC-PVTZ
  Basis Set: (AUG-CC-PVTZ AUX)
    Blend: AUG-CC-PVTZ-JKFIT
	 Reference Energy          =    -338.7817922116945510 [Eh]
	 Singles Energy            =      -0.0000000000000000 [Eh]
	 Same-Spin Energy          =      -0.3560031517984645 [Eh]
	 Opposite-Spin Energy      =      -1.0893339217085543 [Eh]
	 Correlation Energy        =      -1.4453370735070188 [Eh]
	 Total Energy              =    -340.2271292852015563 [Eh]

	 ================> DF-SCS-MP2 Energies <==================
	-----------------------------------------------------------
	 SCS Same-Spin Scale       =       0.3333333333333333 [-]
	 SCS Opposite-Spin Scale   =       1.2000000000000000 [-]
	 SCS Same-Spin Energy      =      -0.1186677172661548 [Eh]
	 SCS Opposite-Spin Energy  =      -1.3072007060502651 [Eh]
	 SCS Correlation Energy    =      -1.4258684233164198 [Eh]
	 SCS Total Energy          =    -340.2076606350109955 [Eh]
	-----------------------------------------------------------

  Dipole Moment: [D]
     X:    -3.2981      Y:     0.7338      Z:     0.0003     Total:     3.3788

*** Psi4 exiting successfully. Buy a developer a beer!
