                               Psi4 1.4a3.dev225

  ==> Input File <==

--------------------------------------------------------------------------
#psi4
#
memory 32 gb

molecule  {
0 1
  O       -1.4607440    -0.6783760    -0.0000110
  N        0.8364910    -1.0546300    -0.0000300
  N        2.0492790    -0.4487200    -0.0000870
  C       -0.2000590    -0.1785130    -0.0000310
  C        0.3504840     1.0933250    -0.0000620
  C        1.7415550     0.8590090    -0.0000990
  C       -2.4699820     0.3361590     0.0002330
  H       -0.1412812     1.9977722    -0.0000658
  H        0.7745000    -2.0647320    -0.0000170
  H        2.5420040     1.5875080    -0.0001330
  H       -3.4206380    -0.1946080     0.0003100
  H       -2.3886930     0.9604430    -0.8948830
  H       -2.3884390     0.9602630     0.8954520
units angstrom
no_reorient  #important for SAPT in psi4, default
symmetry c1  #important for SAPT in psi4, default
}

set PROPERTIES_ORIGIN ["COM"]
properties('MP2/aug-cc-pvtz', properties = ['dipole'])
--------------------------------------------------------------------------

    Molecular point group: c1
  Charge       = 0
  Multiplicity = 1
  Basis Set: AUG-CC-PVTZ
    Blend: AUG-CC-PVTZ
  Basis Set: (AUG-CC-PVTZ AUX)
    Blend: AUG-CC-PVTZ-JKFIT

    Orbital Energies [Eh]
    ---------------------

    Doubly Occupied:

       1A    -20.612594     2A    -15.630162     3A    -15.580533
       4A    -11.342642     5A    -11.300373     6A    -11.256988
       7A    -11.214434     8A     -1.439959     9A     -1.356065
      10A     -1.091154    11A     -1.049846    12A     -0.961862
      13A     -0.818972    14A     -0.803836    15A     -0.755373
      16A     -0.679573    17A     -0.653461    18A     -0.626816
      19A     -0.602757    20A     -0.599682    21A     -0.580836
      22A     -0.528374    23A     -0.506749    24A     -0.453967
      25A     -0.366337    26A     -0.325511

  @DF-RHF Final Energy:  -338.79867853797595

   => Energetics <=

    Nuclear Repulsion Energy =            295.9612262302013050
    One-Electron Energy =               -1047.2421010991963612
    Two-Electron Energy =                 412.4821963310191109
    Total Energy =                       -338.7986785379759453
  Basis Set: (AUG-CC-PVTZ AUX)
    Blend: AUG-CC-PVTZ-RI
    Molecular point group: c1

    Geometry (in Angstrom), charge = 0, multiplicity = 1:

       Center              X                  Y                   Z               Mass
    ------------   -----------------  -----------------  -----------------  -----------------
         O           -1.512221866504    -0.644614212299    -0.000004330674    15.994914619570
         N            0.785013133496    -1.020868212299    -0.000023330674    14.003074004430
         N            1.997801133496    -0.414958212299    -0.000080330674    14.003074004430
         C           -0.251536866504    -0.144751212299    -0.000024330674    12.000000000000
         C            0.299006133496     1.127086787701    -0.000055330674    12.000000000000
         C            1.690077133496     0.892770787701    -0.000092330674    12.000000000000
         C           -2.521459866504     0.369920787701     0.000239669326    12.000000000000
         H           -0.192759066504     2.031533987701    -0.000059130674     1.007825032230
         H            0.723022133496    -2.030970212299    -0.000010330674     1.007825032230
         H            2.490526133496     1.621269787701    -0.000126330674     1.007825032230
         H           -3.472115866504    -0.160846212299     0.000316669326     1.007825032230
         H           -2.440170866504     0.994204787701    -0.894876330674     1.007825032230
         H           -2.439916866504     0.994024787701     0.895458669326     1.007825032230

  Basis Set: AUG-CC-PVTZ
    Blend: AUG-CC-PVTZ
  Basis Set: (AUG-CC-PVTZ AUX)
    Blend: AUG-CC-PVTZ-JKFIT
	 Reference Energy          =    -338.7986785379759453 [Eh]
	 Singles Energy            =      -0.0000000000000000 [Eh]
	 Same-Spin Energy          =      -0.3531573759103488 [Eh]
	 Opposite-Spin Energy      =      -1.0831089641144327 [Eh]
	 Correlation Energy        =      -1.4362663400247815 [Eh]
	 Total Energy              =    -340.2349448780007037 [Eh]

	 ================> DF-SCS-MP2 Energies <==================
	-----------------------------------------------------------
	 SCS Same-Spin Scale       =       0.3333333333333333 [-]
	 SCS Opposite-Spin Scale   =       1.2000000000000000 [-]
	 SCS Same-Spin Energy      =      -0.1177191253034496 [Eh]
	 SCS Opposite-Spin Energy  =      -1.2997307569373191 [Eh]
	 SCS Correlation Energy    =      -1.4174498822407686 [Eh]
	 SCS Total Energy          =    -340.2161284202167053 [Eh]
	-----------------------------------------------------------

  Dipole Moment: [D]
     X:    -3.1338      Y:     0.6448      Z:     0.0003     Total:     3.1994

*** Psi4 exiting successfully. Buy a developer a beer!
