                               Psi4 1.3.2 release

  ==> Input File <==

--------------------------------------------------------------------------
#psi4
#
memory 32 gb

molecule  {
0 1
  O       -1.4607440    -0.6783760    -0.0000110
  N        0.9064696    -1.1780816    -0.0000304
  N        2.0492790    -0.4487200    -0.0000870
  C       -0.2000590    -0.1785130    -0.0000310
  C        0.3504840     1.0933250    -0.0000620
  C        1.7415550     0.8590090    -0.0000990
  C       -2.4699820     0.3361590     0.0002330
  H       -0.1651650     2.0416990    -0.0000660
  H        0.7745000    -2.0647320    -0.0000170
  H        2.5420040     1.5875080    -0.0001330
  H       -3.4206380    -0.1946080     0.0003100
  H       -2.3886930     0.9604430    -0.8948830
  H       -2.3884390     0.9602630     0.8954520
units angstrom
no_reorient  #important for SAPT in psi4, default
symmetry c1  #important for SAPT in psi4, default
}

set PROPERTIES_ORIGIN ["COM"]
properties('MP2/aug-cc-pvtz', properties = ['dipole'])
--------------------------------------------------------------------------

    Molecular point group: c1
  Charge       = 0
  Multiplicity = 1
  Basis Set: AUG-CC-PVTZ
    Blend: AUG-CC-PVTZ
  Basis Set: (AUG-CC-PVTZ AUX)
    Blend: AUG-CC-PVTZ-JKFIT

    Orbital Energies [Eh]
    ---------------------

    Doubly Occupied:

       1A    -20.613212     2A    -15.621225     3A    -15.586494
       4A    -11.353956     5A    -11.300495     6A    -11.260530
       7A    -11.229663     8A     -1.435675     9A     -1.338922
      10A     -1.098021    11A     -1.041276    12A     -0.963467
      13A     -0.844662    14A     -0.781224    15A     -0.748190
      16A     -0.675688    17A     -0.667664    18A     -0.634358
      19A     -0.597258    20A     -0.586231    21A     -0.582749
      22A     -0.529298    23A     -0.507732    24A     -0.436957
      25A     -0.375351    26A     -0.317040

  @DF-RHF Final Energy:  -338.76472861746504

   => Energetics <=

    Nuclear Repulsion Energy =            292.8987008349059238
    One-Electron Energy =               -1041.0721812903066166
    Two-Electron Energy =                 409.4087518379357107
    Total Energy =                       -338.7647286174650390
  Basis Set: (AUG-CC-PVTZ AUX)
    Blend: AUG-CC-PVTZ-RI
    Molecular point group: c1

    Geometry (in Angstrom), charge = 0, multiplicity = 1:

       Center              X                  Y                   Z               Mass
    ------------   -----------------  -----------------  -----------------  -----------------
         O           -1.521970608936    -0.627434553950    -0.000004271491    15.994914619570
         N            0.845242991064    -1.127140153950    -0.000023671491    14.003074004430
         N            1.988052391064    -0.397778553950    -0.000080271491    14.003074004430
         C           -0.261285608936    -0.127571553950    -0.000024271491    12.000000000000
         C            0.289257391064     1.144266446050    -0.000055271491    12.000000000000
         C            1.680328391064     0.909950446050    -0.000092271491    12.000000000000
         C           -2.531208608936     0.387100446050     0.000239728509    12.000000000000
         H           -0.226391608936     2.092640446050    -0.000059271491     1.007825032230
         H            0.713273391064    -2.013790553950    -0.000010271491     1.007825032230
         H            2.480777391064     1.638449446050    -0.000126271491     1.007825032230
         H           -3.481864608936    -0.143666553950     0.000316728509     1.007825032230
         H           -2.449919608936     1.011384446050    -0.894876271491     1.007825032230
         H           -2.449665608936     1.011204446050     0.895458728509     1.007825032230

  Basis Set: AUG-CC-PVTZ
    Blend: AUG-CC-PVTZ
  Basis Set: (AUG-CC-PVTZ AUX)
    Blend: AUG-CC-PVTZ-JKFIT
	 Reference Energy          =    -338.7647286174650390 [Eh]
	 Singles Energy            =      -0.0000000000000000 [Eh]
	 Same-Spin Energy          =      -0.3532492694000676 [Eh]
	 Opposite-Spin Energy      =      -1.0859362717175054 [Eh]
	 Correlation Energy        =      -1.4391855411175731 [Eh]
	 Total Energy              =    -340.2039141585826201 [Eh]

	 ================> DF-SCS-MP2 Energies <==================
	-----------------------------------------------------------
	 SCS Same-Spin Scale       =       0.3333333333333333 [-]
	 SCS Opposite-Spin Scale   =       1.2000000000000000 [-]
	 SCS Same-Spin Energy      =      -0.1177497564666892 [Eh]
	 SCS Opposite-Spin Energy  =      -1.3031235260610063 [Eh]
	 SCS Correlation Energy    =      -1.4208732825276955 [Eh]
	 SCS Total Energy          =    -340.1856018999927187 [Eh]
	-----------------------------------------------------------

  Dipole Moment: [D]
     X:    -3.1977      Y:     0.9518      Z:     0.0003     Total:     3.3364

*** Psi4 exiting successfully. Buy a developer a beer!
