                               Psi4 1.3.2 release

  ==> Input File <==

--------------------------------------------------------------------------
#psi4
#
memory 32 gb

molecule  {
0 1
  O       -1.4607440    -0.6783760    -0.0000110
  N        0.8364910    -1.0546300    -0.0000300
  N        2.0492790    -0.4487200    -0.0000870
  C       -0.1777785    -0.1879276    -0.0000313
  C        0.3504840     1.0933250    -0.0000620
  C        1.7415550     0.8590090    -0.0000990
  C       -2.4699820     0.3361590     0.0002330
  H       -0.1651650     2.0416990    -0.0000660
  H        0.7745000    -2.0647320    -0.0000170
  H        2.5420040     1.5875080    -0.0001330
  H       -3.4206380    -0.1946080     0.0003100
  H       -2.3886930     0.9604430    -0.8948830
  H       -2.3884390     0.9602630     0.8954520
units angstrom
no_reorient  #important for SAPT in psi4, default
symmetry c1  #important for SAPT in psi4, default
}

set PROPERTIES_ORIGIN ["COM"]
properties('MP2/aug-cc-pvtz', properties = ['dipole'])
--------------------------------------------------------------------------

    Molecular point group: c1
  Charge       = 0
  Multiplicity = 1
  Basis Set: AUG-CC-PVTZ
    Blend: AUG-CC-PVTZ
  Basis Set: (AUG-CC-PVTZ AUX)
    Blend: AUG-CC-PVTZ-JKFIT

    Orbital Energies [Eh]
    ---------------------

    Doubly Occupied:

       1A    -20.609327     2A    -15.632978     3A    -15.580166
       4A    -11.341880     5A    -11.298431     6A    -11.258410
       7A    -11.219885     8A     -1.433092     9A     -1.360792
      10A     -1.096293    11A     -1.049279    12A     -0.958120
      13A     -0.819707    14A     -0.804202    15A     -0.752554
      16A     -0.676561    17A     -0.647048    18A     -0.623564
      19A     -0.603400    20A     -0.602534    21A     -0.580670
      22A     -0.523532    23A     -0.503273    24A     -0.454809
      25A     -0.368523    26A     -0.327601

  @DF-RHF Final Energy:  -338.79956885410348

   => Energetics <=

    Nuclear Repulsion Energy =            295.8176783400830345
    One-Electron Energy =               -1046.9812330397264759
    Two-Electron Energy =                 412.3639858455399576
    Total Energy =                       -338.7995688541034838
  Basis Set: (AUG-CC-PVTZ AUX)
    Blend: AUG-CC-PVTZ-RI
    Molecular point group: c1

    Geometry (in Angstrom), charge = 0, multiplicity = 1:

       Center              X                  Y                   Z               Mass
    ------------   -----------------  -----------------  -----------------  -----------------
         O           -1.514703255993    -0.643913487528    -0.000004291902    15.994914619570
         N            0.782531744007    -1.020167487528    -0.000023291902    14.003074004430
         N            1.995319744007    -0.414257487528    -0.000080291902    14.003074004430
         C           -0.231737755993    -0.153465087528    -0.000024591902    12.000000000000
         C            0.296524744007     1.127787512472    -0.000055291902    12.000000000000
         C            1.687595744007     0.893471512472    -0.000092291902    12.000000000000
         C           -2.523941255993     0.370621512472     0.000239708098    12.000000000000
         H           -0.219124255993     2.076161512472    -0.000059291902     1.007825032230
         H            0.720540744007    -2.030269487528    -0.000010291902     1.007825032230
         H            2.488044744007     1.621970512472    -0.000126291902     1.007825032230
         H           -3.474597255993    -0.160145487528     0.000316708098     1.007825032230
         H           -2.442652255993     0.994905512472    -0.894876291902     1.007825032230
         H           -2.442398255993     0.994725512472     0.895458708098     1.007825032230

  Basis Set: AUG-CC-PVTZ
    Blend: AUG-CC-PVTZ
  Basis Set: (AUG-CC-PVTZ AUX)
    Blend: AUG-CC-PVTZ-JKFIT
	 Reference Energy          =    -338.7995688541034838 [Eh]
	 Singles Energy            =      -0.0000000000000000 [Eh]
	 Same-Spin Energy          =      -0.3530125011621645 [Eh]
	 Opposite-Spin Energy      =      -1.0828721402834611 [Eh]
	 Correlation Energy        =      -1.4358846414456257 [Eh]
	 Total Energy              =    -340.2354534955491090 [Eh]

	 ================> DF-SCS-MP2 Energies <==================
	-----------------------------------------------------------
	 SCS Same-Spin Scale       =       0.3333333333333333 [-]
	 SCS Opposite-Spin Scale   =       1.2000000000000000 [-]
	 SCS Same-Spin Energy      =      -0.1176708337207215 [Eh]
	 SCS Opposite-Spin Energy  =      -1.2994465683401533 [Eh]
	 SCS Correlation Energy    =      -1.4171174020608748 [Eh]
	 SCS Total Energy          =    -340.2166862561643370 [Eh]
	-----------------------------------------------------------

  Dipole Moment: [D]
     X:    -3.0067      Y:     0.6279      Z:     0.0003     Total:     3.0716

*** Psi4 exiting successfully. Buy a developer a beer!
