                               Psi4 1.3.2 release

  ==> Input File <==

--------------------------------------------------------------------------
#psi4
#
memory 32 gb

molecule  {
0 1
  O       -1.4607440    -0.6783760    -0.0000110
  N        0.8364910    -1.0546300    -0.0000300
  N        2.0492790    -0.4487200    -0.0000870
  C       -0.2000590    -0.1785130    -0.0000310
  C        0.3504840     1.0933250    -0.0000620
  C        1.7415550     0.8590090    -0.0000990
  C       -2.4699820     0.3361590     0.0002330
  H       -0.1651650     2.0416990    -0.0000660
  H        0.7745000    -2.0647320    -0.0000170
  H        2.3940913     1.4528907    -0.0001267
  H       -3.4206380    -0.1946080     0.0003100
  H       -2.3886930     0.9604430    -0.8948830
  H       -2.3884390     0.9602630     0.8954520
units angstrom
no_reorient  #important for SAPT in psi4, default
symmetry c1  #important for SAPT in psi4, default
}

set PROPERTIES_ORIGIN ["COM"]
properties('MP2/aug-cc-pvtz', properties = ['dipole'])
--------------------------------------------------------------------------

    Molecular point group: c1
  Charge       = 0
  Multiplicity = 1
  Basis Set: AUG-CC-PVTZ
    Blend: AUG-CC-PVTZ
  Basis Set: (AUG-CC-PVTZ AUX)
    Blend: AUG-CC-PVTZ-JKFIT

    Orbital Energies [Eh]
    ---------------------

    Doubly Occupied:

       1A    -20.611985     2A    -15.629916     3A    -15.580488
       4A    -11.342079     5A    -11.299857     6A    -11.234334
       7A    -11.218968     8A     -1.439389     9A     -1.355667
      10A     -1.096905    11A     -1.048248    12A     -0.961775
      13A     -0.850952    14A     -0.803048    15A     -0.757087
      16A     -0.679045    17A     -0.653474    18A     -0.630631
      19A     -0.613070    20A     -0.599204    21A     -0.588450
      22A     -0.529396    23A     -0.506249    24A     -0.454921
      25A     -0.366208    26A     -0.324992

  @DF-RHF Final Energy:  -338.76325607469460

   => Energetics <=

    Nuclear Repulsion Energy =            296.8650072034316167
    One-Electron Energy =               -1048.9038530006973815
    Two-Electron Energy =                 413.2755897225712260
    Total Energy =                       -338.7632560746945956
  Basis Set: (AUG-CC-PVTZ AUX)
    Blend: AUG-CC-PVTZ-RI
    Molecular point group: c1

    Geometry (in Angstrom), charge = 0, multiplicity = 1:

       Center              X                  Y                   Z               Mass
    ------------   -----------------  -----------------  -----------------  -----------------
         O           -1.510455988663    -0.643682014354    -0.000004393375    15.994914619570
         N            0.786779011337    -1.019936014354    -0.000023393375    14.003074004430
         N            1.999567011337    -0.414026014354    -0.000080393375    14.003074004430
         C           -0.249770988663    -0.143819014354    -0.000024393375    12.000000000000
         C            0.300772011337     1.128018985646    -0.000055393375    12.000000000000
         C            1.691843011337     0.893702985646    -0.000092393375    12.000000000000
         C           -2.519693988663     0.370852985646     0.000239606625    12.000000000000
         H           -0.214876988663     2.076392985646    -0.000059393375     1.007825032230
         H            0.724788011337    -2.030038014354    -0.000010393375     1.007825032230
         H            2.344379311337     1.487584685646    -0.000120093375     1.007825032230
         H           -3.470349988663    -0.159914014354     0.000316606625     1.007825032230
         H           -2.438404988663     0.995136985646    -0.894876393375     1.007825032230
         H           -2.438150988663     0.994956985646     0.895458606625     1.007825032230

  Basis Set: AUG-CC-PVTZ
    Blend: AUG-CC-PVTZ
  Basis Set: (AUG-CC-PVTZ AUX)
    Blend: AUG-CC-PVTZ-JKFIT
	 Reference Energy          =    -338.7632560746945956 [Eh]
	 Singles Energy            =      -0.0000000000000000 [Eh]
	 Same-Spin Energy          =      -0.3531714362042708 [Eh]
	 Opposite-Spin Energy      =      -1.0831207459901466 [Eh]
	 Correlation Energy        =      -1.4362921821944175 [Eh]
	 Total Energy              =    -340.1995482568889884 [Eh]

	 ================> DF-SCS-MP2 Energies <==================
	-----------------------------------------------------------
	 SCS Same-Spin Scale       =       0.3333333333333333 [-]
	 SCS Opposite-Spin Scale   =       1.2000000000000000 [-]
	 SCS Same-Spin Energy      =      -0.1177238120680903 [Eh]
	 SCS Opposite-Spin Energy  =      -1.2997448951881758 [Eh]
	 SCS Correlation Energy    =      -1.4174687072562662 [Eh]
	 SCS Total Energy          =    -340.1807247819508575 [Eh]
	-----------------------------------------------------------

  Dipole Moment: [D]
     X:    -3.1256      Y:     0.6489      Z:     0.0003     Total:     3.1923

*** Psi4 exiting successfully. Buy a developer a beer!
