                               Psi4 1.3.2 release

  ==> Input File <==

--------------------------------------------------------------------------
#psi4
#
memory 32 gb

molecule  {
0 1
  O       -1.4774210    -0.6340742    -0.0000118
  N        0.8364910    -1.0546300    -0.0000300
  N        2.0492790    -0.4487200    -0.0000870
  C       -0.2000590    -0.1785130    -0.0000310
  C        0.3504840     1.0933250    -0.0000620
  C        1.7415550     0.8590090    -0.0000990
  C       -2.4699820     0.3361590     0.0002330
  H       -0.1651650     2.0416990    -0.0000660
  H        0.7745000    -2.0647320    -0.0000170
  H        2.5420040     1.5875080    -0.0001330
  H       -3.4206380    -0.1946080     0.0003100
  H       -2.3886930     0.9604430    -0.8948830
  H       -2.3884390     0.9602630     0.8954520
units angstrom
no_reorient  #important for SAPT in psi4, default
symmetry c1  #important for SAPT in psi4, default
}

set PROPERTIES_ORIGIN ["COM"]
properties('MP2/aug-cc-pvtz', properties = ['dipole'])
--------------------------------------------------------------------------

    Molecular point group: c1
  Charge       = 0
  Multiplicity = 1
  Basis Set: AUG-CC-PVTZ
    Blend: AUG-CC-PVTZ
  Basis Set: (AUG-CC-PVTZ AUX)
    Blend: AUG-CC-PVTZ-JKFIT

    Orbital Energies [Eh]
    ---------------------

    Doubly Occupied:

       1A    -20.610827     2A    -15.633202     3A    -15.582161
       4A    -11.344917     5A    -11.295558     6A    -11.258233
       7A    -11.220079     8A     -1.449180     9A     -1.359810
      10A     -1.093863    11A     -1.051254    12A     -0.961679
      13A     -0.819467    14A     -0.800845    15A     -0.760211
      16A     -0.685874    17A     -0.657558    18A     -0.627388
      19A     -0.601265    20A     -0.601101    21A     -0.580772
      22A     -0.520544    23A     -0.501276    24A     -0.455668
      25A     -0.367530    26A     -0.326699

  @DF-RHF Final Energy:  -338.79987283663547

   => Energetics <=

    Nuclear Repulsion Energy =            296.2833264666448372
    One-Electron Energy =               -1047.8324794552925141
    Two-Electron Energy =                 412.7492801520121475
    Total Energy =                       -338.7998728366354726
  Basis Set: (AUG-CC-PVTZ AUX)
    Blend: AUG-CC-PVTZ-RI
    Molecular point group: c1

    Geometry (in Angstrom), charge = 0, multiplicity = 1:

       Center              X                  Y                   Z               Mass
    ------------   -----------------  -----------------  -----------------  -----------------
         O           -1.525932790249    -0.607991038469    -0.000004998111    15.994914619570
         N            0.787979209751    -1.028546838469    -0.000023198111    14.003074004430
         N            2.000767209751    -0.422636838469    -0.000080198111    14.003074004430
         C           -0.248570790249    -0.152429838469    -0.000024198111    12.000000000000
         C            0.301972209751     1.119408161531    -0.000055198111    12.000000000000
         C            1.693043209751     0.885092161531    -0.000092198111    12.000000000000
         C           -2.518493790249     0.362242161531     0.000239801889    12.000000000000
         H           -0.213676790249     2.067782161531    -0.000059198111     1.007825032230
         H            0.725988209751    -2.038648838469    -0.000010198111     1.007825032230
         H            2.493492209751     1.613591161531    -0.000126198111     1.007825032230
         H           -3.469149790249    -0.168524838469     0.000316801889     1.007825032230
         H           -2.437204790249     0.986526161531    -0.894876198111     1.007825032230
         H           -2.436950790249     0.986346161531     0.895458801889     1.007825032230

  Basis Set: AUG-CC-PVTZ
    Blend: AUG-CC-PVTZ
  Basis Set: (AUG-CC-PVTZ AUX)
    Blend: AUG-CC-PVTZ-JKFIT
	 Reference Energy          =    -338.7998728366354726 [Eh]
	 Singles Energy            =      -0.0000000000000000 [Eh]
	 Same-Spin Energy          =      -0.3530425850103145 [Eh]
	 Opposite-Spin Energy      =      -1.0822058421300564 [Eh]
	 Correlation Energy        =      -1.4352484271403709 [Eh]
	 Total Energy              =    -340.2351212637758522 [Eh]

	 ================> DF-SCS-MP2 Energies <==================
	-----------------------------------------------------------
	 SCS Same-Spin Scale       =       0.3333333333333333 [-]
	 SCS Opposite-Spin Scale   =       1.2000000000000000 [-]
	 SCS Same-Spin Energy      =      -0.1176808616701048 [Eh]
	 SCS Opposite-Spin Energy  =      -1.2986470105560677 [Eh]
	 SCS Correlation Energy    =      -1.4163278722261725 [Eh]
	 SCS Total Energy          =    -340.2162007088616633 [Eh]
	-----------------------------------------------------------

  Dipole Moment: [D]
     X:    -2.9968      Y:     0.5308      Z:     0.0003     Total:     3.0434

*** Psi4 exiting successfully. Buy a developer a beer!
