                               Psi4 1.3.2 release

  ==> Input File <==

--------------------------------------------------------------------------
#psi4
#
memory 32 gb

molecule  {
0 1
  O       -1.4607440    -0.6783760    -0.0000110
  N        0.8364910    -1.0546300    -0.0000300
  N        2.0492790    -0.4487200    -0.0000870
  C       -0.2000590    -0.1785130    -0.0000310
  C        0.3107589     1.0015540    -0.0000598
  C        1.7415550     0.8590090    -0.0000990
  C       -2.4699820     0.3361590     0.0002330
  H       -0.1651650     2.0416990    -0.0000660
  H        0.7745000    -2.0647320    -0.0000170
  H        2.5420040     1.5875080    -0.0001330
  H       -3.4206380    -0.1946080     0.0003100
  H       -2.3886930     0.9604430    -0.8948830
  H       -2.3884390     0.9602630     0.8954520
units angstrom
no_reorient  #important for SAPT in psi4, default
symmetry c1  #important for SAPT in psi4, default
}

set PROPERTIES_ORIGIN ["COM"]
properties('MP2/aug-cc-pvtz', properties = ['dipole'])
--------------------------------------------------------------------------

    Molecular point group: c1
  Charge       = 0
  Multiplicity = 1
  Basis Set: AUG-CC-PVTZ
    Blend: AUG-CC-PVTZ
  Basis Set: (AUG-CC-PVTZ AUX)
    Blend: AUG-CC-PVTZ-JKFIT

    Orbital Energies [Eh]
    ---------------------

    Doubly Occupied:

       1A    -20.607713     2A    -15.623063     3A    -15.587757
       4A    -11.326773     5A    -11.297619     6A    -11.259336
       7A    -11.215941     8A     -1.437580     9A     -1.358575
      10A     -1.089558    11A     -1.063540    12A     -0.960326
      13A     -0.819511    14A     -0.792748    15A     -0.755026
      16A     -0.679223    17A     -0.652325    18A     -0.624418
      19A     -0.601849    20A     -0.589829    21A     -0.572464
      22A     -0.530505    23A     -0.504352    24A     -0.453083
      25A     -0.364249    26A     -0.338479

  @DF-RHF Final Energy:  -338.78738372573218

   => Energetics <=

    Nuclear Repulsion Energy =            297.4196255733651810
    One-Electron Energy =               -1050.2023296606942040
    Two-Electron Energy =                 413.9953203615967823
    Total Energy =                       -338.7873837257321838
  Basis Set: (AUG-CC-PVTZ AUX)
    Blend: AUG-CC-PVTZ-RI
    Molecular point group: c1

    Geometry (in Angstrom), charge = 0, multiplicity = 1:

       Center              X                  Y                   Z               Mass
    ------------   -----------------  -----------------  -----------------  -----------------
         O           -1.507114451503    -0.633833968611    -0.000004597874    15.994914619570
         N            0.790120548497    -1.010087968611    -0.000023597874    14.003074004430
         N            2.002908548497    -0.404177968611    -0.000080597874    14.003074004430
         C           -0.246429451503    -0.133970968611    -0.000024597874    12.000000000000
         C            0.264388448497     1.046096031389    -0.000053397874    12.000000000000
         C            1.695184548497     0.903551031389    -0.000092597874    12.000000000000
         C           -2.516352451503     0.380701031389     0.000239402126    12.000000000000
         H           -0.211535451503     2.086241031389    -0.000059597874     1.007825032230
         H            0.728129548497    -2.020189968611    -0.000010597874     1.007825032230
         H            2.495633548497     1.632050031389    -0.000126597874     1.007825032230
         H           -3.467008451503    -0.150065968611     0.000316402126     1.007825032230
         H           -2.435063451503     1.004985031389    -0.894876597874     1.007825032230
         H           -2.434809451503     1.004805031389     0.895458402126     1.007825032230

  Basis Set: AUG-CC-PVTZ
    Blend: AUG-CC-PVTZ
  Basis Set: (AUG-CC-PVTZ AUX)
    Blend: AUG-CC-PVTZ-JKFIT
	 Reference Energy          =    -338.7873837257321838 [Eh]
	 Singles Energy            =      -0.0000000000000000 [Eh]
	 Same-Spin Energy          =      -0.3526480183906401 [Eh]
	 Opposite-Spin Energy      =      -1.0825797847720060 [Eh]
	 Correlation Energy        =      -1.4352278031626460 [Eh]
	 Total Energy              =    -340.2226115288948449 [Eh]

	 ================> DF-SCS-MP2 Energies <==================
	-----------------------------------------------------------
	 SCS Same-Spin Scale       =       0.3333333333333333 [-]
	 SCS Opposite-Spin Scale   =       1.2000000000000000 [-]
	 SCS Same-Spin Energy      =      -0.1175493394635467 [Eh]
	 SCS Opposite-Spin Energy  =      -1.2990957417264071 [Eh]
	 SCS Correlation Energy    =      -1.4166450811899538 [Eh]
	 SCS Total Energy          =    -340.2040288069221106 [Eh]
	-----------------------------------------------------------

  Dipole Moment: [D]
     X:    -2.9798      Y:     0.7891      Z:     0.0003     Total:     3.0825

*** Psi4 exiting successfully. Buy a developer a beer!
