                               Psi4 1.3.2 release

  ==> Input File <==

--------------------------------------------------------------------------
#psi4
#
memory 32 gb

molecule  {
0 1
  O       -1.4607440    -0.6783760    -0.0000110
  N        0.8364910    -1.0546300    -0.0000300
  N        1.9573068    -0.4670002    -0.0000841
  C       -0.2000590    -0.1785130    -0.0000310
  C        0.3504840     1.0933250    -0.0000620
  C        1.7415550     0.8590090    -0.0000990
  C       -2.4699820     0.3361590     0.0002330
  H       -0.1651650     2.0416990    -0.0000660
  H        0.7745000    -2.0647320    -0.0000170
  H        2.5420040     1.5875080    -0.0001330
  H       -3.4206380    -0.1946080     0.0003100
  H       -2.3886930     0.9604430    -0.8948830
  H       -2.3884390     0.9602630     0.8954520
units angstrom
no_reorient  #important for SAPT in psi4, default
symmetry c1  #important for SAPT in psi4, default
}

set PROPERTIES_ORIGIN ["COM"]
properties('MP2/aug-cc-pvtz', properties = ['dipole'])
--------------------------------------------------------------------------

    Molecular point group: c1
  Charge       = 0
  Multiplicity = 1
  Basis Set: AUG-CC-PVTZ
    Blend: AUG-CC-PVTZ
  Basis Set: (AUG-CC-PVTZ AUX)
    Blend: AUG-CC-PVTZ-JKFIT

    Orbital Energies [Eh]
    ---------------------

    Doubly Occupied:

       1A    -20.606556     2A    -15.638005     3A    -15.573437
       4A    -11.332022     5A    -11.297212     6A    -11.250010
       7A    -11.219727     8A     -1.441497     9A     -1.391502
      10A     -1.087715    11A     -1.055294    12A     -0.956431
      13A     -0.825355    14A     -0.812468    15A     -0.752764
      16A     -0.678928    17A     -0.652935    18A     -0.632756
      19A     -0.615054    20A     -0.597134    21A     -0.585435
      22A     -0.524774    23A     -0.506589    24A     -0.440540
      25A     -0.367403    26A     -0.316276

  @DF-RHF Final Energy:  -338.79446964157319

   => Energetics <=

    Nuclear Repulsion Energy =            298.1150688338178156
    One-Electron Energy =               -1051.5034390884770801
    Two-Electron Energy =                 414.5939006130861344
    Total Energy =                       -338.7944696415731869
  Basis Set: (AUG-CC-PVTZ AUX)
    Blend: AUG-CC-PVTZ-RI
    Molecular point group: c1

    Geometry (in Angstrom), charge = 0, multiplicity = 1:

       Center              X                  Y                   Z               Mass
    ------------   -----------------  -----------------  -----------------  -----------------
         O           -1.498841032189    -0.642454979708    -0.000004742792    15.994914619570
         N            0.798393967811    -1.018708979708    -0.000023742792    14.003074004430
         N            1.919209767811    -0.431079179708    -0.000077842792    14.003074004430
         C           -0.238156032189    -0.142591979708    -0.000024742792    12.000000000000
         C            0.312386967811     1.129246020292    -0.000055742792    12.000000000000
         C            1.703457967811     0.894930020292    -0.000092742792    12.000000000000
         C           -2.508079032189     0.372080020292     0.000239257208    12.000000000000
         H           -0.203262032189     2.077620020292    -0.000059742792     1.007825032230
         H            0.736402967811    -2.028810979708    -0.000010742792     1.007825032230
         H            2.503906967811     1.623429020292    -0.000126742792     1.007825032230
         H           -3.458735032189    -0.158686979708     0.000316257208     1.007825032230
         H           -2.426790032189     0.996364020292    -0.894876742792     1.007825032230
         H           -2.426536032189     0.996184020292     0.895458257208     1.007825032230

  Basis Set: AUG-CC-PVTZ
    Blend: AUG-CC-PVTZ
  Basis Set: (AUG-CC-PVTZ AUX)
    Blend: AUG-CC-PVTZ-JKFIT
	 Reference Energy          =    -338.7944696415731869 [Eh]
	 Singles Energy            =      -0.0000000000000000 [Eh]
	 Same-Spin Energy          =      -0.3537569525883316 [Eh]
	 Opposite-Spin Energy      =      -1.0816385751634829 [Eh]
	 Correlation Energy        =      -1.4353955277518144 [Eh]
	 Total Energy              =    -340.2298651693250235 [Eh]

	 ================> DF-SCS-MP2 Energies <==================
	-----------------------------------------------------------
	 SCS Same-Spin Scale       =       0.3333333333333333 [-]
	 SCS Opposite-Spin Scale   =       1.2000000000000000 [-]
	 SCS Same-Spin Energy      =      -0.1179189841961105 [Eh]
	 SCS Opposite-Spin Energy  =      -1.2979662901961795 [Eh]
	 SCS Correlation Energy    =      -1.4158852743922901 [Eh]
	 SCS Total Energy          =    -340.2103549159654676 [Eh]
	-----------------------------------------------------------

  Dipole Moment: [D]
     X:    -2.9391      Y:     0.5242      Z:     0.0003     Total:     2.9855

*** Psi4 exiting successfully. Buy a developer a beer!
