                               Psi4 1.4a3.dev225

  ==> Input File <==

--------------------------------------------------------------------------
#psi4
#
memory 32 gb

molecule  {
0 1
  O       -1.4607440    -0.6783760    -0.0000110
  N        0.8364910    -1.0546300    -0.0000300
  N        2.0492790    -0.4487200    -0.0000870
  C       -0.2000590    -0.1785130    -0.0000310
  C        0.3504840     1.0933250    -0.0000620
  C        1.7415550     0.8590090    -0.0000990
  C       -2.4699820     0.3361590     0.0002330
  H       -0.1651650     2.0416990    -0.0000660
  H        0.7745000    -2.0647320    -0.0000170
  H        2.5050258     1.5538537    -0.0001314
  H       -3.4206380    -0.1946080     0.0003100
  H       -2.3886930     0.9604430    -0.8948830
  H       -2.3884390     0.9602630     0.8954520
units angstrom
no_reorient  #important for SAPT in psi4, default
symmetry c1  #important for SAPT in psi4, default
}

set PROPERTIES_ORIGIN ["COM"]
properties('MP2/aug-cc-pvtz', properties = ['dipole'])
--------------------------------------------------------------------------

    Molecular point group: c1
  Charge       = 0
  Multiplicity = 1
  Basis Set: AUG-CC-PVTZ
    Blend: AUG-CC-PVTZ
  Basis Set: (AUG-CC-PVTZ AUX)
    Blend: AUG-CC-PVTZ-JKFIT

    Orbital Energies [Eh]
    ---------------------

    Doubly Occupied:

       1A    -20.612387     2A    -15.630213     3A    -15.580609
       4A    -11.342692     5A    -11.300078     6A    -11.251647
       7A    -11.219768     8A     -1.439774     9A     -1.356083
      10A     -1.092193    11A     -1.048355    12A     -0.961466
      13A     -0.823799    14A     -0.801229    15A     -0.755568
      16A     -0.679374    17A     -0.650498    18A     -0.626042
      19A     -0.601404    20A     -0.599628    21A     -0.584258
      22A     -0.528309    23A     -0.506555    24A     -0.454222
      25A     -0.366353    26A     -0.325464

  @DF-RHF Final Energy:  -338.79865251868841

   => Energetics <=

    Nuclear Repulsion Energy =            295.9682758526055295
    One-Electron Energy =               -1047.2579188768204403
    Two-Electron Energy =                 412.4909905055264971
    Total Energy =                       -338.7986525186884137
  Basis Set: (AUG-CC-PVTZ AUX)
    Blend: AUG-CC-PVTZ-RI
    Molecular point group: c1

    Geometry (in Angstrom), charge = 0, multiplicity = 1:

       Center              X                  Y                   Z               Mass
    ------------   -----------------  -----------------  -----------------  -----------------
         O           -1.511596272518    -0.644719802228    -0.000004345064    15.994914619570
         N            0.785638727482    -1.020973802228    -0.000023345064    14.003074004430
         N            1.998426727482    -0.415063802228    -0.000080345064    14.003074004430
         C           -0.250911272518    -0.144856802228    -0.000024345064    12.000000000000
         C            0.299631727482     1.126981197772    -0.000055345064    12.000000000000
         C            1.690702727482     0.892665197772    -0.000092345064    12.000000000000
         C           -2.520834272518     0.369815197772     0.000239654936    12.000000000000
         H           -0.216017272518     2.075355197772    -0.000059345064     1.007825032230
         H            0.723647727482    -2.031075802228    -0.000010345064     1.007825032230
         H            2.454173527482     1.587509897772    -0.000124745064     1.007825032230
         H           -3.471490272518    -0.160951802228     0.000316654936     1.007825032230
         H           -2.439545272518     0.994099197772    -0.894876345064     1.007825032230
         H           -2.439291272518     0.993919197772     0.895458654936     1.007825032230

  Basis Set: AUG-CC-PVTZ
    Blend: AUG-CC-PVTZ
  Basis Set: (AUG-CC-PVTZ AUX)
    Blend: AUG-CC-PVTZ-JKFIT
	 Reference Energy          =    -338.7986525186884137 [Eh]
	 Singles Energy            =      -0.0000000000000000 [Eh]
	 Same-Spin Energy          =      -0.3531853721898267 [Eh]
	 Opposite-Spin Energy      =      -1.0831010174261715 [Eh]
	 Correlation Energy        =      -1.4362863896159981 [Eh]
	 Total Energy              =    -340.2349389083044002 [Eh]

	 ================> DF-SCS-MP2 Energies <==================
	-----------------------------------------------------------
	 SCS Same-Spin Scale       =       0.3333333333333333 [-]
	 SCS Opposite-Spin Scale   =       1.2000000000000000 [-]
	 SCS Same-Spin Energy      =      -0.1177284573966089 [Eh]
	 SCS Opposite-Spin Energy  =      -1.2997212209114057 [Eh]
	 SCS Correlation Energy    =      -1.4174496783080146 [Eh]
	 SCS Total Energy          =    -340.2161021969964168 [Eh]
	-----------------------------------------------------------

  Dipole Moment: [D]
     X:    -3.1236      Y:     0.6511      Z:     0.0003     Total:     3.1907

*** Psi4 exiting successfully. Buy a developer a beer!
