                               Psi4 1.4a3.dev225

  ==> Input File <==

--------------------------------------------------------------------------
#psi4
#
memory 32 gb

molecule  {
0 1
  O       -1.4607440    -0.6783760    -0.0000110
  N        0.8364910    -1.0546300    -0.0000300
  N        2.0492790    -0.4487200    -0.0000870
  C       -0.2000590    -0.1785130    -0.0000310
  C        0.3504840     1.0933250    -0.0000620
  C        1.7415550     0.8590090    -0.0000990
  C       -2.4699820     0.3361590     0.0002330
  H       -0.1747185     2.0592697    -0.0000661
  H        0.7745000    -2.0647320    -0.0000170
  H        2.5420040     1.5875080    -0.0001330
  H       -3.4206380    -0.1946080     0.0003100
  H       -2.3886930     0.9604430    -0.8948830
  H       -2.3884390     0.9602630     0.8954520
units angstrom
no_reorient  #important for SAPT in psi4, default
symmetry c1  #important for SAPT in psi4, default
}

set PROPERTIES_ORIGIN ["COM"]
properties('MP2/aug-cc-pvtz', properties = ['dipole'])
--------------------------------------------------------------------------

    Molecular point group: c1
  Charge       = 0
  Multiplicity = 1
  Basis Set: AUG-CC-PVTZ
    Blend: AUG-CC-PVTZ
  Basis Set: (AUG-CC-PVTZ AUX)
    Blend: AUG-CC-PVTZ-JKFIT

    Orbital Energies [Eh]
    ---------------------

    Doubly Occupied:

       1A    -20.612584     2A    -15.630548     3A    -15.580958
       4A    -11.343135     5A    -11.300120     6A    -11.257564
       7A    -11.222444     8A     -1.439979     9A     -1.356464
      10A     -1.091368    11A     -1.048102    12A     -0.961363
      13A     -0.818006    14A     -0.798412    15A     -0.754816
      16A     -0.679535    17A     -0.648980    18A     -0.625066
      19A     -0.599944    20A     -0.596107    21A     -0.579764
      22A     -0.527368    23A     -0.506713    24A     -0.454008
      25A     -0.366643    26A     -0.325800

  @DF-RHF Final Energy:  -338.79890047034883

   => Energetics <=

    Nuclear Repulsion Energy =            295.6116766541144329
    One-Electron Energy =               -1046.5695715649287649
    Two-Electron Energy =                 412.1589944404654489
    Total Energy =                       -338.7989004703488263
  Basis Set: (AUG-CC-PVTZ AUX)
    Blend: AUG-CC-PVTZ-RI
    Molecular point group: c1

    Geometry (in Angstrom), charge = 0, multiplicity = 1:

       Center              X                  Y                   Z               Mass
    ------------   -----------------  -----------------  -----------------  -----------------
         O           -1.511878168075    -0.645246338521    -0.000004327590    15.994914619570
         N            0.785356831925    -1.021500338521    -0.000023327590    14.003074004430
         N            1.998144831925    -0.415590338521    -0.000080327590    14.003074004430
         C           -0.251193168075    -0.145383338521    -0.000024327590    12.000000000000
         C            0.299349831925     1.126454661479    -0.000055327590    12.000000000000
         C            1.690420831925     0.892138661479    -0.000092327590    12.000000000000
         C           -2.521116168075     0.369288661479     0.000239672410    12.000000000000
         H           -0.225852668075     2.092399361479    -0.000059427590     1.007825032230
         H            0.723365831925    -2.031602338521    -0.000010327590     1.007825032230
         H            2.490869831925     1.620637661479    -0.000126327590     1.007825032230
         H           -3.471772168075    -0.161478338521     0.000316672410     1.007825032230
         H           -2.439827168075     0.993572661479    -0.894876327590     1.007825032230
         H           -2.439573168075     0.993392661479     0.895458672410     1.007825032230

  Basis Set: AUG-CC-PVTZ
    Blend: AUG-CC-PVTZ
  Basis Set: (AUG-CC-PVTZ AUX)
    Blend: AUG-CC-PVTZ-JKFIT
	 Reference Energy          =    -338.7989004703488263 [Eh]
	 Singles Energy            =      -0.0000000000000000 [Eh]
	 Same-Spin Energy          =      -0.3532838402017253 [Eh]
	 Opposite-Spin Energy      =      -1.0834449163942443 [Eh]
	 Correlation Energy        =      -1.4367287565959697 [Eh]
	 Total Energy              =    -340.2356292269448090 [Eh]

	 ================> DF-SCS-MP2 Energies <==================
	-----------------------------------------------------------
	 SCS Same-Spin Scale       =       0.3333333333333333 [-]
	 SCS Opposite-Spin Scale   =       1.2000000000000000 [-]
	 SCS Same-Spin Energy      =      -0.1177612800672417 [Eh]
	 SCS Opposite-Spin Energy  =      -1.3001338996730931 [Eh]
	 SCS Correlation Energy    =      -1.4178951797403350 [Eh]
	 SCS Total Energy          =    -340.2167956500891819 [Eh]
	-----------------------------------------------------------

  Dipole Moment: [D]
     X:    -3.1260      Y:     0.6472      Z:     0.0003     Total:     3.1923

*** Psi4 exiting successfully. Buy a developer a beer!
