                               Psi4 1.3.2 release

  ==> Input File <==

--------------------------------------------------------------------------
#psi4
#
memory 32 gb

molecule  {
0 1
  O       -1.4607440    -0.6783760    -0.0000110
  N        0.8364910    -1.0546300    -0.0000300
  N        2.0596689    -0.4699784    -0.0000865
  C       -0.2000590    -0.1785130    -0.0000310
  C        0.3504840     1.0933250    -0.0000620
  C        1.7415550     0.8590090    -0.0000990
  C       -2.4699820     0.3361590     0.0002330
  H       -0.1651650     2.0416990    -0.0000660
  H        0.7745000    -2.0647320    -0.0000170
  H        2.5420040     1.5875080    -0.0001330
  H       -3.4206380    -0.1946080     0.0003100
  H       -2.3886930     0.9604430    -0.8948830
  H       -2.3884390     0.9602630     0.8954520
units angstrom
no_reorient  #important for SAPT in psi4, default
symmetry c1  #important for SAPT in psi4, default
}

set PROPERTIES_ORIGIN ["COM"]
properties('MP2/aug-cc-pvtz', properties = ['dipole'])
--------------------------------------------------------------------------

    Molecular point group: c1
  Charge       = 0
  Multiplicity = 1
  Basis Set: AUG-CC-PVTZ
    Blend: AUG-CC-PVTZ
  Basis Set: (AUG-CC-PVTZ AUX)
    Blend: AUG-CC-PVTZ-JKFIT

    Orbital Energies [Eh]
    ---------------------

    Doubly Occupied:

       1A    -20.613005     2A    -15.631431     3A    -15.583432
       4A    -11.343613     5A    -11.300705     6A    -11.260275
       7A    -11.222075     8A     -1.440255     9A     -1.353922
      10A     -1.085696    11A     -1.050829    12A     -0.961272
      13A     -0.818374    14A     -0.800015    15A     -0.754756
      16A     -0.679900    17A     -0.650142    18A     -0.623779
      19A     -0.598826    20A     -0.598167    21A     -0.578041
      22A     -0.527804    23A     -0.506548    24A     -0.457099
      25A     -0.365705    26A     -0.324166

  @DF-RHF Final Energy:  -338.79652271333208

   => Energetics <=

    Nuclear Repulsion Energy =            295.2244376506095023
    One-Electron Energy =               -1045.7822568042890907
    Two-Electron Energy =                 411.7612964403475075
    Total Energy =                       -338.7965227133320809
  Basis Set: (AUG-CC-PVTZ AUX)
    Blend: AUG-CC-PVTZ-RI
    Molecular point group: c1

    Geometry (in Angstrom), charge = 0, multiplicity = 1:

       Center              X                  Y                   Z               Mass
    ------------   -----------------  -----------------  -----------------  -----------------
         O           -1.513460237824    -0.642029637533    -0.000004400028    15.994914619570
         N            0.783774762176    -1.018283637533    -0.000023400028    14.003074004430
         N            2.006952662176    -0.433632037533    -0.000079900028    14.003074004430
         C           -0.252775237824    -0.142166637533    -0.000024400028    12.000000000000
         C            0.297767762176     1.129671362467    -0.000055400028    12.000000000000
         C            1.688838762176     0.895355362467    -0.000092400028    12.000000000000
         C           -2.522698237824     0.372505362467     0.000239599972    12.000000000000
         H           -0.217881237824     2.078045362467    -0.000059400028     1.007825032230
         H            0.721783762176    -2.028385637533    -0.000010400028     1.007825032230
         H            2.489287762176     1.623854362467    -0.000126400028     1.007825032230
         H           -3.473354237824    -0.158261637533     0.000316599972     1.007825032230
         H           -2.441409237824     0.996789362467    -0.894876400028     1.007825032230
         H           -2.441155237824     0.996609362467     0.895458599972     1.007825032230

  Basis Set: AUG-CC-PVTZ
    Blend: AUG-CC-PVTZ
  Basis Set: (AUG-CC-PVTZ AUX)
    Blend: AUG-CC-PVTZ-JKFIT
	 Reference Energy          =    -338.7965227133320809 [Eh]
	 Singles Energy            =      -0.0000000000000000 [Eh]
	 Same-Spin Energy          =      -0.3539006789130897 [Eh]
	 Opposite-Spin Energy      =      -1.0847319754603897 [Eh]
	 Correlation Energy        =      -1.4386326543734793 [Eh]
	 Total Energy              =    -340.2351553677055449 [Eh]

	 ================> DF-SCS-MP2 Energies <==================
	-----------------------------------------------------------
	 SCS Same-Spin Scale       =       0.3333333333333333 [-]
	 SCS Opposite-Spin Scale   =       1.2000000000000000 [-]
	 SCS Same-Spin Energy      =      -0.1179668929710299 [Eh]
	 SCS Opposite-Spin Energy  =      -1.3016783705524675 [Eh]
	 SCS Correlation Energy    =      -1.4196452635234973 [Eh]
	 SCS Total Energy          =    -340.2161679768555587 [Eh]
	-----------------------------------------------------------

  Dipole Moment: [D]
     X:    -3.1756      Y:     0.6705      Z:     0.0003     Total:     3.2456

*** Psi4 exiting successfully. Buy a developer a beer!
