                               Psi4 1.3.2 release

  ==> Input File <==

--------------------------------------------------------------------------
#psi4
#
memory 32 gb

molecule  {
0 1
  O       -1.4607440    -0.6783760    -0.0000110
  N        0.7728512    -1.1248019    -0.0000278
  N        2.0492790    -0.4487200    -0.0000870
  C       -0.2000590    -0.1785130    -0.0000310
  C        0.3504840     1.0933250    -0.0000620
  C        1.7415550     0.8590090    -0.0000990
  C       -2.4699820     0.3361590     0.0002330
  H       -0.1651650     2.0416990    -0.0000660
  H        0.7745000    -2.0647320    -0.0000170
  H        2.5420040     1.5875080    -0.0001330
  H       -3.4206380    -0.1946080     0.0003100
  H       -2.3886930     0.9604430    -0.8948830
  H       -2.3884390     0.9602630     0.8954520
units angstrom
no_reorient  #important for SAPT in psi4, default
symmetry c1  #important for SAPT in psi4, default
}

set PROPERTIES_ORIGIN ["COM"]
properties('MP2/aug-cc-pvtz', properties = ['dipole'])
--------------------------------------------------------------------------

    Molecular point group: c1
  Charge       = 0
  Multiplicity = 1
  Basis Set: AUG-CC-PVTZ
    Blend: AUG-CC-PVTZ
  Basis Set: (AUG-CC-PVTZ AUX)
    Blend: AUG-CC-PVTZ-JKFIT

    Orbital Energies [Eh]
    ---------------------

    Doubly Occupied:

       1A    -20.611778     2A    -15.619305     3A    -15.583224
       4A    -11.351419     5A    -11.299128     6A    -11.266529
       7A    -11.221867     8A     -1.440145     9A     -1.326791
      10A     -1.104401    11A     -1.040630    12A     -0.962004
      13A     -0.835362    14A     -0.791959    15A     -0.754444
      16A     -0.678403    17A     -0.651895    18A     -0.621056
      19A     -0.608392    20A     -0.587894    21A     -0.577916
      22A     -0.528747    23A     -0.502161    24A     -0.446689
      25A     -0.375233    26A     -0.326672

  @DF-RHF Final Energy:  -338.78720312991408

   => Energetics <=

    Nuclear Repulsion Energy =            294.4325976531379752
    One-Electron Energy =               -1044.2115137968071394
    Two-Electron Energy =                 410.9917130137551453
    Total Energy =                       -338.7872031299140758
  Basis Set: (AUG-CC-PVTZ AUX)
    Blend: AUG-CC-PVTZ-RI
    Molecular point group: c1

    Geometry (in Angstrom), charge = 0, multiplicity = 1:

       Center              X                  Y                   Z               Mass
    ------------   -----------------  -----------------  -----------------  -----------------
         O           -1.502887424181    -0.635043882895    -0.000004642819    15.994914619570
         N            0.730707775819    -1.081469782895    -0.000021442819    14.003074004430
         N            2.007135575819    -0.405387882895    -0.000080642819    14.003074004430
         C           -0.242202424181    -0.135180882895    -0.000024642819    12.000000000000
         C            0.308340575819     1.136657117105    -0.000055642819    12.000000000000
         C            1.699411575819     0.902341117105    -0.000092642819    12.000000000000
         C           -2.512125424181     0.379491117105     0.000239357181    12.000000000000
         H           -0.207308424181     2.085031117105    -0.000059642819     1.007825032230
         H            0.732356575819    -2.021399882895    -0.000010642819     1.007825032230
         H            2.499860575819     1.630840117105    -0.000126642819     1.007825032230
         H           -3.462781424181    -0.151275882895     0.000316357181     1.007825032230
         H           -2.430836424181     1.003775117105    -0.894876642819     1.007825032230
         H           -2.430582424181     1.003595117105     0.895458357181     1.007825032230

  Basis Set: AUG-CC-PVTZ
    Blend: AUG-CC-PVTZ
  Basis Set: (AUG-CC-PVTZ AUX)
    Blend: AUG-CC-PVTZ-JKFIT
	 Reference Energy          =    -338.7872031299140758 [Eh]
	 Singles Energy            =      -0.0000000000000000 [Eh]
	 Same-Spin Energy          =      -0.3521966644923460 [Eh]
	 Opposite-Spin Energy      =      -1.0840732401319615 [Eh]
	 Correlation Energy        =      -1.4362699046243075 [Eh]
	 Total Energy              =    -340.2234730345383582 [Eh]

	 ================> DF-SCS-MP2 Energies <==================
	-----------------------------------------------------------
	 SCS Same-Spin Scale       =       0.3333333333333333 [-]
	 SCS Opposite-Spin Scale   =       1.2000000000000000 [-]
	 SCS Same-Spin Energy      =      -0.1173988881641153 [Eh]
	 SCS Opposite-Spin Energy  =      -1.3008878881583537 [Eh]
	 SCS Correlation Energy    =      -1.4182867763224689 [Eh]
	 SCS Total Energy          =    -340.2054899062365507 [Eh]
	-----------------------------------------------------------

  Dipole Moment: [D]
     X:    -3.0542      Y:     0.8738      Z:     0.0003     Total:     3.1767

*** Psi4 exiting successfully. Buy a developer a beer!
