                               Psi4 1.3.2 release

  ==> Input File <==

--------------------------------------------------------------------------
#psi4
#
memory 32 gb

molecule  {
0 1
  O       -1.4607440    -0.6783760    -0.0000110
  N        0.8364910    -1.0546300    -0.0000300
  N        2.1397520    -0.4240687    -0.0000900
  C       -0.2000590    -0.1785130    -0.0000310
  C        0.3504840     1.0933250    -0.0000620
  C        1.7415550     0.8590090    -0.0000990
  C       -2.4699820     0.3361590     0.0002330
  H       -0.1651650     2.0416990    -0.0000660
  H        0.7745000    -2.0647320    -0.0000170
  H        2.5420040     1.5875080    -0.0001330
  H       -3.4206380    -0.1946080     0.0003100
  H       -2.3886930     0.9604430    -0.8948830
  H       -2.3884390     0.9602630     0.8954520
units angstrom
no_reorient  #important for SAPT in psi4, default
symmetry c1  #important for SAPT in psi4, default
}

set PROPERTIES_ORIGIN ["COM"]
properties('MP2/aug-cc-pvtz', properties = ['dipole'])
--------------------------------------------------------------------------

    Molecular point group: c1
  Charge       = 0
  Multiplicity = 1
  Basis Set: AUG-CC-PVTZ
    Blend: AUG-CC-PVTZ
  Basis Set: (AUG-CC-PVTZ AUX)
    Blend: AUG-CC-PVTZ-JKFIT

    Orbital Energies [Eh]
    ---------------------

    Doubly Occupied:

       1A    -20.617492     2A    -15.622366     3A    -15.589450
       4A    -11.351944     5A    -11.302529     6A    -11.264710
       7A    -11.220706     8A     -1.442293     9A     -1.325586
      10A     -1.096956    11A     -1.041849    12A     -0.965746
      13A     -0.814921    14A     -0.787878    15A     -0.755977
      16A     -0.680907    17A     -0.651079    18A     -0.620715
      19A     -0.596521    20A     -0.588364    21A     -0.568493
      22A     -0.529374    23A     -0.505898    24A     -0.465154
      25A     -0.368841    26A     -0.331547

  @DF-RHF Final Energy:  -338.78985142660974

   => Energetics <=

    Nuclear Repulsion Energy =            293.5355398987693434
    One-Electron Energy =               -1042.4361935162412465
    Two-Electron Energy =                 410.1108021908621595
    Total Energy =                       -338.7898514266097436
  Basis Set: (AUG-CC-PVTZ AUX)
    Blend: AUG-CC-PVTZ-RI
    Molecular point group: c1

    Geometry (in Angstrom), charge = 0, multiplicity = 1:

       Center              X                  Y                   Z               Mass
    ------------   -----------------  -----------------  -----------------  -----------------
         O           -1.524897589215    -0.648586393842    -0.000003900163    15.994914619570
         N            0.772337410785    -1.024840393842    -0.000022900163    14.003074004430
         N            2.075598410785    -0.394279093842    -0.000082900163    14.003074004430
         C           -0.264212589215    -0.148723393842    -0.000023900163    12.000000000000
         C            0.286330410785     1.123114606158    -0.000054900163    12.000000000000
         C            1.677401410785     0.888798606158    -0.000091900163    12.000000000000
         C           -2.534135589215     0.365948606158     0.000240099837    12.000000000000
         H           -0.229318589215     2.071488606158    -0.000058900163     1.007825032230
         H            0.710346410785    -2.034942393842    -0.000009900163     1.007825032230
         H            2.477850410785     1.617297606158    -0.000125900163     1.007825032230
         H           -3.484791589215    -0.164818393842     0.000317099837     1.007825032230
         H           -2.452846589215     0.990232606158    -0.894875900163     1.007825032230
         H           -2.452592589215     0.990052606158     0.895459099837     1.007825032230

  Basis Set: AUG-CC-PVTZ
    Blend: AUG-CC-PVTZ
  Basis Set: (AUG-CC-PVTZ AUX)
    Blend: AUG-CC-PVTZ-JKFIT
	 Reference Energy          =    -338.7898514266097436 [Eh]
	 Singles Energy            =      -0.0000000000000000 [Eh]
	 Same-Spin Energy          =      -0.3529139424113400 [Eh]
	 Opposite-Spin Energy      =      -1.0853734169830438 [Eh]
	 Correlation Energy        =      -1.4382873593943839 [Eh]
	 Total Energy              =    -340.2281387860041377 [Eh]

	 ================> DF-SCS-MP2 Energies <==================
	-----------------------------------------------------------
	 SCS Same-Spin Scale       =       0.3333333333333333 [-]
	 SCS Opposite-Spin Scale   =       1.2000000000000000 [-]
	 SCS Same-Spin Energy      =      -0.1176379808037800 [Eh]
	 SCS Opposite-Spin Energy  =      -1.3024481003796524 [Eh]
	 SCS Correlation Energy    =      -1.4200860811834324 [Eh]
	 SCS Total Energy          =    -340.2099375077931995 [Eh]
	-----------------------------------------------------------

  Dipole Moment: [D]
     X:    -3.2562      Y:     0.7449      Z:     0.0003     Total:     3.3403

*** Psi4 exiting successfully. Buy a developer a beer!
