                               Psi4 1.3.2 release

  ==> Input File <==

--------------------------------------------------------------------------
#psi4
#
memory 32 gb

molecule  {
0 1
  O       -1.4607440    -0.6783760    -0.0000110
  N        0.8364910    -1.0546300    -0.0000300
  N        2.0492790    -0.4487200    -0.0000870
  C       -0.2930184    -0.2153715    -0.0000295
  C        0.3504840     1.0933250    -0.0000620
  C        1.7415550     0.8590090    -0.0000990
  C       -2.4699820     0.3361590     0.0002330
  H       -0.1651650     2.0416990    -0.0000660
  H        0.7745000    -2.0647320    -0.0000170
  H        2.5420040     1.5875080    -0.0001330
  H       -3.4206380    -0.1946080     0.0003100
  H       -2.3886930     0.9604430    -0.8948830
  H       -2.3884390     0.9602630     0.8954520
units angstrom
no_reorient  #important for SAPT in psi4, default
symmetry c1  #important for SAPT in psi4, default
}

set PROPERTIES_ORIGIN ["COM"]
properties('MP2/aug-cc-pvtz', properties = ['dipole'])
--------------------------------------------------------------------------

    Molecular point group: c1
  Charge       = 0
  Multiplicity = 1
  Basis Set: AUG-CC-PVTZ
    Blend: AUG-CC-PVTZ
  Basis Set: (AUG-CC-PVTZ AUX)
    Blend: AUG-CC-PVTZ-JKFIT

    Orbital Energies [Eh]
    ---------------------

    Doubly Occupied:

       1A    -20.630476     2A    -15.624097     3A    -15.574571
       4A    -11.353557     5A    -11.312694     6A    -11.252262
       7A    -11.220016     8A     -1.493602     9A     -1.340963
      10A     -1.083718    11A     -1.031009    12A     -0.980535
      13A     -0.815536    14A     -0.791173    15A     -0.767557
      16A     -0.702980    17A     -0.669924    18A     -0.627155
      19A     -0.590919    20A     -0.584808    21A     -0.581211
      22A     -0.527841    23A     -0.525689    24A     -0.445718
      25A     -0.358021    26A     -0.306683

  @DF-RHF Final Energy:  -338.78260282658073

   => Energetics <=

    Nuclear Repulsion Energy =            295.5146557293400633
    One-Electron Energy =               -1046.2090918898268228
    Two-Electron Energy =                 411.9118333339059745
    Total Energy =                       -338.7826028265807281
  Basis Set: (AUG-CC-PVTZ AUX)
    Blend: AUG-CC-PVTZ-RI
    Molecular point group: c1

    Geometry (in Angstrom), charge = 0, multiplicity = 1:

       Center              X                  Y                   Z               Mass
    ------------   -----------------  -----------------  -----------------  -----------------
         O           -1.500599157805    -0.640554655558    -0.000004512202    15.994914619570
         N            0.796635842195    -1.016808655558    -0.000023512202    14.003074004430
         N            2.009423842195    -0.410898655558    -0.000080512202    14.003074004430
         C           -0.332873557805    -0.177550155558    -0.000023012202    12.000000000000
         C            0.310628842195     1.131146344442    -0.000055512202    12.000000000000
         C            1.701699842195     0.896830344442    -0.000092512202    12.000000000000
         C           -2.509837157805     0.373980344442     0.000239487798    12.000000000000
         H           -0.205020157805     2.079520344442    -0.000059512202     1.007825032230
         H            0.734644842195    -2.026910655558    -0.000010512202     1.007825032230
         H            2.502148842195     1.625329344442    -0.000126512202     1.007825032230
         H           -3.460493157805    -0.156786655558     0.000316487798     1.007825032230
         H           -2.428548157805     0.998264344442    -0.894876512202     1.007825032230
         H           -2.428294157805     0.998084344442     0.895458487798     1.007825032230

  Basis Set: AUG-CC-PVTZ
    Blend: AUG-CC-PVTZ
  Basis Set: (AUG-CC-PVTZ AUX)
    Blend: AUG-CC-PVTZ-JKFIT
	 Reference Energy          =    -338.7826028265807281 [Eh]
	 Singles Energy            =      -0.0000000000000000 [Eh]
	 Same-Spin Energy          =      -0.3542056037092480 [Eh]
	 Opposite-Spin Energy      =      -1.0841360233026349 [Eh]
	 Correlation Energy        =      -1.4383416270118830 [Eh]
	 Total Energy              =    -340.2209444535926082 [Eh]

	 ================> DF-SCS-MP2 Energies <==================
	-----------------------------------------------------------
	 SCS Same-Spin Scale       =       0.3333333333333333 [-]
	 SCS Opposite-Spin Scale   =       1.2000000000000000 [-]
	 SCS Same-Spin Energy      =      -0.1180685345697493 [Eh]
	 SCS Opposite-Spin Energy  =      -1.3009632279631618 [Eh]
	 SCS Correlation Energy    =      -1.4190317625329112 [Eh]
	 SCS Total Energy          =    -340.2016345891136666 [Eh]
	-----------------------------------------------------------

  Dipole Moment: [D]
     X:    -3.8585      Y:     0.4878      Z:     0.0004     Total:     3.8892

*** Psi4 exiting successfully. Buy a developer a beer!
