                               Psi4 1.4a3.dev225

  ==> Input File <==

--------------------------------------------------------------------------
#psi4
#
memory 32 gb

molecule  {
0 1
  O       -1.4607440    -0.6783760    -0.0000110
  N        0.8364910    -1.0546300    -0.0000300
  N        2.0492790    -0.4487200    -0.0000870
  C       -0.1618722    -0.2107894    -0.0000310
  C        0.3504840     1.0933250    -0.0000620
  C        1.7415550     0.8590090    -0.0000990
  C       -2.4699820     0.3361590     0.0002330
  H       -0.1651650     2.0416990    -0.0000660
  H        0.7745000    -2.0647320    -0.0000170
  H        2.5420040     1.5875080    -0.0001330
  H       -3.4206380    -0.1946080     0.0003100
  H       -2.3886930     0.9604430    -0.8948830
  H       -2.3884390     0.9602630     0.8954520
units angstrom
no_reorient  #important for SAPT in psi4, default
symmetry c1  #important for SAPT in psi4, default
}

set PROPERTIES_ORIGIN ["COM"]
properties('MP2/aug-cc-pvtz', properties = ['dipole'])
--------------------------------------------------------------------------

    Molecular point group: c1
  Charge       = 0
  Multiplicity = 1
  Basis Set: AUG-CC-PVTZ
    Blend: AUG-CC-PVTZ
  Basis Set: (AUG-CC-PVTZ AUX)
    Blend: AUG-CC-PVTZ-JKFIT

    Orbital Energies [Eh]
    ---------------------

    Doubly Occupied:

       1A    -20.607587     2A    -15.635994     3A    -15.578025
       4A    -11.342150     5A    -11.298016     6A    -11.258951
       7A    -11.219583     8A     -1.431373     9A     -1.365393
      10A     -1.102869    11A     -1.046226    12A     -0.956938
      13A     -0.821406    14A     -0.808138    15A     -0.751978
      16A     -0.675913    17A     -0.645276    18A     -0.621024
      19A     -0.607005    20A     -0.606768    21A     -0.580525
      22A     -0.519060    23A     -0.501783    24A     -0.454701
      25A     -0.370489    26A     -0.326405

  @DF-RHF Final Energy:  -338.79813822280749

   => Energetics <=

    Nuclear Repulsion Energy =            295.9204892380649881
    One-Electron Energy =               -1047.1701013633685307
    Two-Electron Energy =                 412.4514739024960477
    Total Energy =                       -338.7981382228074949
  Basis Set: (AUG-CC-PVTZ AUX)
    Blend: AUG-CC-PVTZ-RI
    Molecular point group: c1

    Geometry (in Angstrom), charge = 0, multiplicity = 1:

       Center              X                  Y                   Z               Mass
    ------------   -----------------  -----------------  -----------------  -----------------
         O           -1.516650012429    -0.641115454278    -0.000004328618    15.994914619570
         N            0.780584987571    -1.017369454278    -0.000023328618    14.003074004430
         N            1.993372987571    -0.411459454278    -0.000080328618    14.003074004430
         C           -0.217778212429    -0.173528854278    -0.000024328618    12.000000000000
         C            0.294577987571     1.130585545722    -0.000055328618    12.000000000000
         C            1.685648987571     0.896269545722    -0.000092328618    12.000000000000
         C           -2.525888012429     0.373419545722     0.000239671382    12.000000000000
         H           -0.221071012429     2.078959545722    -0.000059328618     1.007825032230
         H            0.718593987571    -2.027471454278    -0.000010328618     1.007825032230
         H            2.486097987571     1.624768545722    -0.000126328618     1.007825032230
         H           -3.476544012429    -0.157347454278     0.000316671382     1.007825032230
         H           -2.444599012429     0.997703545722    -0.894876328618     1.007825032230
         H           -2.444345012429     0.997523545722     0.895458671382     1.007825032230

  Basis Set: AUG-CC-PVTZ
    Blend: AUG-CC-PVTZ
  Basis Set: (AUG-CC-PVTZ AUX)
    Blend: AUG-CC-PVTZ-JKFIT
	 Reference Energy          =    -338.7981382228074949 [Eh]
	 Singles Energy            =      -0.0000000000000000 [Eh]
	 Same-Spin Energy          =      -0.3527714246638780 [Eh]
	 Opposite-Spin Energy      =      -1.0822050263175498 [Eh]
	 Correlation Energy        =      -1.4349764509814278 [Eh]
	 Total Energy              =    -340.2331146737889185 [Eh]

	 ================> DF-SCS-MP2 Energies <==================
	-----------------------------------------------------------
	 SCS Same-Spin Scale       =       0.3333333333333333 [-]
	 SCS Opposite-Spin Scale   =       1.2000000000000000 [-]
	 SCS Same-Spin Energy      =      -0.1175904748879593 [Eh]
	 SCS Opposite-Spin Energy  =      -1.2986460315810597 [Eh]
	 SCS Correlation Energy    =      -1.4162365064690190 [Eh]
	 SCS Total Energy          =    -340.2143747292765283 [Eh]
	-----------------------------------------------------------

  Dipole Moment: [D]
     X:    -2.9563      Y:     0.5648      Z:     0.0003     Total:     3.0098

*** Psi4 exiting successfully. Buy a developer a beer!
