                               Psi4 1.4a3.dev225

  ==> Input File <==

--------------------------------------------------------------------------
#psi4
#
memory 32 gb

molecule  {
0 1
  O       -1.4607440    -0.6783760    -0.0000110
  N        0.8364910    -1.0546300    -0.0000300
  N        2.0492790    -0.4487200    -0.0000870
  C       -0.2000590    -0.1785130    -0.0000310
  C        0.3425390     1.0749708    -0.0000616
  C        1.7415550     0.8590090    -0.0000990
  C       -2.4699820     0.3361590     0.0002330
  H       -0.1651650     2.0416990    -0.0000660
  H        0.7745000    -2.0647320    -0.0000170
  H        2.5420040     1.5875080    -0.0001330
  H       -3.4206380    -0.1946080     0.0003100
  H       -2.3886930     0.9604430    -0.8948830
  H       -2.3884390     0.9602630     0.8954520
units angstrom
no_reorient  #important for SAPT in psi4, default
symmetry c1  #important for SAPT in psi4, default
}

set PROPERTIES_ORIGIN ["COM"]
properties('MP2/aug-cc-pvtz', properties = ['dipole'])
--------------------------------------------------------------------------

    Molecular point group: c1
  Charge       = 0
  Multiplicity = 1
  Basis Set: AUG-CC-PVTZ
    Blend: AUG-CC-PVTZ
  Basis Set: (AUG-CC-PVTZ AUX)
    Blend: AUG-CC-PVTZ-JKFIT

    Orbital Energies [Eh]
    ---------------------

    Doubly Occupied:

       1A    -20.611651     2A    -15.628975     3A    -15.582176
       4A    -11.339983     5A    -11.299703     6A    -11.257665
       7A    -11.219327     8A     -1.439473     9A     -1.356741
      10A     -1.090843    11A     -1.051226    12A     -0.961288
      13A     -0.817968    14A     -0.798920    15A     -0.754927
      16A     -0.679425    17A     -0.650009    18A     -0.625070
      19A     -0.600205    20A     -0.594629    21A     -0.581363
      22A     -0.528645    23A     -0.506253    24A     -0.453899
      25A     -0.365795    26A     -0.328225

  @DF-RHF Final Energy:  -338.79950992401473

   => Energetics <=

    Nuclear Repulsion Energy =            296.0392818336827077
    One-Electron Energy =               -1047.4288143259182107
    Two-Electron Energy =                 412.5900225682207747
    Total Energy =                       -338.7995099240147283
  Basis Set: (AUG-CC-PVTZ AUX)
    Blend: AUG-CC-PVTZ-RI
    Molecular point group: c1

    Geometry (in Angstrom), charge = 0, multiplicity = 1:

       Center              X                  Y                   Z               Mass
    ------------   -----------------  -----------------  -----------------  -----------------
         O           -1.511003986732    -0.642819378663    -0.000004377574    15.994914619570
         N            0.786231013268    -1.019073378663    -0.000023377574    14.003074004430
         N            1.999019013268    -0.413163378663    -0.000080377574    14.003074004430
         C           -0.250318986732    -0.142956378663    -0.000024377574    12.000000000000
         C            0.292279013268     1.110527421337    -0.000054977574    12.000000000000
         C            1.691295013268     0.894565621337    -0.000092377574    12.000000000000
         C           -2.520241986732     0.371715621337     0.000239622426    12.000000000000
         H           -0.215424986732     2.077255621337    -0.000059377574     1.007825032230
         H            0.724240013268    -2.029175378663    -0.000010377574     1.007825032230
         H            2.491744013268     1.623064621337    -0.000126377574     1.007825032230
         H           -3.470897986732    -0.159051378663     0.000316622426     1.007825032230
         H           -2.438952986732     0.995999621337    -0.894876377574     1.007825032230
         H           -2.438698986732     0.995819621337     0.895458622426     1.007825032230

  Basis Set: AUG-CC-PVTZ
    Blend: AUG-CC-PVTZ
  Basis Set: (AUG-CC-PVTZ AUX)
    Blend: AUG-CC-PVTZ-JKFIT
	 Reference Energy          =    -338.7995099240147283 [Eh]
	 Singles Energy            =      -0.0000000000000000 [Eh]
	 Same-Spin Energy          =      -0.3531173059588203 [Eh]
	 Opposite-Spin Energy      =      -1.0831219370681220 [Eh]
	 Correlation Energy        =      -1.4362392430269422 [Eh]
	 Total Energy              =    -340.2357491670416607 [Eh]

	 ================> DF-SCS-MP2 Energies <==================
	-----------------------------------------------------------
	 SCS Same-Spin Scale       =       0.3333333333333333 [-]
	 SCS Opposite-Spin Scale   =       1.2000000000000000 [-]
	 SCS Same-Spin Energy      =      -0.1177057686529401 [Eh]
	 SCS Opposite-Spin Energy  =      -1.2997463244817464 [Eh]
	 SCS Correlation Energy    =      -1.4174520931346866 [Eh]
	 SCS Total Energy          =    -340.2169620171493989 [Eh]
	-----------------------------------------------------------

  Dipole Moment: [D]
     X:    -3.1016      Y:     0.6742      Z:     0.0003     Total:     3.1740

*** Psi4 exiting successfully. Buy a developer a beer!
