                               Psi4 1.3.2 release

  ==> Input File <==

--------------------------------------------------------------------------
#psi4
#
memory 32 gb

molecule  {
0 1
  O       -1.4607440    -0.6783760    -0.0000110
  N        0.8364910    -1.0546300    -0.0000300
  N        2.0492790    -0.4487200    -0.0000870
  C       -0.2000590    -0.1785130    -0.0000310
  C        0.4299342     1.2768670    -0.0000665
  C        1.7415550     0.8590090    -0.0000990
  C       -2.4699820     0.3361590     0.0002330
  H       -0.1651650     2.0416990    -0.0000660
  H        0.7745000    -2.0647320    -0.0000170
  H        2.5420040     1.5875080    -0.0001330
  H       -3.4206380    -0.1946080     0.0003100
  H       -2.3886930     0.9604430    -0.8948830
  H       -2.3884390     0.9602630     0.8954520
units angstrom
no_reorient  #important for SAPT in psi4, default
symmetry c1  #important for SAPT in psi4, default
}

set PROPERTIES_ORIGIN ["COM"]
properties('MP2/aug-cc-pvtz', properties = ['dipole'])
--------------------------------------------------------------------------

    Molecular point group: c1
  Charge       = 0
  Multiplicity = 1
  Basis Set: AUG-CC-PVTZ
    Blend: AUG-CC-PVTZ
  Basis Set: (AUG-CC-PVTZ AUX)
    Blend: AUG-CC-PVTZ-JKFIT

    Orbital Energies [Eh]
    ---------------------

    Doubly Occupied:

       1A    -20.620112     2A    -15.642941     3A    -15.569113
       4A    -11.364909     5A    -11.304092     6A    -11.258711
       7A    -11.230342     8A     -1.444329     9A     -1.353364
      10A     -1.095473    11A     -1.030862    12A     -0.963181
      13A     -0.829736    14A     -0.803075    15A     -0.755740
      16A     -0.680848    17A     -0.671161    18A     -0.638548
      19A     -0.604378    20A     -0.597319    21A     -0.567963
      22A     -0.510596    23A     -0.502591    24A     -0.452890
      25A     -0.376524    26A     -0.305950

  @DF-RHF Final Energy:  -338.75335170262491

   => Energetics <=

    Nuclear Repulsion Energy =            292.6171911311848248
    One-Electron Energy =               -1040.3915862423573344
    Two-Electron Energy =                 409.0210434085475413
    Total Energy =                       -338.7533517026249115
  Basis Set: (AUG-CC-PVTZ AUX)
    Blend: AUG-CC-PVTZ-RI
    Molecular point group: c1

    Geometry (in Angstrom), charge = 0, multiplicity = 1:

       Center              X                  Y                   Z               Mass
    ------------   -----------------  -----------------  -----------------  -----------------
         O           -1.521700199432    -0.667529256306    -0.000003777868    15.994914619570
         N            0.775534800568    -1.043783256306    -0.000022777868    14.003074004430
         N            1.988322800568    -0.437873256306    -0.000079777868    14.003074004430
         C           -0.261015199432    -0.167666256306    -0.000023777868    12.000000000000
         C            0.368978000568     1.287713743694    -0.000059277868    12.000000000000
         C            1.680598800568     0.869855743694    -0.000091777868    12.000000000000
         C           -2.530938199432     0.347005743694     0.000240222132    12.000000000000
         H           -0.226121199432     2.052545743694    -0.000058777868     1.007825032230
         H            0.713543800568    -2.053885256306    -0.000009777868     1.007825032230
         H            2.481047800568     1.598354743694    -0.000125777868     1.007825032230
         H           -3.481594199432    -0.183761256306     0.000317222132     1.007825032230
         H           -2.449649199432     0.971289743694    -0.894875777868     1.007825032230
         H           -2.449395199432     0.971109743694     0.895459222132     1.007825032230

  Basis Set: AUG-CC-PVTZ
    Blend: AUG-CC-PVTZ
  Basis Set: (AUG-CC-PVTZ AUX)
    Blend: AUG-CC-PVTZ-JKFIT
	 Reference Energy          =    -338.7533517026249115 [Eh]
	 Singles Energy            =      -0.0000000000000000 [Eh]
	 Same-Spin Energy          =      -0.3544417146154075 [Eh]
	 Opposite-Spin Energy      =      -1.0866001164243566 [Eh]
	 Correlation Energy        =      -1.4410418310397641 [Eh]
	 Total Energy              =    -340.1943935336646518 [Eh]

	 ================> DF-SCS-MP2 Energies <==================
	-----------------------------------------------------------
	 SCS Same-Spin Scale       =       0.3333333333333333 [-]
	 SCS Opposite-Spin Scale   =       1.2000000000000000 [-]
	 SCS Same-Spin Energy      =      -0.1181472382051358 [Eh]
	 SCS Opposite-Spin Energy  =      -1.3039201397092279 [Eh]
	 SCS Correlation Energy    =      -1.4220673779143638 [Eh]
	 SCS Total Energy          =    -340.1754190805392568 [Eh]
	-----------------------------------------------------------

  Dipole Moment: [D]
     X:    -3.3324      Y:     0.3973      Z:     0.0004     Total:     3.3560

*** Psi4 exiting successfully. Buy a developer a beer!
