                               Psi4 1.3.2 release

  ==> Input File <==

--------------------------------------------------------------------------
#psi4
#
memory 32 gb

molecule  {
0 1
  O       -1.4607440    -0.6783760    -0.0000110
  N        0.7971791    -0.9685542    -0.0000301
  N        2.0492790    -0.4487200    -0.0000870
  C       -0.2000590    -0.1785130    -0.0000310
  C        0.3504840     1.0933250    -0.0000620
  C        1.7415550     0.8590090    -0.0000990
  C       -2.4699820     0.3361590     0.0002330
  H       -0.1651650     2.0416990    -0.0000660
  H        0.7745000    -2.0647320    -0.0000170
  H        2.5420040     1.5875080    -0.0001330
  H       -3.4206380    -0.1946080     0.0003100
  H       -2.3886930     0.9604430    -0.8948830
  H       -2.3884390     0.9602630     0.8954520
units angstrom
no_reorient  #important for SAPT in psi4, default
symmetry c1  #important for SAPT in psi4, default
}

set PROPERTIES_ORIGIN ["COM"]
properties('MP2/aug-cc-pvtz', properties = ['dipole'])
--------------------------------------------------------------------------

    Molecular point group: c1
  Charge       = 0
  Multiplicity = 1
  Basis Set: AUG-CC-PVTZ
    Blend: AUG-CC-PVTZ
  Basis Set: (AUG-CC-PVTZ AUX)
    Blend: AUG-CC-PVTZ-JKFIT

    Orbital Energies [Eh]
    ---------------------

    Doubly Occupied:

       1A    -20.612734     2A    -15.636090     3A    -15.578144
       4A    -11.334449     5A    -11.300167     6A    -11.256296
       7A    -11.213848     8A     -1.445551     9A     -1.371370
      10A     -1.106559    11A     -1.044104    12A     -0.962013
      13A     -0.812121    14A     -0.800157    15A     -0.757868
      16A     -0.684440    17A     -0.644759    18A     -0.621562
      19A     -0.610938    20A     -0.589956    21A     -0.571470
      22A     -0.526609    23A     -0.506635    24A     -0.463754
      25A     -0.365094    26A     -0.329346

  @DF-RHF Final Energy:  -338.78488809116584

   => Energetics <=

    Nuclear Repulsion Energy =            297.7779773643189287
    One-Electron Energy =               -1050.8336623995307946
    Two-Electron Energy =                 414.2707969440459692
    Total Energy =                       -338.7848880911658398
  Basis Set: (AUG-CC-PVTZ AUX)
    Blend: AUG-CC-PVTZ-RI
    Molecular point group: c1

    Geometry (in Angstrom), charge = 0, multiplicity = 1:

       Center              X                  Y                   Z               Mass
    ------------   -----------------  -----------------  -----------------  -----------------
         O           -1.506361899331    -0.657358951229    -0.000004314336    15.994914619570
         N            0.751561200669    -0.947537151229    -0.000023414336    14.003074004430
         N            2.003661100669    -0.427702951229    -0.000080314336    14.003074004430
         C           -0.245676899331    -0.157495951229    -0.000024314336    12.000000000000
         C            0.304866100669     1.114342048771    -0.000055314336    12.000000000000
         C            1.695937100669     0.880026048771    -0.000092314336    12.000000000000
         C           -2.515599899331     0.357176048771     0.000239685664    12.000000000000
         H           -0.210782899331     2.062716048771    -0.000059314336     1.007825032230
         H            0.728882100669    -2.043714951229    -0.000010314336     1.007825032230
         H            2.496386100669     1.608525048771    -0.000126314336     1.007825032230
         H           -3.466255899331    -0.173590951229     0.000316685664     1.007825032230
         H           -2.434310899331     0.981460048771    -0.894876314336     1.007825032230
         H           -2.434056899331     0.981280048771     0.895458685664     1.007825032230

  Basis Set: AUG-CC-PVTZ
    Blend: AUG-CC-PVTZ
  Basis Set: (AUG-CC-PVTZ AUX)
    Blend: AUG-CC-PVTZ-JKFIT
	 Reference Energy          =    -338.7848880911658398 [Eh]
	 Singles Energy            =      -0.0000000000000000 [Eh]
	 Same-Spin Energy          =      -0.3536584829359765 [Eh]
	 Opposite-Spin Energy      =      -1.0832379148835973 [Eh]
	 Correlation Energy        =      -1.4368963978195737 [Eh]
	 Total Energy              =    -340.2217844889854064 [Eh]

	 ================> DF-SCS-MP2 Energies <==================
	-----------------------------------------------------------
	 SCS Same-Spin Scale       =       0.3333333333333333 [-]
	 SCS Opposite-Spin Scale   =       1.2000000000000000 [-]
	 SCS Same-Spin Energy      =      -0.1178861609786588 [Eh]
	 SCS Opposite-Spin Energy  =      -1.2998854978603167 [Eh]
	 SCS Correlation Energy    =      -1.4177716588389755 [Eh]
	 SCS Total Energy          =    -340.2026597500048410 [Eh]
	-----------------------------------------------------------

  Dipole Moment: [D]
     X:    -3.0949      Y:     0.4679      Z:     0.0004     Total:     3.1301

*** Psi4 exiting successfully. Buy a developer a beer!
