                               Psi4 1.4a3.dev225

  ==> Input File <==

--------------------------------------------------------------------------
#psi4
#
memory 32 gb

molecule  {
0 1
  O       -1.4607440    -0.6783760    -0.0000110
  N        0.8364910    -1.0546300    -0.0000300
  N        2.0492790    -0.4487200    -0.0000870
  C       -0.1847843    -0.1914236    -0.0000310
  C        0.3504840     1.0933250    -0.0000620
  C        1.7415550     0.8590090    -0.0000990
  C       -2.4699820     0.3361590     0.0002330
  H       -0.1651650     2.0416990    -0.0000660
  H        0.7745000    -2.0647320    -0.0000170
  H        2.5420040     1.5875080    -0.0001330
  H       -3.4206380    -0.1946080     0.0003100
  H       -2.3886930     0.9604430    -0.8948830
  H       -2.3884390     0.9602630     0.8954520
units angstrom
no_reorient  #important for SAPT in psi4, default
symmetry c1  #important for SAPT in psi4, default
}

set PROPERTIES_ORIGIN ["COM"]
properties('MP2/aug-cc-pvtz', properties = ['dipole'])
--------------------------------------------------------------------------

    Molecular point group: c1
  Charge       = 0
  Multiplicity = 1
  Basis Set: AUG-CC-PVTZ
    Blend: AUG-CC-PVTZ
  Basis Set: (AUG-CC-PVTZ AUX)
    Blend: AUG-CC-PVTZ-JKFIT

    Orbital Energies [Eh]
    ---------------------

    Doubly Occupied:

       1A    -20.610580     2A    -15.632701     3A    -15.579724
       4A    -11.342611     5A    -11.299309     6A    -11.258020
       7A    -11.219923     8A     -1.436133     9A     -1.360073
      10A     -1.095801    11A     -1.047637    12A     -0.959678
      13A     -0.819145    14A     -0.803264    15A     -0.753900
      16A     -0.677934    17A     -0.648146    18A     -0.623648
      19A     -0.602666    20A     -0.601698    21A     -0.580456
      22A     -0.524360    23A     -0.504766    24A     -0.454328
      25A     -0.367896    26A     -0.326170

  @DF-RHF Final Energy:  -338.79983169700296

   => Energetics <=

    Nuclear Repulsion Energy =            295.7888167352163009
    One-Electron Energy =               -1046.9161644949374477
    Two-Electron Energy =                 412.3275160627181890
    Total Energy =                       -338.7998316970029578
  Basis Set: (AUG-CC-PVTZ AUX)
    Blend: AUG-CC-PVTZ-RI
    Molecular point group: c1

    Geometry (in Angstrom), charge = 0, multiplicity = 1:

       Center              X                  Y                   Z               Mass
    ------------   -----------------  -----------------  -----------------  -----------------
         O           -1.513845823012    -0.643485615521    -0.000004328618    15.994914619570
         N            0.783389176988    -1.019739615521    -0.000023328618    14.003074004430
         N            1.996177176988    -0.413829615521    -0.000080328618    14.003074004430
         C           -0.237886123012    -0.156533215521    -0.000024328618    12.000000000000
         C            0.297382176988     1.128215384479    -0.000055328618    12.000000000000
         C            1.688453176988     0.893899384479    -0.000092328618    12.000000000000
         C           -2.523083823012     0.371049384479     0.000239671382    12.000000000000
         H           -0.218266823012     2.076589384479    -0.000059328618     1.007825032230
         H            0.721398176988    -2.029841615521    -0.000010328618     1.007825032230
         H            2.488902176988     1.622398384479    -0.000126328618     1.007825032230
         H           -3.473739823012    -0.159717615521     0.000316671382     1.007825032230
         H           -2.441794823012     0.995333384479    -0.894876328618     1.007825032230
         H           -2.441540823012     0.995153384479     0.895458671382     1.007825032230

  Basis Set: AUG-CC-PVTZ
    Blend: AUG-CC-PVTZ
  Basis Set: (AUG-CC-PVTZ AUX)
    Blend: AUG-CC-PVTZ-JKFIT
	 Reference Energy          =    -338.7998316970029578 [Eh]
	 Singles Energy            =      -0.0000000000000000 [Eh]
	 Same-Spin Energy          =      -0.3530481062365010 [Eh]
	 Opposite-Spin Energy      =      -1.0828567918202676 [Eh]
	 Correlation Energy        =      -1.4359048980567686 [Eh]
	 Total Energy              =    -340.2357365950597341 [Eh]

	 ================> DF-SCS-MP2 Energies <==================
	-----------------------------------------------------------
	 SCS Same-Spin Scale       =       0.3333333333333333 [-]
	 SCS Opposite-Spin Scale   =       1.2000000000000000 [-]
	 SCS Same-Spin Energy      =      -0.1176827020788337 [Eh]
	 SCS Opposite-Spin Energy  =      -1.2994281501843210 [Eh]
	 SCS Correlation Energy    =      -1.4171108522631546 [Eh]
	 SCS Total Energy          =    -340.2169425492660935 [Eh]
	-----------------------------------------------------------

  Dipole Moment: [D]
     X:    -3.0585      Y:     0.6147      Z:     0.0003     Total:     3.1196

*** Psi4 exiting successfully. Buy a developer a beer!
