                               Psi4 1.3.2 release

  ==> Input File <==

--------------------------------------------------------------------------
#psi4
#
memory 32 gb

molecule  {
0 1
  O       -1.4607440    -0.6783760    -0.0000110
  N        0.8364910    -1.0546300    -0.0000300
  N        2.0273942    -0.4067634    -0.0000879
  C       -0.2000590    -0.1785130    -0.0000310
  C        0.3504840     1.0933250    -0.0000620
  C        1.7415550     0.8590090    -0.0000990
  C       -2.4699820     0.3361590     0.0002330
  H       -0.1651650     2.0416990    -0.0000660
  H        0.7745000    -2.0647320    -0.0000170
  H        2.5420040     1.5875080    -0.0001330
  H       -3.4206380    -0.1946080     0.0003100
  H       -2.3886930     0.9604430    -0.8948830
  H       -2.3884390     0.9602630     0.8954520
units angstrom
no_reorient  #important for SAPT in psi4, default
symmetry c1  #important for SAPT in psi4, default
}

set PROPERTIES_ORIGIN ["COM"]
properties('MP2/aug-cc-pvtz', properties = ['dipole'])
--------------------------------------------------------------------------

    Molecular point group: c1
  Charge       = 0
  Multiplicity = 1
  Basis Set: AUG-CC-PVTZ
    Blend: AUG-CC-PVTZ
  Basis Set: (AUG-CC-PVTZ AUX)
    Blend: AUG-CC-PVTZ-JKFIT

    Orbital Energies [Eh]
    ---------------------

    Doubly Occupied:

       1A    -20.611707     2A    -15.628551     3A    -15.575242
       4A    -11.341674     5A    -11.299150     6A    -11.251332
       7A    -11.216443     8A     -1.439453     9A     -1.361761
      10A     -1.103198    11A     -1.043939    12A     -0.961832
      13A     -0.817872    14A     -0.799815    15A     -0.755203
      16A     -0.678864    17A     -0.650445    18A     -0.628773
      19A     -0.602308    20A     -0.599391    21A     -0.583140
      22A     -0.527352    23A     -0.507159    24A     -0.446621
      25A     -0.369648    26A     -0.327695

  @DF-RHF Final Energy:  -338.80205706938176

   => Energetics <=

    Nuclear Repulsion Energy =            296.7172389531832550
    One-Electron Energy =               -1048.7814575036534279
    Two-Electron Energy =                 413.2621614810884125
    Total Energy =                       -338.8020570693817604
  Basis Set: (AUG-CC-PVTZ AUX)
    Blend: AUG-CC-PVTZ-RI
    Molecular point group: c1

    Geometry (in Angstrom), charge = 0, multiplicity = 1:

       Center              X                  Y                   Z               Mass
    ------------   -----------------  -----------------  -----------------  -----------------
         O           -1.508850812303    -0.651057911516    -0.000004200082    15.994914619570
         N            0.788384187697    -1.027311911516    -0.000023200082    14.003074004430
         N            1.979287387697    -0.379445311516    -0.000081100082    14.003074004430
         C           -0.248165812303    -0.151194911516    -0.000024200082    12.000000000000
         C            0.302377187697     1.120643088484    -0.000055200082    12.000000000000
         C            1.693448187697     0.886327088484    -0.000092200082    12.000000000000
         C           -2.518088812303     0.363477088484     0.000239799918    12.000000000000
         H           -0.213271812303     2.069017088484    -0.000059200082     1.007825032230
         H            0.726393187697    -2.037413911516    -0.000010200082     1.007825032230
         H            2.493897187697     1.614826088484    -0.000126200082     1.007825032230
         H           -3.468744812303    -0.167289911516     0.000316799918     1.007825032230
         H           -2.436799812303     0.987761088484    -0.894876200082     1.007825032230
         H           -2.436545812303     0.987581088484     0.895458799918     1.007825032230

  Basis Set: AUG-CC-PVTZ
    Blend: AUG-CC-PVTZ
  Basis Set: (AUG-CC-PVTZ AUX)
    Blend: AUG-CC-PVTZ-JKFIT
	 Reference Energy          =    -338.8020570693817604 [Eh]
	 Singles Energy            =      -0.0000000000000000 [Eh]
	 Same-Spin Energy          =      -0.3520205166949837 [Eh]
	 Opposite-Spin Energy      =      -1.0807375943997208 [Eh]
	 Correlation Energy        =      -1.4327581110947045 [Eh]
	 Total Energy              =    -340.2348151804764598 [Eh]

	 ================> DF-SCS-MP2 Energies <==================
	-----------------------------------------------------------
	 SCS Same-Spin Scale       =       0.3333333333333333 [-]
	 SCS Opposite-Spin Scale   =       1.2000000000000000 [-]
	 SCS Same-Spin Energy      =      -0.1173401722316612 [Eh]
	 SCS Opposite-Spin Energy  =      -1.2968851132796650 [Eh]
	 SCS Correlation Energy    =      -1.4142252855113262 [Eh]
	 SCS Total Energy          =    -340.2162823548931101 [Eh]
	-----------------------------------------------------------

  Dipole Moment: [D]
     X:    -3.0250      Y:     0.5951      Z:     0.0003     Total:     3.0830

*** Psi4 exiting successfully. Buy a developer a beer!
