                               Psi4 1.3.2 release

  ==> Input File <==

--------------------------------------------------------------------------
#psi4
#
memory 32 gb

molecule  {
0 1
  O       -1.4607440    -0.6783760    -0.0000110
  N        0.8261011    -1.0333716    -0.0000300
  N        2.0492790    -0.4487200    -0.0000870
  C       -0.2000590    -0.1785130    -0.0000310
  C        0.3504840     1.0933250    -0.0000620
  C        1.7415550     0.8590090    -0.0000990
  C       -2.4699820     0.3361590     0.0002330
  H       -0.1651650     2.0416990    -0.0000660
  H        0.7745000    -2.0647320    -0.0000170
  H        2.5420040     1.5875080    -0.0001330
  H       -3.4206380    -0.1946080     0.0003100
  H       -2.3886930     0.9604430    -0.8948830
  H       -2.3884390     0.9602630     0.8954520
units angstrom
no_reorient  #important for SAPT in psi4, default
symmetry c1  #important for SAPT in psi4, default
}

set PROPERTIES_ORIGIN ["COM"]
properties('MP2/aug-cc-pvtz', properties = ['dipole'])
--------------------------------------------------------------------------

    Molecular point group: c1
  Charge       = 0
  Multiplicity = 1
  Basis Set: AUG-CC-PVTZ
    Blend: AUG-CC-PVTZ
  Basis Set: (AUG-CC-PVTZ AUX)
    Blend: AUG-CC-PVTZ-JKFIT

    Orbital Energies [Eh]
    ---------------------

    Doubly Occupied:

       1A    -20.612570     2A    -15.631906     3A    -15.580065
       4A    -11.340898     5A    -11.300169     6A    -11.257037
       7A    -11.218563     8A     -1.441089     9A     -1.359877
      10A     -1.093631    11A     -1.048156    12A     -0.961498
      13A     -0.813841    14A     -0.802917    15A     -0.755693
      16A     -0.680537    17A     -0.648253    18A     -0.623876
      19A     -0.602510    20A     -0.596875    21A     -0.578823
      22A     -0.527426    23A     -0.506650    24A     -0.456543
      25A     -0.365675    26A     -0.326930

  @DF-RHF Final Energy:  -338.79883285554632

   => Energetics <=

    Nuclear Repulsion Energy =            296.2113276322296542
    One-Electron Energy =               -1047.7563056955202683
    Two-Electron Energy =                 412.7461452077442914
    Total Energy =                       -338.7988328555463227
  Basis Set: (AUG-CC-PVTZ AUX)
    Blend: AUG-CC-PVTZ-RI
    Molecular point group: c1

    Geometry (in Angstrom), charge = 0, multiplicity = 1:

       Center              X                  Y                   Z               Mass
    ------------   -----------------  -----------------  -----------------  -----------------
         O           -1.510492497134    -0.648101824819    -0.000004328618    15.994914619570
         N            0.776352602866    -1.003097424819    -0.000023328618    14.003074004430
         N            1.999530502866    -0.418445824819    -0.000080328618    14.003074004430
         C           -0.249807497134    -0.148238824819    -0.000024328618    12.000000000000
         C            0.300735502866     1.123599175181    -0.000055328618    12.000000000000
         C            1.691806502866     0.889283175181    -0.000092328618    12.000000000000
         C           -2.519730497134     0.366433175181     0.000239671382    12.000000000000
         H           -0.214913497134     2.071973175181    -0.000059328618     1.007825032230
         H            0.724751502866    -2.034457824819    -0.000010328618     1.007825032230
         H            2.492255502866     1.617782175181    -0.000126328618     1.007825032230
         H           -3.470386497134    -0.164333824819     0.000316671382     1.007825032230
         H           -2.438441497134     0.990717175181    -0.894876328618     1.007825032230
         H           -2.438187497134     0.990537175181     0.895458671382     1.007825032230

  Basis Set: AUG-CC-PVTZ
    Blend: AUG-CC-PVTZ
  Basis Set: (AUG-CC-PVTZ AUX)
    Blend: AUG-CC-PVTZ-JKFIT
	 Reference Energy          =    -338.7988328555463227 [Eh]
	 Singles Energy            =      -0.0000000000000000 [Eh]
	 Same-Spin Energy          =      -0.3533202179200611 [Eh]
	 Opposite-Spin Energy      =      -1.0831839762720077 [Eh]
	 Correlation Energy        =      -1.4365041941920689 [Eh]
	 Total Energy              =    -340.2353370497384049 [Eh]

	 ================> DF-SCS-MP2 Energies <==================
	-----------------------------------------------------------
	 SCS Same-Spin Scale       =       0.3333333333333333 [-]
	 SCS Opposite-Spin Scale   =       1.2000000000000000 [-]
	 SCS Same-Spin Energy      =      -0.1177734059733537 [Eh]
	 SCS Opposite-Spin Energy  =      -1.2998207715264092 [Eh]
	 SCS Correlation Energy    =      -1.4175941774997629 [Eh]
	 SCS Total Energy          =    -340.2164270330461022 [Eh]
	-----------------------------------------------------------

  Dipole Moment: [D]
     X:    -3.1185      Y:     0.5992      Z:     0.0003     Total:     3.1755

*** Psi4 exiting successfully. Buy a developer a beer!
