                               Psi4 1.3.2 release

  ==> Input File <==

--------------------------------------------------------------------------
#psi4
#
memory 32 gb

molecule  {
0 1
  O       -1.4607440    -0.6783760    -0.0000110
  N        0.8364910    -1.0546300    -0.0000300
  N        2.0492790    -0.4487200    -0.0000870
  C       -0.2874368    -0.1370109    -0.0000290
  C        0.3504840     1.0933250    -0.0000620
  C        1.7415550     0.8590090    -0.0000990
  C       -2.4699820     0.3361590     0.0002330
  H       -0.1651650     2.0416990    -0.0000660
  H        0.7745000    -2.0647320    -0.0000170
  H        2.5420040     1.5875080    -0.0001330
  H       -3.4206380    -0.1946080     0.0003100
  H       -2.3886930     0.9604430    -0.8948830
  H       -2.3884390     0.9602630     0.8954520
units angstrom
no_reorient  #important for SAPT in psi4, default
symmetry c1  #important for SAPT in psi4, default
}

set PROPERTIES_ORIGIN ["COM"]
properties('MP2/aug-cc-pvtz', properties = ['dipole'])
--------------------------------------------------------------------------

    Molecular point group: c1
  Charge       = 0
  Multiplicity = 1
  Basis Set: AUG-CC-PVTZ
    Blend: AUG-CC-PVTZ
  Basis Set: (AUG-CC-PVTZ AUX)
    Blend: AUG-CC-PVTZ-JKFIT

    Orbital Energies [Eh]
    ---------------------

    Doubly Occupied:

       1A    -20.625637     2A    -15.618893     3A    -15.583188
       4A    -11.348432     5A    -11.307463     6A    -11.253349
       7A    -11.222036     8A     -1.473865     9A     -1.337659
      10A     -1.073267    11A     -1.045815    12A     -0.974204
      13A     -0.816406    14A     -0.787353    15A     -0.758906
      16A     -0.694306    17A     -0.662018    18A     -0.634530
      19A     -0.587400    20A     -0.583003    21A     -0.575627
      22A     -0.538865    23A     -0.519369    24A     -0.449206
      25A     -0.360987    26A     -0.316389

  @DF-RHF Final Energy:  -338.78418644040880

   => Energetics <=

    Nuclear Repulsion Energy =            295.3867801987263420
    One-Electron Energy =               -1046.0455881360658168
    Two-Electron Energy =                 411.8746214969306720
    Total Energy =                       -338.7841864404088028
  Basis Set: (AUG-CC-PVTZ AUX)
    Blend: AUG-CC-PVTZ-RI
    Molecular point group: c1

    Geometry (in Angstrom), charge = 0, multiplicity = 1:

       Center              X                  Y                   Z               Mass
    ------------   -----------------  -----------------  -----------------  -----------------
         O           -1.501282284348    -0.650145132437    -0.000004573396    15.994914619570
         N            0.795952715652    -1.026399132437    -0.000023573396    14.003074004430
         N            2.008740715652    -0.420489132437    -0.000080573396    14.003074004430
         C           -0.327975084348    -0.108780032437    -0.000022573396    12.000000000000
         C            0.309945715652     1.121555867563    -0.000055573396    12.000000000000
         C            1.701016715652     0.887239867563    -0.000092573396    12.000000000000
         C           -2.510520284348     0.364389867563     0.000239426604    12.000000000000
         H           -0.205703284348     2.069929867563    -0.000059573396     1.007825032230
         H            0.733961715652    -2.036501132437    -0.000010573396     1.007825032230
         H            2.501465715652     1.615738867563    -0.000126573396     1.007825032230
         H           -3.461176284348    -0.166377132437     0.000316426604     1.007825032230
         H           -2.429231284348     0.988673867563    -0.894876573396     1.007825032230
         H           -2.428977284348     0.988493867563     0.895458426604     1.007825032230

  Basis Set: AUG-CC-PVTZ
    Blend: AUG-CC-PVTZ
  Basis Set: (AUG-CC-PVTZ AUX)
    Blend: AUG-CC-PVTZ-JKFIT
	 Reference Energy          =    -338.7841864404088028 [Eh]
	 Singles Energy            =      -0.0000000000000000 [Eh]
	 Same-Spin Energy          =      -0.3545188913977432 [Eh]
	 Opposite-Spin Energy      =      -1.0858252411331415 [Eh]
	 Correlation Energy        =      -1.4403441325308846 [Eh]
	 Total Energy              =    -340.2245305729396705 [Eh]

	 ================> DF-SCS-MP2 Energies <==================
	-----------------------------------------------------------
	 SCS Same-Spin Scale       =       0.3333333333333333 [-]
	 SCS Opposite-Spin Scale   =       1.2000000000000000 [-]
	 SCS Same-Spin Energy      =      -0.1181729637992477 [Eh]
	 SCS Opposite-Spin Energy  =      -1.3029902893597698 [Eh]
	 SCS Correlation Energy    =      -1.4211632531590175 [Eh]
	 SCS Total Energy          =    -340.2053496935678254 [Eh]
	-----------------------------------------------------------

  Dipole Moment: [D]
     X:    -3.6254      Y:     0.7225      Z:     0.0004     Total:     3.6966

*** Psi4 exiting successfully. Buy a developer a beer!
