                               Psi4 1.3.2 release

  ==> Input File <==

--------------------------------------------------------------------------
#psi4
#
memory 32 gb

molecule  {
0 1
  O       -1.4607440    -0.6783760    -0.0000110
  N        0.8364910    -1.0546300    -0.0000300
  N        2.1842882    -0.4093902    -0.0000914
  C       -0.2000590    -0.1785130    -0.0000310
  C        0.3504840     1.0933250    -0.0000620
  C        1.7415550     0.8590090    -0.0000990
  C       -2.4699820     0.3361590     0.0002330
  H       -0.1651650     2.0416990    -0.0000660
  H        0.7745000    -2.0647320    -0.0000170
  H        2.5420040     1.5875080    -0.0001330
  H       -3.4206380    -0.1946080     0.0003100
  H       -2.3886930     0.9604430    -0.8948830
  H       -2.3884390     0.9602630     0.8954520
units angstrom
no_reorient  #important for SAPT in psi4, default
symmetry c1  #important for SAPT in psi4, default
}

set PROPERTIES_ORIGIN ["COM"]
properties('MP2/aug-cc-pvtz', properties = ['dipole'])
--------------------------------------------------------------------------

    Molecular point group: c1
  Charge       = 0
  Multiplicity = 1
  Basis Set: AUG-CC-PVTZ
    Blend: AUG-CC-PVTZ
  Basis Set: (AUG-CC-PVTZ AUX)
    Blend: AUG-CC-PVTZ-JKFIT

    Orbital Energies [Eh]
    ---------------------

    Doubly Occupied:

       1A    -20.619508     2A    -15.618028     3A    -15.594190
       4A    -11.355662     5A    -11.303453     6A    -11.268393
       7A    -11.220996     8A     -1.443523     9A     -1.312756
      10A     -1.100187    11A     -1.038878    12A     -0.967533
      13A     -0.814250    14A     -0.782426    15A     -0.756031
      16A     -0.681549    17A     -0.651900    18A     -0.620109
      19A     -0.595523    20A     -0.583863    21A     -0.560860
      22A     -0.529581    23A     -0.505247    24A     -0.469560
      25A     -0.371217    26A     -0.333034

  @DF-RHF Final Energy:  -338.78139004991590

   => Energetics <=

    Nuclear Repulsion Energy =            292.5308036158018581
    One-Electron Energy =               -1040.4278738779248670
    Two-Electron Energy =                 409.1156802122070530
    Total Energy =                       -338.7813900499158990
  Basis Set: (AUG-CC-PVTZ AUX)
    Blend: AUG-CC-PVTZ-RI
    Molecular point group: c1

    Geometry (in Angstrom), charge = 0, multiplicity = 1:

       Center              X                  Y                   Z               Mass
    ------------   -----------------  -----------------  -----------------  -----------------
         O           -1.531258184259    -0.650682755776    -0.000003700217    15.994914619570
         N            0.765976815741    -1.026936755776    -0.000022700217    14.003074004430
         N            2.113774015741    -0.381696955776    -0.000084100217    14.003074004430
         C           -0.270573184259    -0.150819755776    -0.000023700217    12.000000000000
         C            0.279969815741     1.121018244224    -0.000054700217    12.000000000000
         C            1.671040815741     0.886702244224    -0.000091700217    12.000000000000
         C           -2.540496184259     0.363852244224     0.000240299783    12.000000000000
         H           -0.235679184259     2.069392244224    -0.000058700217     1.007825032230
         H            0.703985815741    -2.037038755776    -0.000009700217     1.007825032230
         H            2.471489815741     1.615201244224    -0.000125700217     1.007825032230
         H           -3.491152184259    -0.166914755776     0.000317299783     1.007825032230
         H           -2.459207184259     0.988136244224    -0.894875700217     1.007825032230
         H           -2.458953184259     0.987956244224     0.895459299783     1.007825032230

  Basis Set: AUG-CC-PVTZ
    Blend: AUG-CC-PVTZ
  Basis Set: (AUG-CC-PVTZ AUX)
    Blend: AUG-CC-PVTZ-JKFIT
	 Reference Energy          =    -338.7813900499158990 [Eh]
	 Singles Energy            =      -0.0000000000000000 [Eh]
	 Same-Spin Energy          =      -0.3528145054899459 [Eh]
	 Opposite-Spin Energy      =      -1.0864884434196043 [Eh]
	 Correlation Energy        =      -1.4393029489095501 [Eh]
	 Total Energy              =    -340.2206929988254274 [Eh]

	 ================> DF-SCS-MP2 Energies <==================
	-----------------------------------------------------------
	 SCS Same-Spin Scale       =       0.3333333333333333 [-]
	 SCS Opposite-Spin Scale   =       1.2000000000000000 [-]
	 SCS Same-Spin Energy      =      -0.1176048351633153 [Eh]
	 SCS Opposite-Spin Energy  =      -1.3037861321035251 [Eh]
	 SCS Correlation Energy    =      -1.4213909672668403 [Eh]
	 SCS Total Energy          =    -340.2027810171827582 [Eh]
	-----------------------------------------------------------

  Dipole Moment: [D]
     X:    -3.3051      Y:     0.7846      Z:     0.0003     Total:     3.3969

*** Psi4 exiting successfully. Buy a developer a beer!
