                               Psi4 1.3.2 release

  ==> Input File <==

--------------------------------------------------------------------------
#psi4
#
memory 32 gb

molecule  {
0 1
  O       -1.4607440    -0.6783760    -0.0000110
  N        0.8364910    -1.0546300    -0.0000300
  N        2.0492790    -0.4487200    -0.0000870
  C       -0.1236854    -0.2430658    -0.0000309
  C        0.3504840     1.0933250    -0.0000620
  C        1.7415550     0.8590090    -0.0000990
  C       -2.4699820     0.3361590     0.0002330
  H       -0.1651650     2.0416990    -0.0000660
  H        0.7745000    -2.0647320    -0.0000170
  H        2.5420040     1.5875080    -0.0001330
  H       -3.4206380    -0.1946080     0.0003100
  H       -2.3886930     0.9604430    -0.8948830
  H       -2.3884390     0.9602630     0.8954520
units angstrom
no_reorient  #important for SAPT in psi4, default
symmetry c1  #important for SAPT in psi4, default
}

set PROPERTIES_ORIGIN ["COM"]
properties('MP2/aug-cc-pvtz', properties = ['dipole'])
--------------------------------------------------------------------------

    Molecular point group: c1
  Charge       = 0
  Multiplicity = 1
  Basis Set: AUG-CC-PVTZ
    Blend: AUG-CC-PVTZ
  Basis Set: (AUG-CC-PVTZ AUX)
    Blend: AUG-CC-PVTZ-JKFIT

    Orbital Energies [Eh]
    ---------------------

    Doubly Occupied:

       1A    -20.602610     2A    -15.641150     3A    -15.575123
       4A    -11.341558     5A    -11.295923     6A    -11.260465
       7A    -11.219161     8A     -1.427857     9A     -1.371943
      10A     -1.115353    11A     -1.043733    12A     -0.952360
      13A     -0.828060    14A     -0.814580    15A     -0.748156
      16A     -0.673973    17A     -0.640712    18A     -0.617729
      19A     -0.614316    20A     -0.613517    21A     -0.579847
      22A     -0.509521    23A     -0.496711    24A     -0.455068
      25A     -0.376197    26A     -0.325703

  @DF-RHF Final Energy:  -338.78897485419503

   => Energetics <=

    Nuclear Repulsion Energy =            296.1745501185520766
    One-Electron Energy =               -1047.6443974098274339
    Two-Electron Energy =                 412.6808724370802679
    Total Energy =                       -338.7889748541950325
  Basis Set: (AUG-CC-PVTZ AUX)
    Blend: AUG-CC-PVTZ-RI
    Molecular point group: c1

    Geometry (in Angstrom), charge = 0, multiplicity = 1:

       Center              X                  Y                   Z               Mass
    ------------   -----------------  -----------------  -----------------  -----------------
         O           -1.521323657380    -0.637165177379    -0.000004340857    15.994914619570
         N            0.775911342620    -1.013419177379    -0.000023340857    14.003074004430
         N            1.988699342620    -0.407509177379    -0.000080340857    14.003074004430
         C           -0.184265057380    -0.201854977379    -0.000024240857    12.000000000000
         C            0.289904342620     1.134535822621    -0.000055340857    12.000000000000
         C            1.680975342620     0.900219822621    -0.000092340857    12.000000000000
         C           -2.530561657380     0.377369822621     0.000239659143    12.000000000000
         H           -0.225744657380     2.082909822621    -0.000059340857     1.007825032230
         H            0.713920342620    -2.023521177379    -0.000010340857     1.007825032230
         H            2.481424342620     1.628718822621    -0.000126340857     1.007825032230
         H           -3.481217657380    -0.153397177379     0.000316659143     1.007825032230
         H           -2.449272657380     1.001653822621    -0.894876340857     1.007825032230
         H           -2.449018657380     1.001473822621     0.895458659143     1.007825032230

  Basis Set: AUG-CC-PVTZ
    Blend: AUG-CC-PVTZ
  Basis Set: (AUG-CC-PVTZ AUX)
    Blend: AUG-CC-PVTZ-JKFIT
	 Reference Energy          =    -338.7889748541950325 [Eh]
	 Singles Energy            =      -0.0000000000000000 [Eh]
	 Same-Spin Energy          =      -0.3523469199259950 [Eh]
	 Opposite-Spin Energy      =      -1.0812474160414780 [Eh]
	 Correlation Energy        =      -1.4335943359674730 [Eh]
	 Total Energy              =    -340.2225691901625169 [Eh]

	 ================> DF-SCS-MP2 Energies <==================
	-----------------------------------------------------------
	 SCS Same-Spin Scale       =       0.3333333333333333 [-]
	 SCS Opposite-Spin Scale   =       1.2000000000000000 [-]
	 SCS Same-Spin Energy      =      -0.1174489733086650 [Eh]
	 SCS Opposite-Spin Energy  =      -1.2974968992497735 [Eh]
	 SCS Correlation Energy    =      -1.4149458725584385 [Eh]
	 SCS Total Energy          =    -340.2039207267534948 [Eh]
	-----------------------------------------------------------

  Dipole Moment: [D]
     X:    -2.7934      Y:     0.4766      Z:     0.0003     Total:     2.8338

*** Psi4 exiting successfully. Buy a developer a beer!
