                               Psi4 1.3.2 release

  ==> Input File <==

--------------------------------------------------------------------------
#psi4
#
memory 32 gb

molecule  {
0 1
  O       -1.4607440    -0.6783760    -0.0000110
  N        0.8364910    -1.0546300    -0.0000300
  N        2.0492790    -0.4487200    -0.0000870
  C       -0.2000590    -0.1785130    -0.0000310
  C        0.3504840     1.0933250    -0.0000620
  C        1.7325301     0.8106041    -0.0000977
  C       -2.4699820     0.3361590     0.0002330
  H       -0.1651650     2.0416990    -0.0000660
  H        0.7745000    -2.0647320    -0.0000170
  H        2.5420040     1.5875080    -0.0001330
  H       -3.4206380    -0.1946080     0.0003100
  H       -2.3886930     0.9604430    -0.8948830
  H       -2.3884390     0.9602630     0.8954520
units angstrom
no_reorient  #important for SAPT in psi4, default
symmetry c1  #important for SAPT in psi4, default
}

set PROPERTIES_ORIGIN ["COM"]
properties('MP2/aug-cc-pvtz', properties = ['dipole'])
--------------------------------------------------------------------------

    Molecular point group: c1
  Charge       = 0
  Multiplicity = 1
  Basis Set: AUG-CC-PVTZ
    Blend: AUG-CC-PVTZ
  Basis Set: (AUG-CC-PVTZ AUX)
    Blend: AUG-CC-PVTZ-JKFIT

    Orbital Energies [Eh]
    ---------------------

    Doubly Occupied:

       1A    -20.612648     2A    -15.627354     3A    -15.577882
       4A    -11.343701     5A    -11.300229     6A    -11.255628
       7A    -11.218206     8A     -1.440545     9A     -1.364387
      10A     -1.099961    11A     -1.049469    12A     -0.963104
      13A     -0.812491    14A     -0.798986    15A     -0.756288
      16A     -0.679885    17A     -0.649242    18A     -0.629277
      19A     -0.603732    20A     -0.596035    21A     -0.573958
      22A     -0.526210    23A     -0.508281    24A     -0.455578
      25A     -0.368001    26A     -0.330904

  @DF-RHF Final Energy:  -338.79956536368638

   => Energetics <=

    Nuclear Repulsion Energy =            296.6235283839666295
    One-Electron Energy =               -1048.5622207179042107
    Two-Electron Energy =                 413.1391269702511408
    Total Energy =                       -338.7995653636863835
  Basis Set: (AUG-CC-PVTZ AUX)
    Blend: AUG-CC-PVTZ-RI
    Molecular point group: c1

    Geometry (in Angstrom), charge = 0, multiplicity = 1:

       Center              X                  Y                   Z               Mass
    ------------   -----------------  -----------------  -----------------  -----------------
         O           -1.510871818831    -0.639141503002    -0.000004487724    15.994914619570
         N            0.786363181169    -1.015395503002    -0.000023487724    14.003074004430
         N            1.999151181169    -0.409485503002    -0.000080487724    14.003074004430
         C           -0.250186818831    -0.139278503002    -0.000024487724    12.000000000000
         C            0.300356181169     1.132559496998    -0.000055487724    12.000000000000
         C            1.682402281169     0.849838596998    -0.000091187724    12.000000000000
         C           -2.520109818831     0.375393496998     0.000239512276    12.000000000000
         H           -0.215292818831     2.080933496998    -0.000059487724     1.007825032230
         H            0.724372181169    -2.025497503002    -0.000010487724     1.007825032230
         H            2.491876181169     1.626742496998    -0.000126487724     1.007825032230
         H           -3.470765818831    -0.155373503002     0.000316512276     1.007825032230
         H           -2.438820818831     0.999677496998    -0.894876487724     1.007825032230
         H           -2.438566818831     0.999497496998     0.895458512276     1.007825032230

  Basis Set: AUG-CC-PVTZ
    Blend: AUG-CC-PVTZ
  Basis Set: (AUG-CC-PVTZ AUX)
    Blend: AUG-CC-PVTZ-JKFIT
	 Reference Energy          =    -338.7995653636863835 [Eh]
	 Singles Energy            =      -0.0000000000000000 [Eh]
	 Same-Spin Energy          =      -0.3522147915530159 [Eh]
	 Opposite-Spin Energy      =      -1.0812203511844332 [Eh]
	 Correlation Energy        =      -1.4334351427374492 [Eh]
	 Total Energy              =    -340.2330005064238208 [Eh]

	 ================> DF-SCS-MP2 Energies <==================
	-----------------------------------------------------------
	 SCS Same-Spin Scale       =       0.3333333333333333 [-]
	 SCS Opposite-Spin Scale   =       1.2000000000000000 [-]
	 SCS Same-Spin Energy      =      -0.1174049305176720 [Eh]
	 SCS Opposite-Spin Energy  =      -1.2974644214213198 [Eh]
	 SCS Correlation Energy    =      -1.4148693519389917 [Eh]
	 SCS Total Energy          =    -340.2144347156253730 [Eh]
	-----------------------------------------------------------

  Dipole Moment: [D]
     X:    -3.1225      Y:     0.6344      Z:     0.0003     Total:     3.1863

*** Psi4 exiting successfully. Buy a developer a beer!
