                               Psi4 1.3.2 release

  ==> Input File <==

--------------------------------------------------------------------------
#psi4
#
memory 32 gb

molecule  {
0 1
  O       -1.4607440    -0.6783760    -0.0000110
  N        0.8160838    -1.0119352    -0.0000300
  N        2.0492790    -0.4487200    -0.0000870
  C       -0.2000590    -0.1785130    -0.0000310
  C        0.3504840     1.0933250    -0.0000620
  C        1.7415550     0.8590090    -0.0000990
  C       -2.4699820     0.3361590     0.0002330
  H       -0.1651650     2.0416990    -0.0000660
  H        0.7745000    -2.0647320    -0.0000170
  H        2.5420040     1.5875080    -0.0001330
  H       -3.4206380    -0.1946080     0.0003100
  H       -2.3886930     0.9604430    -0.8948830
  H       -2.3884390     0.9602630     0.8954520
units angstrom
no_reorient  #important for SAPT in psi4, default
symmetry c1  #important for SAPT in psi4, default
}

set PROPERTIES_ORIGIN ["COM"]
properties('MP2/aug-cc-pvtz', properties = ['dipole'])
--------------------------------------------------------------------------

    Molecular point group: c1
  Charge       = 0
  Multiplicity = 1
  Basis Set: AUG-CC-PVTZ
    Blend: AUG-CC-PVTZ
  Basis Set: (AUG-CC-PVTZ AUX)
    Blend: AUG-CC-PVTZ-JKFIT

    Orbital Energies [Eh]
    ---------------------

    Doubly Occupied:

       1A    -20.612589     2A    -15.633344     3A    -15.579360
       4A    -11.338773     5A    -11.300155     6A    -11.256737
       7A    -11.216954     8A     -1.442374     9A     -1.363571
      10A     -1.097054    11A     -1.047205    12A     -0.961590
      13A     -0.810081    14A     -0.805287    15A     -0.756401
      16A     -0.681671    17A     -0.646810    18A     -0.622607
      19A     -0.605245    20A     -0.594965    21A     -0.577034
      22A     -0.527160    23A     -0.506610    24A     -0.459017
      25A     -0.365109    26A     -0.327976

  @DF-RHF Final Energy:  -338.79616851509121

   => Energetics <=

    Nuclear Repulsion Energy =            296.7239746044010644
    One-Electron Energy =               -1048.7689214372610422
    Two-Electron Energy =                 413.2487783177687675
    Total Energy =                       -338.7961685150912103
  Basis Set: (AUG-CC-PVTZ AUX)
    Blend: AUG-CC-PVTZ-RI
    Molecular point group: c1

    Geometry (in Angstrom), charge = 0, multiplicity = 1:

       Center              X                  Y                   Z               Mass
    ------------   -----------------  -----------------  -----------------  -----------------
         O           -1.509061840977    -0.651163340162    -0.000004328618    15.994914619570
         N            0.767765959023    -0.984722540162    -0.000023328618    14.003074004430
         N            2.000961159023    -0.421507340162    -0.000080328618    14.003074004430
         C           -0.248376840977    -0.151300340162    -0.000024328618    12.000000000000
         C            0.302166159023     1.120537659838    -0.000055328618    12.000000000000
         C            1.693237159023     0.886221659838    -0.000092328618    12.000000000000
         C           -2.518299840977     0.363371659838     0.000239671382    12.000000000000
         H           -0.213482840977     2.068911659838    -0.000059328618     1.007825032230
         H            0.726182159023    -2.037519340162    -0.000010328618     1.007825032230
         H            2.493686159023     1.614720659838    -0.000126328618     1.007825032230
         H           -3.468955840977    -0.167395340162     0.000316671382     1.007825032230
         H           -2.437010840977     0.987655659838    -0.894876328618     1.007825032230
         H           -2.436756840977     0.987475659838     0.895458671382     1.007825032230

  Basis Set: AUG-CC-PVTZ
    Blend: AUG-CC-PVTZ
  Basis Set: (AUG-CC-PVTZ AUX)
    Blend: AUG-CC-PVTZ-JKFIT
	 Reference Energy          =    -338.7961685150912103 [Eh]
	 Singles Energy            =      -0.0000000000000000 [Eh]
	 Same-Spin Energy          =      -0.3534143808434984 [Eh]
	 Opposite-Spin Energy      =      -1.0831221451696700 [Eh]
	 Correlation Energy        =      -1.4365365260131684 [Eh]
	 Total Energy              =    -340.2327050411043956 [Eh]

	 ================> DF-SCS-MP2 Energies <==================
	-----------------------------------------------------------
	 SCS Same-Spin Scale       =       0.3333333333333333 [-]
	 SCS Opposite-Spin Scale   =       1.2000000000000000 [-]
	 SCS Same-Spin Energy      =      -0.1178047936144994 [Eh]
	 SCS Opposite-Spin Energy  =      -1.2997465742036038 [Eh]
	 SCS Correlation Energy    =      -1.4175513678181033 [Eh]
	 SCS Total Energy          =    -340.2137198829092881 [Eh]
	-----------------------------------------------------------

  Dipole Moment: [D]
     X:    -3.1095      Y:     0.5532      Z:     0.0003     Total:     3.1583

*** Psi4 exiting successfully. Buy a developer a beer!
