                               Psi4 1.4a3.dev225

  ==> Input File <==

--------------------------------------------------------------------------
#psi4
#
memory 32 gb

molecule  {
0 1
  O       -1.4607440    -0.6783760    -0.0000110
  N        0.8364910    -1.0546300    -0.0000300
  N        2.0492790    -0.4487200    -0.0000870
  C       -0.2000590    -0.1785130    -0.0000310
  C        0.3504840     1.0933250    -0.0000620
  C        1.6922496     0.8673141    -0.0000977
  C       -2.4699820     0.3361590     0.0002330
  H       -0.1651650     2.0416990    -0.0000660
  H        0.7745000    -2.0647320    -0.0000170
  H        2.5420040     1.5875080    -0.0001330
  H       -3.4206380    -0.1946080     0.0003100
  H       -2.3886930     0.9604430    -0.8948830
  H       -2.3884390     0.9602630     0.8954520
units angstrom
no_reorient  #important for SAPT in psi4, default
symmetry c1  #important for SAPT in psi4, default
}

set PROPERTIES_ORIGIN ["COM"]
properties('MP2/aug-cc-pvtz', properties = ['dipole'])
--------------------------------------------------------------------------

    Molecular point group: c1
  Charge       = 0
  Multiplicity = 1
  Basis Set: AUG-CC-PVTZ
    Blend: AUG-CC-PVTZ
  Basis Set: (AUG-CC-PVTZ AUX)
    Blend: AUG-CC-PVTZ-JKFIT

    Orbital Energies [Eh]
    ---------------------

    Doubly Occupied:

       1A    -20.613026     2A    -15.632240     3A    -15.578004
       4A    -11.343787     5A    -11.301099     6A    -11.255656
       7A    -11.218340     8A     -1.440751     9A     -1.356173
      10A     -1.087921    11A     -1.056505    12A     -0.961542
      13A     -0.821396    14A     -0.796947    15A     -0.755588
      16A     -0.680546    17A     -0.650804    18A     -0.626399
      19A     -0.601946    20A     -0.600555    21A     -0.568646
      22A     -0.525481    23A     -0.506908    24A     -0.458115
      25A     -0.373173    26A     -0.321135

  @DF-RHF Final Energy:  -338.79373613732884

   => Energetics <=

    Nuclear Repulsion Energy =            296.2886372250194995
    One-Electron Energy =               -1047.8993857785742421
    Two-Electron Energy =                 412.8170124162258503
    Total Energy =                       -338.7937361373288354
  Basis Set: (AUG-CC-PVTZ AUX)
    Blend: AUG-CC-PVTZ-RI
    Molecular point group: c1

    Geometry (in Angstrom), charge = 0, multiplicity = 1:

       Center              X                  Y                   Z               Mass
    ------------   -----------------  -----------------  -----------------  -----------------
         O           -1.505941927994    -0.646082184209    -0.000004487724    15.994914619570
         N            0.791293072006    -1.022336184209    -0.000023487724    14.003074004430
         N            2.004081072006    -0.416426184209    -0.000080487724    14.003074004430
         C           -0.245256927994    -0.146219184209    -0.000024487724    12.000000000000
         C            0.305286072006     1.125618815791    -0.000055487724    12.000000000000
         C            1.647051672006     0.899607915791    -0.000091187724    12.000000000000
         C           -2.515179927994     0.368452815791     0.000239512276    12.000000000000
         H           -0.210362927994     2.073992815791    -0.000059487724     1.007825032230
         H            0.729302072006    -2.032438184209    -0.000010487724     1.007825032230
         H            2.496806072006     1.619801815791    -0.000126487724     1.007825032230
         H           -3.465835927994    -0.162314184209     0.000316512276     1.007825032230
         H           -2.433890927994     0.992736815791    -0.894876487724     1.007825032230
         H           -2.433636927994     0.992556815791     0.895458512276     1.007825032230

  Basis Set: AUG-CC-PVTZ
    Blend: AUG-CC-PVTZ
  Basis Set: (AUG-CC-PVTZ AUX)
    Blend: AUG-CC-PVTZ-JKFIT
	 Reference Energy          =    -338.7937361373288354 [Eh]
	 Singles Energy            =      -0.0000000000000000 [Eh]
	 Same-Spin Energy          =      -0.3542880808448973 [Eh]
	 Opposite-Spin Energy      =      -1.0847826487424781 [Eh]
	 Correlation Energy        =      -1.4390707295873755 [Eh]
	 Total Energy              =    -340.2328068669162349 [Eh]

	 ================> DF-SCS-MP2 Energies <==================
	-----------------------------------------------------------
	 SCS Same-Spin Scale       =       0.3333333333333333 [-]
	 SCS Opposite-Spin Scale   =       1.2000000000000000 [-]
	 SCS Same-Spin Energy      =      -0.1180960269482991 [Eh]
	 SCS Opposite-Spin Energy  =      -1.3017391784909738 [Eh]
	 SCS Correlation Energy    =      -1.4198352054392729 [Eh]
	 SCS Total Energy          =    -340.2135713427680912 [Eh]
	-----------------------------------------------------------

  Dipole Moment: [D]
     X:    -3.2220      Y:     0.6396      Z:     0.0003     Total:     3.2849

*** Psi4 exiting successfully. Buy a developer a beer!
