                               Psi4 1.3.2 release

  ==> Input File <==

--------------------------------------------------------------------------
#psi4
#
memory 32 gb

molecule  {
0 1
  O       -1.4607440    -0.6783760    -0.0000110
  N        0.8364910    -1.0546300    -0.0000300
  N        1.8703650    -0.5381056    -0.0000786
  C       -0.2000590    -0.1785130    -0.0000310
  C        0.3504840     1.0933250    -0.0000620
  C        1.7415550     0.8590090    -0.0000990
  C       -2.4699820     0.3361590     0.0002330
  H       -0.1651650     2.0416990    -0.0000660
  H        0.7745000    -2.0647320    -0.0000170
  H        2.5420040     1.5875080    -0.0001330
  H       -3.4206380    -0.1946080     0.0003100
  H       -2.3886930     0.9604430    -0.8948830
  H       -2.3884390     0.9602630     0.8954520
units angstrom
no_reorient  #important for SAPT in psi4, default
symmetry c1  #important for SAPT in psi4, default
}

set PROPERTIES_ORIGIN ["COM"]
properties('MP2/aug-cc-pvtz', properties = ['dipole'])
--------------------------------------------------------------------------

    Molecular point group: c1
  Charge       = 0
  Multiplicity = 1
  Basis Set: AUG-CC-PVTZ
    Blend: AUG-CC-PVTZ
  Basis Set: (AUG-CC-PVTZ AUX)
    Blend: AUG-CC-PVTZ-JKFIT

    Orbital Energies [Eh]
    ---------------------

    Doubly Occupied:

       1A    -20.598438     2A    -15.651365     3A    -15.574200
       4A    -11.316422     5A    -11.293911     6A    -11.246026
       7A    -11.224402     8A     -1.477111     9A     -1.412908
      10A     -1.080813    11A     -1.062811    12A     -0.948736
      13A     -0.836953    14A     -0.828420    15A     -0.747488
      16A     -0.684093    17A     -0.659547    18A     -0.635090
      19A     -0.633740    20A     -0.594477    21A     -0.585038
      22A     -0.520319    23A     -0.505609    24A     -0.431779
      25A     -0.373113    26A     -0.294855

  @DF-RHF Final Energy:  -338.75277811969971

   => Energetics <=

    Nuclear Repulsion Energy =            300.1502684992781269
    One-Electron Energy =               -1055.3707675353632567
    Two-Electron Energy =                 416.4677209163854172
    Total Energy =                       -338.7527781196997125
  Basis Set: (AUG-CC-PVTZ AUX)
    Blend: AUG-CC-PVTZ-RI
    Molecular point group: c1

    Geometry (in Angstrom), charge = 0, multiplicity = 1:

       Center              X                  Y                   Z               Mass
    ------------   -----------------  -----------------  -----------------  -----------------
         O           -1.486424131281    -0.632299810321    -0.000005528294    15.994914619570
         N            0.810810868719    -1.008553810321    -0.000024528294    14.003074004430
         N            1.844684868719    -0.492029410321    -0.000073128294    14.003074004430
         C           -0.225739131281    -0.132436810321    -0.000025528294    12.000000000000
         C            0.324803868719     1.139401189679    -0.000056528294    12.000000000000
         C            1.715874868719     0.905085189679    -0.000093528294    12.000000000000
         C           -2.495662131281     0.382235189679     0.000238471706    12.000000000000
         H           -0.190845131281     2.087775189679    -0.000060528294     1.007825032230
         H            0.748819868719    -2.018655810321    -0.000011528294     1.007825032230
         H            2.516323868719     1.633584189679    -0.000127528294     1.007825032230
         H           -3.446318131281    -0.148531810321     0.000315471706     1.007825032230
         H           -2.414373131281     1.006519189679    -0.894877528294     1.007825032230
         H           -2.414119131281     1.006339189679     0.895457471706     1.007825032230

  Basis Set: AUG-CC-PVTZ
    Blend: AUG-CC-PVTZ
  Basis Set: (AUG-CC-PVTZ AUX)
    Blend: AUG-CC-PVTZ-JKFIT
	 Reference Energy          =    -338.7527781196997125 [Eh]
	 Singles Energy            =      -0.0000000000000000 [Eh]
	 Same-Spin Energy          =      -0.3554312120664949 [Eh]
	 Opposite-Spin Energy      =      -1.0822862897240877 [Eh]
	 Correlation Energy        =      -1.4377175017905826 [Eh]
	 Total Energy              =    -340.1904956214902995 [Eh]

	 ================> DF-SCS-MP2 Energies <==================
	-----------------------------------------------------------
	 SCS Same-Spin Scale       =       0.3333333333333333 [-]
	 SCS Opposite-Spin Scale   =       1.2000000000000000 [-]
	 SCS Same-Spin Energy      =      -0.1184770706888316 [Eh]
	 SCS Opposite-Spin Energy  =      -1.2987435476689051 [Eh]
	 SCS Correlation Energy    =      -1.4172206183577367 [Eh]
	 SCS Total Energy          =    -340.1699987380574726 [Eh]
	-----------------------------------------------------------

  Dipole Moment: [D]
     X:    -2.7483      Y:     0.4337      Z:     0.0003     Total:     2.7823

*** Psi4 exiting successfully. Buy a developer a beer!
