                               Psi4 1.4a3.dev225

  ==> Input File <==

--------------------------------------------------------------------------
#psi4
#
memory 32 gb

molecule  {
0 1
  O       -1.4607440    -0.6783760    -0.0000110
  N        0.8364910    -1.0546300    -0.0000300
  N        2.0492790    -0.4487200    -0.0000870
  C       -0.2000590    -0.1785130    -0.0000310
  C        0.3504840     1.0933250    -0.0000620
  C        1.7461361     0.8395407    -0.0000988
  C       -2.4699820     0.3361590     0.0002330
  H       -0.1651650     2.0416990    -0.0000660
  H        0.7745000    -2.0647320    -0.0000170
  H        2.5420040     1.5875080    -0.0001330
  H       -3.4206380    -0.1946080     0.0003100
  H       -2.3886930     0.9604430    -0.8948830
  H       -2.3884390     0.9602630     0.8954520
units angstrom
no_reorient  #important for SAPT in psi4, default
symmetry c1  #important for SAPT in psi4, default
}

set PROPERTIES_ORIGIN ["COM"]
properties('MP2/aug-cc-pvtz', properties = ['dipole'])
--------------------------------------------------------------------------

    Molecular point group: c1
  Charge       = 0
  Multiplicity = 1
  Basis Set: AUG-CC-PVTZ
    Blend: AUG-CC-PVTZ
  Basis Set: (AUG-CC-PVTZ AUX)
    Blend: AUG-CC-PVTZ-JKFIT

    Orbital Energies [Eh]
    ---------------------

    Doubly Occupied:

       1A    -20.612526     2A    -15.628973     3A    -15.580134
       4A    -11.343096     5A    -11.300055     6A    -11.256943
       7A    -11.219619     8A     -1.440023     9A     -1.359204
      10A     -1.095238    11A     -1.047489    12A     -0.962054
      13A     -0.815368    14A     -0.800154    15A     -0.755266
      16A     -0.679489    17A     -0.649542    18A     -0.627109
      19A     -0.601124    20A     -0.596236    21A     -0.579922
      22A     -0.527329    23A     -0.507255    24A     -0.454067
      25A     -0.366188    26A     -0.328261

  @DF-RHF Final Energy:  -338.80079236286883

   => Energetics <=

    Nuclear Repulsion Energy =            295.9561597966578574
    One-Electron Energy =               -1047.2485743935503706
    Two-Electron Energy =                 412.4916222340236800
    Total Energy =                       -338.8007923628688332
  Basis Set: (AUG-CC-PVTZ AUX)
    Blend: AUG-CC-PVTZ-RI
    Molecular point group: c1

    Geometry (in Angstrom), charge = 0, multiplicity = 1:

       Center              X                  Y                   Z               Mass
    ------------   -----------------  -----------------  -----------------  -----------------
         O           -1.512537043809    -0.642683025058    -0.000004353096    15.994914619570
         N            0.784697956191    -1.018937025058    -0.000023353096    14.003074004430
         N            1.997485956191    -0.413027025058    -0.000080353096    14.003074004430
         C           -0.251852043809    -0.142820025058    -0.000024353096    12.000000000000
         C            0.298690956191     1.129017974942    -0.000055353096    12.000000000000
         C            1.694343056191     0.875233674942    -0.000092153096    12.000000000000
         C           -2.521775043809     0.371851974942     0.000239646904    12.000000000000
         H           -0.216958043809     2.077391974942    -0.000059353096     1.007825032230
         H            0.722706956191    -2.029039025058    -0.000010353096     1.007825032230
         H            2.490210956191     1.623200974942    -0.000126353096     1.007825032230
         H           -3.472431043809    -0.158915025058     0.000316646904     1.007825032230
         H           -2.440486043809     0.996135974942    -0.894876353096     1.007825032230
         H           -2.440232043809     0.995955974942     0.895458646904     1.007825032230

  Basis Set: AUG-CC-PVTZ
    Blend: AUG-CC-PVTZ
  Basis Set: (AUG-CC-PVTZ AUX)
    Blend: AUG-CC-PVTZ-JKFIT
	 Reference Energy          =    -338.8007923628688332 [Eh]
	 Singles Energy            =      -0.0000000000000000 [Eh]
	 Same-Spin Energy          =      -0.3526802477501667 [Eh]
	 Opposite-Spin Energy      =      -1.0822874743928725 [Eh]
	 Correlation Energy        =      -1.4349677221430392 [Eh]
	 Total Energy              =    -340.2357600850118615 [Eh]

	 ================> DF-SCS-MP2 Energies <==================
	-----------------------------------------------------------
	 SCS Same-Spin Scale       =       0.3333333333333333 [-]
	 SCS Opposite-Spin Scale   =       1.2000000000000000 [-]
	 SCS Same-Spin Energy      =      -0.1175600825833889 [Eh]
	 SCS Opposite-Spin Energy  =      -1.2987449692714470 [Eh]
	 SCS Correlation Energy    =      -1.4163050518548359 [Eh]
	 SCS Total Energy          =    -340.2170974147236961 [Eh]
	-----------------------------------------------------------

  Dipole Moment: [D]
     X:    -3.1086      Y:     0.6452      Z:     0.0003     Total:     3.1749

*** Psi4 exiting successfully. Buy a developer a beer!
