                               Psi4 1.4a3.dev225

  ==> Input File <==

--------------------------------------------------------------------------
#psi4
#
memory 32 gb

molecule  {
0 1
  O       -1.4607440    -0.6783760    -0.0000110
  N        0.8364910    -1.0546300    -0.0000300
  N        2.0492790    -0.4487200    -0.0000870
  C       -0.2000590    -0.1785130    -0.0000310
  C        0.3703465     1.1392105    -0.0000631
  C        1.7415550     0.8590090    -0.0000990
  C       -2.4699820     0.3361590     0.0002330
  H       -0.1651650     2.0416990    -0.0000660
  H        0.7745000    -2.0647320    -0.0000170
  H        2.5420040     1.5875080    -0.0001330
  H       -3.4206380    -0.1946080     0.0003100
  H       -2.3886930     0.9604430    -0.8948830
  H       -2.3884390     0.9602630     0.8954520
units angstrom
no_reorient  #important for SAPT in psi4, default
symmetry c1  #important for SAPT in psi4, default
}

set PROPERTIES_ORIGIN ["COM"]
properties('MP2/aug-cc-pvtz', properties = ['dipole'])
--------------------------------------------------------------------------

    Molecular point group: c1
  Charge       = 0
  Multiplicity = 1
  Basis Set: AUG-CC-PVTZ
    Blend: AUG-CC-PVTZ
  Basis Set: (AUG-CC-PVTZ AUX)
    Blend: AUG-CC-PVTZ-JKFIT

    Orbital Energies [Eh]
    ---------------------

    Doubly Occupied:

       1A    -20.614794     2A    -15.633963     3A    -15.577575
       4A    -11.349875     5A    -11.301355     6A    -11.256979
       7A    -11.222417     8A     -1.441202     9A     -1.355443
      10A     -1.092454    11A     -1.042613    12A     -0.961971
      13A     -0.819824    14A     -0.801251    15A     -0.755172
      16A     -0.679896    17A     -0.651655    18A     -0.628152
      19A     -0.604497    20A     -0.599105    21A     -0.576594
      22A     -0.524172    23A     -0.507851    24A     -0.454082
      25A     -0.368722    26A     -0.319780

  @DF-RHF Final Energy:  -338.79530196558323

   => Energetics <=

    Nuclear Repulsion Energy =            294.9023249805828186
    One-Electron Energy =               -1045.1124615324415572
    Two-Electron Energy =                 411.4148345862755605
    Total Energy =                       -338.7953019655832350
  Basis Set: (AUG-CC-PVTZ AUX)
    Blend: AUG-CC-PVTZ-RI
    Molecular point group: c1

    Geometry (in Angstrom), charge = 0, multiplicity = 1:

       Center              X                  Y                   Z               Mass
    ------------   -----------------  -----------------  -----------------  -----------------
         O           -1.514407319348    -0.650681612459    -0.000004193990    15.994914619570
         N            0.782827680652    -1.026935612459    -0.000023193990    14.003074004430
         N            1.995615680652    -0.421025612459    -0.000080193990    14.003074004430
         C           -0.253722319348    -0.150818612459    -0.000024193990    12.000000000000
         C            0.316683180652     1.166904887541    -0.000056293990    12.000000000000
         C            1.687891680652     0.886703387541    -0.000092193990    12.000000000000
         C           -2.523645319348     0.363853387541     0.000239806010    12.000000000000
         H           -0.218828319348     2.069393387541    -0.000059193990     1.007825032230
         H            0.720836680652    -2.037037612459    -0.000010193990     1.007825032230
         H            2.488340680652     1.615202387541    -0.000126193990     1.007825032230
         H           -3.474301319348    -0.166913612459     0.000316806010     1.007825032230
         H           -2.442356319348     0.988137387541    -0.894876193990     1.007825032230
         H           -2.442102319348     0.987957387541     0.895458806010     1.007825032230

  Basis Set: AUG-CC-PVTZ
    Blend: AUG-CC-PVTZ
  Basis Set: (AUG-CC-PVTZ AUX)
    Blend: AUG-CC-PVTZ-JKFIT
	 Reference Energy          =    -338.7953019655832350 [Eh]
	 Singles Energy            =      -0.0000000000000000 [Eh]
	 Same-Spin Energy          =      -0.3535663089887475 [Eh]
	 Opposite-Spin Energy      =      -1.0839502424580569 [Eh]
	 Correlation Energy        =      -1.4375165514468045 [Eh]
	 Total Energy              =    -340.2328185170300117 [Eh]

	 ================> DF-SCS-MP2 Energies <==================
	-----------------------------------------------------------
	 SCS Same-Spin Scale       =       0.3333333333333333 [-]
	 SCS Opposite-Spin Scale   =       1.2000000000000000 [-]
	 SCS Same-Spin Energy      =      -0.1178554363295825 [Eh]
	 SCS Opposite-Spin Energy  =      -1.3007402909496684 [Eh]
	 SCS Correlation Energy    =      -1.4185957272792509 [Eh]
	 SCS Total Energy          =    -340.2138976928624743 [Eh]
	-----------------------------------------------------------

  Dipole Moment: [D]
     X:    -3.1895      Y:     0.5810      Z:     0.0003     Total:     3.2420

*** Psi4 exiting successfully. Buy a developer a beer!
