                               Psi4 1.4a3.dev225

  ==> Input File <==

--------------------------------------------------------------------------
#psi4
#
memory 32 gb

molecule  {
0 1
  O       -1.4607440    -0.6783760    -0.0000110
  N        0.8364910    -1.0546300    -0.0000300
  N        2.0492790    -0.4487200    -0.0000870
  C       -0.2000590    -0.1785130    -0.0000310
  C        0.3504840     1.0933250    -0.0000620
  C        1.7530078     0.8103383    -0.0000986
  C       -2.4699820     0.3361590     0.0002330
  H       -0.1651650     2.0416990    -0.0000660
  H        0.7745000    -2.0647320    -0.0000170
  H        2.5420040     1.5875080    -0.0001330
  H       -3.4206380    -0.1946080     0.0003100
  H       -2.3886930     0.9604430    -0.8948830
  H       -2.3884390     0.9602630     0.8954520
units angstrom
no_reorient  #important for SAPT in psi4, default
symmetry c1  #important for SAPT in psi4, default
}

set PROPERTIES_ORIGIN ["COM"]
properties('MP2/aug-cc-pvtz', properties = ['dipole'])
--------------------------------------------------------------------------

    Molecular point group: c1
  Charge       = 0
  Multiplicity = 1
  Basis Set: AUG-CC-PVTZ
    Blend: AUG-CC-PVTZ
  Basis Set: (AUG-CC-PVTZ AUX)
    Blend: AUG-CC-PVTZ-JKFIT

    Orbital Energies [Eh]
    ---------------------

    Doubly Occupied:

       1A    -20.612441     2A    -15.626874     3A    -15.578920
       4A    -11.343262     5A    -11.299843     6A    -11.256255
       7A    -11.218826     8A     -1.440155     9A     -1.363958
      10A     -1.101765    11A     -1.045665    12A     -0.962856
      13A     -0.811294    14A     -0.800455    15A     -0.755801
      16A     -0.679434    17A     -0.648930    18A     -0.629544
      19A     -0.603255    20A     -0.594129    21A     -0.578794
      22A     -0.526993    23A     -0.508133    24A     -0.453153
      25A     -0.366510    26A     -0.331509

  @DF-RHF Final Energy:  -338.80061997377544

   => Energetics <=

    Nuclear Repulsion Energy =            296.3391132979647864
    One-Electron Energy =               -1048.0019606437481343
    Two-Electron Energy =                 412.8622273720079079
    Total Energy =                       -338.8006199737754400
  Basis Set: (AUG-CC-PVTZ AUX)
    Blend: AUG-CC-PVTZ-RI
    Molecular point group: c1

    Geometry (in Angstrom), charge = 0, multiplicity = 1:

       Center              X                  Y                   Z               Mass
    ------------   -----------------  -----------------  -----------------  -----------------
         O           -1.513378064424    -0.639108972001    -0.000004377574    15.994914619570
         N            0.783856935576    -1.015362972001    -0.000023377574    14.003074004430
         N            1.996644935576    -0.409452972001    -0.000080377574    14.003074004430
         C           -0.252693064424    -0.139245972001    -0.000024377574    12.000000000000
         C            0.297849935576     1.132592027999    -0.000055377574    12.000000000000
         C            1.700373735576     0.849605327999    -0.000091977574    12.000000000000
         C           -2.522616064424     0.375426027999     0.000239622426    12.000000000000
         H           -0.217799064424     2.080966027999    -0.000059377574     1.007825032230
         H            0.721865935576    -2.025464972001    -0.000010377574     1.007825032230
         H            2.489369935576     1.626775027999    -0.000126377574     1.007825032230
         H           -3.473272064424    -0.155340972001     0.000316622426     1.007825032230
         H           -2.441327064424     0.999710027999    -0.894876377574     1.007825032230
         H           -2.441073064424     0.999530027999     0.895458622426     1.007825032230

  Basis Set: AUG-CC-PVTZ
    Blend: AUG-CC-PVTZ
  Basis Set: (AUG-CC-PVTZ AUX)
    Blend: AUG-CC-PVTZ-JKFIT
	 Reference Energy          =    -338.8006199737754400 [Eh]
	 Singles Energy            =      -0.0000000000000000 [Eh]
	 Same-Spin Energy          =      -0.3518650915088096 [Eh]
	 Opposite-Spin Energy      =      -1.0808102381386342 [Eh]
	 Correlation Energy        =      -1.4326753296474437 [Eh]
	 Total Energy              =    -340.2332953034228922 [Eh]

	 ================> DF-SCS-MP2 Energies <==================
	-----------------------------------------------------------
	 SCS Same-Spin Scale       =       0.3333333333333333 [-]
	 SCS Opposite-Spin Scale   =       1.2000000000000000 [-]
	 SCS Same-Spin Energy      =      -0.1172883638362699 [Eh]
	 SCS Opposite-Spin Energy  =      -1.2969722857663610 [Eh]
	 SCS Correlation Energy    =      -1.4142606496026309 [Eh]
	 SCS Total Energy          =    -340.2148806233780647 [Eh]
	-----------------------------------------------------------

  Dipole Moment: [D]
     X:    -3.0761      Y:     0.6398      Z:     0.0003     Total:     3.1420

*** Psi4 exiting successfully. Buy a developer a beer!
