                               Psi4 1.3.2 release

  ==> Input File <==

--------------------------------------------------------------------------
#psi4
#
memory 32 gb

molecule  {
0 1
  O       -1.4607440    -0.6783760    -0.0000110
  N        0.8364910    -1.0546300    -0.0000300
  N        2.0385197    -0.4276462    -0.0000868
  C       -0.2000590    -0.1785130    -0.0000310
  C        0.3504840     1.0933250    -0.0000620
  C        1.7415550     0.8590090    -0.0000990
  C       -2.4699820     0.3361590     0.0002330
  H       -0.1651650     2.0416990    -0.0000660
  H        0.7745000    -2.0647320    -0.0000170
  H        2.5420040     1.5875080    -0.0001330
  H       -3.4206380    -0.1946080     0.0003100
  H       -2.3886930     0.9604430    -0.8948830
  H       -2.3884390     0.9602630     0.8954520
units angstrom
no_reorient  #important for SAPT in psi4, default
symmetry c1  #important for SAPT in psi4, default
}

set PROPERTIES_ORIGIN ["COM"]
properties('MP2/aug-cc-pvtz', properties = ['dipole'])
--------------------------------------------------------------------------

    Molecular point group: c1
  Charge       = 0
  Multiplicity = 1
  Basis Set: AUG-CC-PVTZ
    Blend: AUG-CC-PVTZ
  Basis Set: (AUG-CC-PVTZ AUX)
    Blend: AUG-CC-PVTZ-JKFIT

    Orbital Energies [Eh]
    ---------------------

    Doubly Occupied:

       1A    -20.612150     2A    -15.629468     3A    -15.578097
       4A    -11.342334     5A    -11.299675     6A    -11.254404
       7A    -11.218311     8A     -1.439699     9A     -1.358954
      10A     -1.097136    11A     -1.046238    12A     -0.961682
      13A     -0.817994    14A     -0.799818    15A     -0.755127
      16A     -0.679197    17A     -0.650140    18A     -0.627205
      19A     -0.601020    20A     -0.598497    21A     -0.581948
      22A     -0.527541    23A     -0.506925    24A     -0.450496
      25A     -0.367854    26A     -0.326890

  @DF-RHF Final Energy:  -338.80144807298808

   => Energetics <=

    Nuclear Repulsion Energy =            296.2059831830230792
    One-Electron Energy =               -1047.7572628599582458
    Two-Electron Energy =                 412.7498316039470296
    Total Energy =                       -338.8014480729880802
  Basis Set: (AUG-CC-PVTZ AUX)
    Blend: AUG-CC-PVTZ-RI
    Molecular point group: c1

    Geometry (in Angstrom), charge = 0, multiplicity = 1:

       Center              X                  Y                   Z               Mass
    ------------   -----------------  -----------------  -----------------  -----------------
         O           -1.510439739966    -0.648075460516    -0.000004357182    15.994914619570
         N            0.786795260034    -1.024329460516    -0.000023357182    14.003074004430
         N            1.988823960034    -0.397345660516    -0.000080157182    14.003074004430
         C           -0.249754739966    -0.148212460516    -0.000024357182    12.000000000000
         C            0.300788260034     1.123625539484    -0.000055357182    12.000000000000
         C            1.691859260034     0.889309539484    -0.000092357182    12.000000000000
         C           -2.519677739966     0.366459539484     0.000239642818    12.000000000000
         H           -0.214860739966     2.071999539484    -0.000059357182     1.007825032230
         H            0.724804260034    -2.034431460516    -0.000010357182     1.007825032230
         H            2.492308260034     1.617808539484    -0.000126357182     1.007825032230
         H           -3.470333739966    -0.164307460516     0.000316642818     1.007825032230
         H           -2.438388739966     0.990743539484    -0.894876357182     1.007825032230
         H           -2.438134739966     0.990563539484     0.895458642818     1.007825032230

  Basis Set: AUG-CC-PVTZ
    Blend: AUG-CC-PVTZ
  Basis Set: (AUG-CC-PVTZ AUX)
    Blend: AUG-CC-PVTZ-JKFIT
	 Reference Energy          =    -338.8014480729880802 [Eh]
	 Singles Energy            =      -0.0000000000000000 [Eh]
	 Same-Spin Energy          =      -0.3526166719649170 [Eh]
	 Opposite-Spin Energy      =      -1.0819936205905256 [Eh]
	 Correlation Energy        =      -1.4346102925554427 [Eh]
	 Total Energy              =    -340.2360583655434993 [Eh]

	 ================> DF-SCS-MP2 Energies <==================
	-----------------------------------------------------------
	 SCS Same-Spin Scale       =       0.3333333333333333 [-]
	 SCS Opposite-Spin Scale   =       1.2000000000000000 [-]
	 SCS Same-Spin Energy      =      -0.1175388906549723 [Eh]
	 SCS Opposite-Spin Energy  =      -1.2983923447086307 [Eh]
	 SCS Correlation Energy    =      -1.4159312353636031 [Eh]
	 SCS Total Energy          =    -340.2173793083516671 [Eh]
	-----------------------------------------------------------

  Dipole Moment: [D]
     X:    -3.0782      Y:     0.6218      Z:     0.0003     Total:     3.1404

*** Psi4 exiting successfully. Buy a developer a beer!
