                               Psi4 1.3.2 release

  ==> Input File <==

--------------------------------------------------------------------------
#psi4
#
memory 32 gb

molecule  {
0 1
  O       -1.4607440    -0.6783760    -0.0000110
  N        0.8364910    -1.0546300    -0.0000300
  N        2.0492790    -0.4487200    -0.0000870
  C       -0.2000590    -0.1785130    -0.0000310
  C        0.3504840     1.0933250    -0.0000620
  C        1.7545115     0.9566160    -0.0001014
  C       -2.4699820     0.3361590     0.0002330
  H       -0.1651650     2.0416990    -0.0000660
  H        0.7745000    -2.0647320    -0.0000170
  H        2.5420040     1.5875080    -0.0001330
  H       -3.4206380    -0.1946080     0.0003100
  H       -2.3886930     0.9604430    -0.8948830
  H       -2.3884390     0.9602630     0.8954520
units angstrom
no_reorient  #important for SAPT in psi4, default
symmetry c1  #important for SAPT in psi4, default
}

set PROPERTIES_ORIGIN ["COM"]
properties('MP2/aug-cc-pvtz', properties = ['dipole'])
--------------------------------------------------------------------------

    Molecular point group: c1
  Charge       = 0
  Multiplicity = 1
  Basis Set: AUG-CC-PVTZ
    Blend: AUG-CC-PVTZ
  Basis Set: (AUG-CC-PVTZ AUX)
    Blend: AUG-CC-PVTZ-JKFIT

    Orbital Energies [Eh]
    ---------------------

    Doubly Occupied:

       1A    -20.612645     2A    -15.637470     3A    -15.586050
       4A    -11.341934     5A    -11.300310     6A    -11.261422
       7A    -11.225627     8A     -1.439507     9A     -1.344684
      10A     -1.077153    11A     -1.046785    12A     -0.958524
      13A     -0.833602    14A     -0.799804    15A     -0.753570
      16A     -0.679370    17A     -0.654422    18A     -0.619307
      19A     -0.610514    20A     -0.594330    21A     -0.581372
      22A     -0.530883    23A     -0.504320    24A     -0.444768
      25A     -0.366708    26A     -0.314201

  @DF-RHF Final Energy:  -338.77928261658900

   => Energetics <=

    Nuclear Repulsion Energy =            294.0340673867527812
    One-Electron Energy =               -1043.3881368658126121
    Two-Electron Energy =                 410.5747868624708303
    Total Energy =                       -338.7792826165890006
  Basis Set: (AUG-CC-PVTZ AUX)
    Blend: AUG-CC-PVTZ-RI
    Molecular point group: c1

    Geometry (in Angstrom), charge = 0, multiplicity = 1:

       Center              X                  Y                   Z               Mass
    ------------   -----------------  -----------------  -----------------  -----------------
         O           -1.513562100790    -0.657011756050    -0.000004034885    15.994914619570
         N            0.783672899210    -1.033265756050    -0.000023034885    14.003074004430
         N            1.996460899210    -0.427355756050    -0.000080034885    14.003074004430
         C           -0.252877100790    -0.157148756050    -0.000024034885    12.000000000000
         C            0.297665899210     1.114689243950    -0.000055034885    12.000000000000
         C            1.701693399210     0.977980243950    -0.000094434885    12.000000000000
         C           -2.522800100790     0.357523243950     0.000239965115    12.000000000000
         H           -0.217983100790     2.063063243950    -0.000059034885     1.007825032230
         H            0.721681899210    -2.043367756050    -0.000010034885     1.007825032230
         H            2.489185899210     1.608872243950    -0.000126034885     1.007825032230
         H           -3.473456100790    -0.173243756050     0.000316965115     1.007825032230
         H           -2.441511100790     0.981807243950    -0.894876034885     1.007825032230
         H           -2.441257100790     0.981627243950     0.895458965115     1.007825032230

  Basis Set: AUG-CC-PVTZ
    Blend: AUG-CC-PVTZ
  Basis Set: (AUG-CC-PVTZ AUX)
    Blend: AUG-CC-PVTZ-JKFIT
	 Reference Energy          =    -338.7792826165890006 [Eh]
	 Singles Energy            =      -0.0000000000000000 [Eh]
	 Same-Spin Energy          =      -0.3557931978553469 [Eh]
	 Opposite-Spin Energy      =      -1.0887051393795804 [Eh]
	 Correlation Energy        =      -1.4444983372349272 [Eh]
	 Total Energy              =    -340.2237809538239048 [Eh]

	 ================> DF-SCS-MP2 Energies <==================
	-----------------------------------------------------------
	 SCS Same-Spin Scale       =       0.3333333333333333 [-]
	 SCS Opposite-Spin Scale   =       1.2000000000000000 [-]
	 SCS Same-Spin Energy      =      -0.1185977326184489 [Eh]
	 SCS Opposite-Spin Energy  =      -1.3064461672554963 [Eh]
	 SCS Correlation Energy    =      -1.4250438998739452 [Eh]
	 SCS Total Energy          =    -340.2043265164629702 [Eh]
	-----------------------------------------------------------

  Dipole Moment: [D]
     X:    -3.1634      Y:     0.6346      Z:     0.0003     Total:     3.2264

*** Psi4 exiting successfully. Buy a developer a beer!
