                               Psi4 1.3.2 release

  ==> Input File <==

--------------------------------------------------------------------------
#psi4
#
memory 32 gb

molecule  {
0 1
  O       -1.4607440    -0.6783760    -0.0000110
  N        0.8583758    -1.0965866    -0.0000301
  N        2.0492790    -0.4487200    -0.0000870
  C       -0.2000590    -0.1785130    -0.0000310
  C        0.3504840     1.0933250    -0.0000620
  C        1.7415550     0.8590090    -0.0000990
  C       -2.4699820     0.3361590     0.0002330
  H       -0.1651650     2.0416990    -0.0000660
  H        0.7745000    -2.0647320    -0.0000170
  H        2.5420040     1.5875080    -0.0001330
  H       -3.4206380    -0.1946080     0.0003100
  H       -2.3886930     0.9604430    -0.8948830
  H       -2.3884390     0.9602630     0.8954520
units angstrom
no_reorient  #important for SAPT in psi4, default
symmetry c1  #important for SAPT in psi4, default
}

set PROPERTIES_ORIGIN ["COM"]
properties('MP2/aug-cc-pvtz', properties = ['dipole'])
--------------------------------------------------------------------------

    Molecular point group: c1
  Charge       = 0
  Multiplicity = 1
  Basis Set: AUG-CC-PVTZ
    Blend: AUG-CC-PVTZ
  Basis Set: (AUG-CC-PVTZ AUX)
    Blend: AUG-CC-PVTZ-JKFIT

    Orbital Energies [Eh]
    ---------------------

    Doubly Occupied:

       1A    -20.612697     2A    -15.627385     3A    -15.582519
       4A    -11.346967     5A    -11.300271     6A    -11.258237
       7A    -11.223447     8A     -1.438139     9A     -1.349801
      10A     -1.090089    11A     -1.047432    12A     -0.961774
      13A     -0.827090    14A     -0.793346    15A     -0.753381
      16A     -0.677910    17A     -0.654835    18A     -0.629132
      19A     -0.598852    20A     -0.594873    21A     -0.582143
      22A     -0.528230    23A     -0.506955    24A     -0.448667
      25A     -0.368966    26A     -0.322922

  @DF-RHF Final Energy:  -338.79529944116371

   => Energetics <=

    Nuclear Repulsion Energy =            294.7324977592671189
    One-Electron Energy =               -1044.8034699703075603
    Two-Electron Energy =                 411.2756727698767918
    Total Energy =                       -338.7952994411637064
  Basis Set: (AUG-CC-PVTZ AUX)
    Blend: AUG-CC-PVTZ-RI
    Molecular point group: c1

    Geometry (in Angstrom), charge = 0, multiplicity = 1:

       Center              X                  Y                   Z               Mass
    ------------   -----------------  -----------------  -----------------  -----------------
         O           -1.515101922655    -0.639073550836    -0.000004314336    15.994914619570
         N            0.804017877345    -1.057284150836    -0.000023414336    14.003074004430
         N            1.994921077345    -0.409417550836    -0.000080314336    14.003074004430
         C           -0.254416922655    -0.139210550836    -0.000024314336    12.000000000000
         C            0.296126077345     1.132627449164    -0.000055314336    12.000000000000
         C            1.687197077345     0.898311449164    -0.000092314336    12.000000000000
         C           -2.524339922655     0.375461449164     0.000239685664    12.000000000000
         H           -0.219522922655     2.081001449164    -0.000059314336     1.007825032230
         H            0.720142077345    -2.025429550836    -0.000010314336     1.007825032230
         H            2.487646077345     1.626810449164    -0.000126314336     1.007825032230
         H           -3.474995922655    -0.155305550836     0.000316685664     1.007825032230
         H           -2.443050922655     0.999745449164    -0.894876314336     1.007825032230
         H           -2.442796922655     0.999565449164     0.895458685664     1.007825032230

  Basis Set: AUG-CC-PVTZ
    Blend: AUG-CC-PVTZ
  Basis Set: (AUG-CC-PVTZ AUX)
    Blend: AUG-CC-PVTZ-JKFIT
	 Reference Energy          =    -338.7952994411637064 [Eh]
	 Singles Energy            =      -0.0000000000000000 [Eh]
	 Same-Spin Energy          =      -0.3531522429908401 [Eh]
	 Opposite-Spin Energy      =      -1.0838580571789986 [Eh]
	 Correlation Energy        =      -1.4370103001698387 [Eh]
	 Total Energy              =    -340.2323097413335518 [Eh]

	 ================> DF-SCS-MP2 Energies <==================
	-----------------------------------------------------------
	 SCS Same-Spin Scale       =       0.3333333333333333 [-]
	 SCS Opposite-Spin Scale   =       1.2000000000000000 [-]
	 SCS Same-Spin Energy      =      -0.1177174143302800 [Eh]
	 SCS Opposite-Spin Energy  =      -1.3006296686147982 [Eh]
	 SCS Correlation Energy    =      -1.4183470829450782 [Eh]
	 SCS Total Energy          =    -340.2136465241088104 [Eh]
	-----------------------------------------------------------

  Dipole Moment: [D]
     X:    -3.1505      Y:     0.7460      Z:     0.0003     Total:     3.2376

*** Psi4 exiting successfully. Buy a developer a beer!
