                               Psi4 1.4a3.dev225

  ==> Input File <==

--------------------------------------------------------------------------
#psi4
#
memory 32 gb

molecule  {
0 1
  O       -1.4607440    -0.6783760    -0.0000110
  N        0.8364910    -1.0546300    -0.0000300
  N        2.0045505    -0.4710664    -0.0000849
  C       -0.2000590    -0.1785130    -0.0000310
  C        0.3504840     1.0933250    -0.0000620
  C        1.7415550     0.8590090    -0.0000990
  C       -2.4699820     0.3361590     0.0002330
  H       -0.1651650     2.0416990    -0.0000660
  H        0.7745000    -2.0647320    -0.0000170
  H        2.5420040     1.5875080    -0.0001330
  H       -3.4206380    -0.1946080     0.0003100
  H       -2.3886930     0.9604430    -0.8948830
  H       -2.3884390     0.9602630     0.8954520
units angstrom
no_reorient  #important for SAPT in psi4, default
symmetry c1  #important for SAPT in psi4, default
}

set PROPERTIES_ORIGIN ["COM"]
properties('MP2/aug-cc-pvtz', properties = ['dipole'])
--------------------------------------------------------------------------

    Molecular point group: c1
  Charge       = 0
  Multiplicity = 1
  Basis Set: AUG-CC-PVTZ
    Blend: AUG-CC-PVTZ
  Basis Set: (AUG-CC-PVTZ AUX)
    Blend: AUG-CC-PVTZ-JKFIT

    Orbital Energies [Eh]
    ---------------------

    Doubly Occupied:

       1A    -20.609600     2A    -15.635241     3A    -15.578121
       4A    -11.337465     5A    -11.298900     6A    -11.254807
       7A    -11.220962     8A     -1.439721     9A     -1.374677
      10A     -1.085921    11A     -1.053703    12A     -0.958674
      13A     -0.821432    14A     -0.806856    15A     -0.753762
      16A     -0.679150    17A     -0.650429    18A     -0.629015
      19A     -0.607229    20A     -0.597928    21A     -0.583012
      22A     -0.526308    23A     -0.506760    24A     -0.448748
      25A     -0.366473    26A     -0.319847

  @DF-RHF Final Energy:  -338.79789883774231

   => Energetics <=

    Nuclear Repulsion Energy =            296.7372825669107215
    One-Electron Energy =               -1048.7808756782292221
    Two-Electron Energy =                 413.2456942735761913
    Total Energy =                       -338.7978988377423093
  Basis Set: (AUG-CC-PVTZ AUX)
    Blend: AUG-CC-PVTZ-RI
    Molecular point group: c1

    Geometry (in Angstrom), charge = 0, multiplicity = 1:

       Center              X                  Y                   Z               Mass
    ------------   -----------------  -----------------  -----------------  -----------------
         O           -1.505588308430    -0.641874250962    -0.000004628537    15.994914619570
         N            0.791646691570    -1.018128250962    -0.000023628537    14.003074004430
         N            1.959706191570    -0.434564650962    -0.000078528537    14.003074004430
         C           -0.244903308430    -0.142011250962    -0.000024628537    12.000000000000
         C            0.305639691570     1.129826749038    -0.000055628537    12.000000000000
         C            1.696710691570     0.895510749038    -0.000092628537    12.000000000000
         C           -2.514826308430     0.372660749038     0.000239371463    12.000000000000
         H           -0.210009308430     2.078200749038    -0.000059628537     1.007825032230
         H            0.729655691570    -2.028230250962    -0.000010628537     1.007825032230
         H            2.497159691570     1.624009749038    -0.000126628537     1.007825032230
         H           -3.465482308430    -0.158106250962     0.000316371463     1.007825032230
         H           -2.433537308430     0.996944749038    -0.894876628537     1.007825032230
         H           -2.433283308430     0.996764749038     0.895458371463     1.007825032230

  Basis Set: AUG-CC-PVTZ
    Blend: AUG-CC-PVTZ
  Basis Set: (AUG-CC-PVTZ AUX)
    Blend: AUG-CC-PVTZ-JKFIT
	 Reference Energy          =    -338.7978988377423093 [Eh]
	 Singles Energy            =      -0.0000000000000000 [Eh]
	 Same-Spin Energy          =      -0.3538340303717097 [Eh]
	 Opposite-Spin Energy      =      -1.0830523921564001 [Eh]
	 Correlation Energy        =      -1.4368864225281099 [Eh]
	 Total Energy              =    -340.2347852602704279 [Eh]

	 ================> DF-SCS-MP2 Energies <==================
	-----------------------------------------------------------
	 SCS Same-Spin Scale       =       0.3333333333333333 [-]
	 SCS Opposite-Spin Scale   =       1.2000000000000000 [-]
	 SCS Same-Spin Energy      =      -0.1179446767905699 [Eh]
	 SCS Opposite-Spin Energy  =      -1.2996628705876800 [Eh]
	 SCS Correlation Energy    =      -1.4176075473782499 [Eh]
	 SCS Total Energy          =    -340.2155063851205341 [Eh]
	-----------------------------------------------------------

  Dipole Moment: [D]
     X:    -3.0610      Y:     0.5977      Z:     0.0003     Total:     3.1188

*** Psi4 exiting successfully. Buy a developer a beer!
