                               Psi4 1.3.2 release

  ==> Input File <==

--------------------------------------------------------------------------
#psi4
#
memory 32 gb

molecule  {
0 1
  O       -1.4607440    -0.6783760    -0.0000110
  N        0.8364910    -1.0546300    -0.0000300
  N        2.0492790    -0.4487200    -0.0000870
  C       -0.2000590    -0.1785130    -0.0000310
  C        0.3504840     1.0933250    -0.0000620
  C        1.7415550     0.8590090    -0.0000990
  C       -2.4699820     0.3361590     0.0002330
  H       -0.2607003     2.2174061    -0.0000667
  H        0.7745000    -2.0647320    -0.0000170
  H        2.5420040     1.5875080    -0.0001330
  H       -3.4206380    -0.1946080     0.0003100
  H       -2.3886930     0.9604430    -0.8948830
  H       -2.3884390     0.9602630     0.8954520
units angstrom
no_reorient  #important for SAPT in psi4, default
symmetry c1  #important for SAPT in psi4, default
}

set PROPERTIES_ORIGIN ["COM"]
properties('MP2/aug-cc-pvtz', properties = ['dipole'])
--------------------------------------------------------------------------

    Molecular point group: c1
  Charge       = 0
  Multiplicity = 1
  Basis Set: AUG-CC-PVTZ
    Blend: AUG-CC-PVTZ
  Basis Set: (AUG-CC-PVTZ AUX)
    Blend: AUG-CC-PVTZ-JKFIT

    Orbital Energies [Eh]
    ---------------------

    Doubly Occupied:

       1A    -20.612737     2A    -15.631887     3A    -15.582411
       4A    -11.344993     5A    -11.299405     6A    -11.259552
       7A    -11.241069     8A     -1.440249     9A     -1.357818
      10A     -1.092405    11A     -1.046002    12A     -0.960469
      13A     -0.818224    14A     -0.789056    15A     -0.753571
      16A     -0.679563    17A     -0.644329    18A     -0.622778
      19A     -0.600881    20A     -0.586374    21A     -0.563661
      22A     -0.521827    23A     -0.506712    24A     -0.453958
      25A     -0.367950    26A     -0.327008

  @DF-RHF Final Energy:  -338.77641617454293

   => Energetics <=

    Nuclear Repulsion Energy =            294.8318763428517286
    One-Electron Energy =               -1045.0068072982812737
    Two-Electron Energy =                 411.3985147808866145
    Total Energy =                       -338.7764161745429305
  Basis Set: (AUG-CC-PVTZ AUX)
    Blend: AUG-CC-PVTZ-RI
    Molecular point group: c1

    Geometry (in Angstrom), charge = 0, multiplicity = 1:

       Center              X                  Y                   Z               Mass
    ------------   -----------------  -----------------  -----------------  -----------------
         O           -1.510994370353    -0.646871805656    -0.000004321423    15.994914619570
         N            0.786240629647    -1.023125805656    -0.000023321423    14.003074004430
         N            1.999028629647    -0.417215805656    -0.000080321423    14.003074004430
         C           -0.250309370353    -0.147008805656    -0.000024321423    12.000000000000
         C            0.300233629647     1.124829194344    -0.000055321423    12.000000000000
         C            1.691304629647     0.890513194344    -0.000092321423    12.000000000000
         C           -2.520232370353     0.367663194344     0.000239678577    12.000000000000
         H           -0.310950670353     2.248910294344    -0.000060021423     1.007825032230
         H            0.724249629647    -2.033227805656    -0.000010321423     1.007825032230
         H            2.491753629647     1.619012194344    -0.000126321423     1.007825032230
         H           -3.470888370353    -0.163103805656     0.000316678577     1.007825032230
         H           -2.438943370353     0.991947194344    -0.894876321423     1.007825032230
         H           -2.438689370353     0.991767194344     0.895458678577     1.007825032230

  Basis Set: AUG-CC-PVTZ
    Blend: AUG-CC-PVTZ
  Basis Set: (AUG-CC-PVTZ AUX)
    Blend: AUG-CC-PVTZ-JKFIT
	 Reference Energy          =    -338.7764161745429305 [Eh]
	 Singles Energy            =      -0.0000000000000000 [Eh]
	 Same-Spin Energy          =      -0.3537052183858556 [Eh]
	 Opposite-Spin Energy      =      -1.0852260862198586 [Eh]
	 Correlation Energy        =      -1.4389313046057142 [Eh]
	 Total Energy              =    -340.2153474791486474 [Eh]

	 ================> DF-SCS-MP2 Energies <==================
	-----------------------------------------------------------
	 SCS Same-Spin Scale       =       0.3333333333333333 [-]
	 SCS Opposite-Spin Scale   =       1.2000000000000000 [-]
	 SCS Same-Spin Energy      =      -0.1179017394619518 [Eh]
	 SCS Opposite-Spin Energy  =      -1.3022713034638302 [Eh]
	 SCS Correlation Energy    =      -1.4201730429257822 [Eh]
	 SCS Total Energy          =    -340.1965892174687269 [Eh]
	-----------------------------------------------------------

  Dipole Moment: [D]
     X:    -3.0974      Y:     0.6363      Z:     0.0003     Total:     3.1621

*** Psi4 exiting successfully. Buy a developer a beer!
