                               Psi4 1.4a3.dev225

  ==> Input File <==

--------------------------------------------------------------------------
#psi4
#
memory 32 gb

molecule  {
0 1
  O       -1.4607440    -0.6783760    -0.0000110
  N        0.8364910    -1.0546300    -0.0000300
  N        2.0492790    -0.4487200    -0.0000870
  C       -0.2000590    -0.1785130    -0.0000310
  C        0.3584290     1.1116792    -0.0000624
  C        1.7415550     0.8590090    -0.0000990
  C       -2.4699820     0.3361590     0.0002330
  H       -0.1651650     2.0416990    -0.0000660
  H        0.7745000    -2.0647320    -0.0000170
  H        2.5420040     1.5875080    -0.0001330
  H       -3.4206380    -0.1946080     0.0003100
  H       -2.3886930     0.9604430    -0.8948830
  H       -2.3884390     0.9602630     0.8954520
units angstrom
no_reorient  #important for SAPT in psi4, default
symmetry c1  #important for SAPT in psi4, default
}

set PROPERTIES_ORIGIN ["COM"]
properties('MP2/aug-cc-pvtz', properties = ['dipole'])
--------------------------------------------------------------------------

    Molecular point group: c1
  Charge       = 0
  Multiplicity = 1
  Basis Set: AUG-CC-PVTZ
    Blend: AUG-CC-PVTZ
  Basis Set: (AUG-CC-PVTZ AUX)
    Blend: AUG-CC-PVTZ-JKFIT

    Orbital Energies [Eh]
    ---------------------

    Doubly Occupied:

       1A    -20.613489     2A    -15.631864     3A    -15.579507
       4A    -11.345843     5A    -11.300671     6A    -11.257174
       7A    -11.221067     8A     -1.440465     9A     -1.355967
      10A     -1.091758    11A     -1.046029    12A     -0.961693
      13A     -0.818637    14A     -0.800596    15A     -0.755042
      16A     -0.679677    17A     -0.650417    18A     -0.626287
      19A     -0.601192    20A     -0.599545    21A     -0.578814
      22A     -0.526491    23A     -0.507181    24A     -0.454057
      25A     -0.367371    26A     -0.323266

  @DF-RHF Final Energy:  -338.79857017389003

   => Energetics <=

    Nuclear Repulsion Energy =            295.3826153448770242
    One-Electron Energy =               -1046.0941730027232097
    Two-Electron Energy =                 411.9129874839562149
    Total Energy =                       -338.7985701738900275
  Basis Set: (AUG-CC-PVTZ AUX)
    Blend: AUG-CC-PVTZ-RI
    Molecular point group: c1

    Geometry (in Angstrom), charge = 0, multiplicity = 1:

       Center              X                  Y                   Z               Mass
    ------------   -----------------  -----------------  -----------------  -----------------
         O           -1.512948748227    -0.647312083689    -0.000004279663    15.994914619570
         N            0.784286251773    -1.023566083689    -0.000023279663    14.003074004430
         N            1.997074251773    -0.417656083689    -0.000080279663    14.003074004430
         C           -0.252263748227    -0.147449083689    -0.000024279663    12.000000000000
         C            0.306224251773     1.142743116311    -0.000055679663    12.000000000000
         C            1.689350251773     0.890072916311    -0.000092279663    12.000000000000
         C           -2.522186748227     0.367222916311     0.000239720337    12.000000000000
         H           -0.217369748227     2.072762916311    -0.000059279663     1.007825032230
         H            0.722295251773    -2.033668083689    -0.000010279663     1.007825032230
         H            2.489799251773     1.618571916311    -0.000126279663     1.007825032230
         H           -3.472842748227    -0.163544083689     0.000316720337     1.007825032230
         H           -2.440897748227     0.991506916311    -0.894876279663     1.007825032230
         H           -2.440643748227     0.991326916311     0.895458720337     1.007825032230

  Basis Set: AUG-CC-PVTZ
    Blend: AUG-CC-PVTZ
  Basis Set: (AUG-CC-PVTZ AUX)
    Blend: AUG-CC-PVTZ-JKFIT
	 Reference Energy          =    -338.7985701738900275 [Eh]
	 Singles Energy            =      -0.0000000000000000 [Eh]
	 Same-Spin Energy          =      -0.3533731908253914 [Eh]
	 Opposite-Spin Energy      =      -1.0835571731943443 [Eh]
	 Correlation Energy        =      -1.4369303640197357 [Eh]
	 Total Energy              =    -340.2355005379097861 [Eh]

	 ================> DF-SCS-MP2 Energies <==================
	-----------------------------------------------------------
	 SCS Same-Spin Scale       =       0.3333333333333333 [-]
	 SCS Opposite-Spin Scale   =       1.2000000000000000 [-]
	 SCS Same-Spin Energy      =      -0.1177910636084638 [Eh]
	 SCS Opposite-Spin Energy  =      -1.3002686078332131 [Eh]
	 SCS Correlation Energy    =      -1.4180596714416769 [Eh]
	 SCS Total Energy          =    -340.2166298453316813 [Eh]
	-----------------------------------------------------------

  Dipole Moment: [D]
     X:    -3.1539      Y:     0.6201      Z:     0.0003     Total:     3.2142

*** Psi4 exiting successfully. Buy a developer a beer!
