                               Psi4 1.3.2 release

  ==> Input File <==

--------------------------------------------------------------------------
#psi4
#
memory 32 gb

molecule  {
0 1
  O       -1.4607440    -0.6783760    -0.0000110
  N        0.8364910    -1.0546300    -0.0000300
  N        2.0492790    -0.4487200    -0.0000870
  C       -0.2000590    -0.1785130    -0.0000310
  C        0.3504840     1.0933250    -0.0000620
  C        1.7415550     0.8590090    -0.0000990
  C       -2.4699820     0.3361590     0.0002330
  H       -0.1173973     1.9538454    -0.0000656
  H        0.7745000    -2.0647320    -0.0000170
  H        2.5420040     1.5875080    -0.0001330
  H       -3.4206380    -0.1946080     0.0003100
  H       -2.3886930     0.9604430    -0.8948830
  H       -2.3884390     0.9602630     0.8954520
units angstrom
no_reorient  #important for SAPT in psi4, default
symmetry c1  #important for SAPT in psi4, default
}

set PROPERTIES_ORIGIN ["COM"]
properties('MP2/aug-cc-pvtz', properties = ['dipole'])
--------------------------------------------------------------------------

    Molecular point group: c1
  Charge       = 0
  Multiplicity = 1
  Basis Set: AUG-CC-PVTZ
    Blend: AUG-CC-PVTZ
  Basis Set: (AUG-CC-PVTZ AUX)
    Blend: AUG-CC-PVTZ-JKFIT

    Orbital Energies [Eh]
    ---------------------

    Doubly Occupied:

       1A    -20.612624     2A    -15.629932     3A    -15.580275
       4A    -11.342375     5A    -11.300544     6A    -11.256649
       7A    -11.208566     8A     -1.439971     9A     -1.355822
      10A     -1.091080    11A     -1.051521    12A     -0.962284
      13A     -0.820917    14A     -0.807702    15A     -0.755769
      16A     -0.679614    17A     -0.657929    18A     -0.628199
      19A     -0.606384    20A     -0.599530    21A     -0.581118
      22A     -0.528919    23A     -0.506785    24A     -0.453945
      25A     -0.366191    26A     -0.325367

  @DF-RHF Final Energy:  -338.79329831667161

   => Energetics <=

    Nuclear Repulsion Energy =            296.2310064044560249
    One-Electron Energy =               -1047.7485826213487599
    Two-Electron Energy =                 412.7242779002211250
    Total Energy =                       -338.7932983166716099
  Basis Set: (AUG-CC-PVTZ AUX)
    Blend: AUG-CC-PVTZ-RI
    Molecular point group: c1

    Geometry (in Angstrom), charge = 0, multiplicity = 1:

       Center              X                  Y                   Z               Mass
    ------------   -----------------  -----------------  -----------------  -----------------
         O           -1.512467366556    -0.644162693422    -0.000004332730    15.994914619570
         N            0.784767633444    -1.020416693422    -0.000023332730    14.003074004430
         N            1.997555633444    -0.414506693422    -0.000080332730    14.003074004430
         C           -0.251782366556    -0.144299693422    -0.000024332730    12.000000000000
         C            0.298760633444     1.127538306578    -0.000055332730    12.000000000000
         C            1.689831633444     0.893222306578    -0.000092332730    12.000000000000
         C           -2.521705366556     0.370372306578     0.000239667270    12.000000000000
         H           -0.169120666556     1.988058706578    -0.000058932730     1.007825032230
         H            0.722776633444    -2.030518693422    -0.000010332730     1.007825032230
         H            2.490280633444     1.621721306578    -0.000126332730     1.007825032230
         H           -3.472361366556    -0.160394693422     0.000316667270     1.007825032230
         H           -2.440416366556     0.994656306578    -0.894876332730     1.007825032230
         H           -2.440162366556     0.994476306578     0.895458667270     1.007825032230

  Basis Set: AUG-CC-PVTZ
    Blend: AUG-CC-PVTZ
  Basis Set: (AUG-CC-PVTZ AUX)
    Blend: AUG-CC-PVTZ-JKFIT
	 Reference Energy          =    -338.7932983166716099 [Eh]
	 Singles Energy            =      -0.0000000000000000 [Eh]
	 Same-Spin Energy          =      -0.3530891596389863 [Eh]
	 Opposite-Spin Energy      =      -1.0830016798333748 [Eh]
	 Correlation Energy        =      -1.4360908394723610 [Eh]
	 Total Energy              =    -340.2293891561439523 [Eh]

	 ================> DF-SCS-MP2 Energies <==================
	-----------------------------------------------------------
	 SCS Same-Spin Scale       =       0.3333333333333333 [-]
	 SCS Opposite-Spin Scale   =       1.2000000000000000 [-]
	 SCS Same-Spin Energy      =      -0.1176963865463288 [Eh]
	 SCS Opposite-Spin Energy  =      -1.2996020158000496 [Eh]
	 SCS Correlation Energy    =      -1.4172984023463784 [Eh]
	 SCS Total Energy          =    -340.2105967190179854 [Eh]
	-----------------------------------------------------------

  Dipole Moment: [D]
     X:    -3.1382      Y:     0.6409      Z:     0.0003     Total:     3.2029

*** Psi4 exiting successfully. Buy a developer a beer!
