                               Psi4 1.3.2 release

  ==> Input File <==

--------------------------------------------------------------------------
#psi4
#
memory 32 gb

molecule  {
0 1
  O       -1.4607440    -0.6783760    -0.0000110
  N        0.8364910    -1.0546300    -0.0000300
  N        2.0492790    -0.4487200    -0.0000870
  C       -0.2000590    -0.1785130    -0.0000310
  C        0.2710338     0.9097830    -0.0000575
  C        1.7415550     0.8590090    -0.0000990
  C       -2.4699820     0.3361590     0.0002330
  H       -0.1651650     2.0416990    -0.0000660
  H        0.7745000    -2.0647320    -0.0000170
  H        2.5420040     1.5875080    -0.0001330
  H       -3.4206380    -0.1946080     0.0003100
  H       -2.3886930     0.9604430    -0.8948830
  H       -2.3884390     0.9602630     0.8954520
units angstrom
no_reorient  #important for SAPT in psi4, default
symmetry c1  #important for SAPT in psi4, default
}

set PROPERTIES_ORIGIN ["COM"]
properties('MP2/aug-cc-pvtz', properties = ['dipole'])
--------------------------------------------------------------------------

    Molecular point group: c1
  Charge       = 0
  Multiplicity = 1
  Basis Set: AUG-CC-PVTZ
    Blend: AUG-CC-PVTZ
  Basis Set: (AUG-CC-PVTZ AUX)
    Blend: AUG-CC-PVTZ-JKFIT

    Orbital Energies [Eh]
    ---------------------

    Doubly Occupied:

       1A    -20.602507     2A    -15.615926     3A    -15.594976
       4A    -11.308128     5A    -11.294843     6A    -11.262459
       7A    -11.211757     8A     -1.435781     9A     -1.361436
      10A     -1.095265    11A     -1.076151    12A     -0.958759
      13A     -0.824020    14A     -0.782150    15A     -0.755905
      16A     -0.680142    17A     -0.658069    18A     -0.622927
      19A     -0.604705    20A     -0.594642    21A     -0.546295
      22A     -0.529867    23A     -0.502143    24A     -0.450605
      25A     -0.370986    26A     -0.346397

  @DF-RHF Final Energy:  -338.73761052441722

   => Energetics <=

    Nuclear Repulsion Energy =            299.3055182829224918
    One-Electron Energy =               -1053.9125719560454399
    Two-Electron Energy =                 415.8694431487056704
    Total Energy =                       -338.7376105244172209
  Basis Set: (AUG-CC-PVTZ AUX)
    Blend: AUG-CC-PVTZ-RI
    Molecular point group: c1

    Geometry (in Angstrom), charge = 0, multiplicity = 1:

       Center              X                  Y                   Z               Mass
    ------------   -----------------  -----------------  -----------------  -----------------
         O           -1.502252535526    -0.622602206046    -0.000004879369    15.994914619570
         N            0.794982464474    -0.998856206046    -0.000023879369    14.003074004430
         N            2.007770464474    -0.392946206046    -0.000080879369    14.003074004430
         C           -0.241567535526    -0.122739206046    -0.000024879369    12.000000000000
         C            0.229525264474     0.965556793954    -0.000051379369    12.000000000000
         C            1.700046464474     0.914782793954    -0.000092879369    12.000000000000
         C           -2.511490535526     0.391932793954     0.000239120631    12.000000000000
         H           -0.206673535526     2.097472793954    -0.000059879369     1.007825032230
         H            0.732991464474    -2.008958206046    -0.000010879369     1.007825032230
         H            2.500495464474     1.643281793954    -0.000126879369     1.007825032230
         H           -3.462146535526    -0.138834206046     0.000316120631     1.007825032230
         H           -2.430201535526     1.016216793954    -0.894876879369     1.007825032230
         H           -2.429947535526     1.016036793954     0.895458120631     1.007825032230

  Basis Set: AUG-CC-PVTZ
    Blend: AUG-CC-PVTZ
  Basis Set: (AUG-CC-PVTZ AUX)
    Blend: AUG-CC-PVTZ-JKFIT
	 Reference Energy          =    -338.7376105244172209 [Eh]
	 Singles Energy            =      -0.0000000000000000 [Eh]
	 Same-Spin Energy          =      -0.3522818193893981 [Eh]
	 Opposite-Spin Energy      =      -1.0825953516609490 [Eh]
	 Correlation Energy        =      -1.4348771710503470 [Eh]
	 Total Energy              =    -340.1724876954675665 [Eh]

	 ================> DF-SCS-MP2 Energies <==================
	-----------------------------------------------------------
	 SCS Same-Spin Scale       =       0.3333333333333333 [-]
	 SCS Opposite-Spin Scale   =       1.2000000000000000 [-]
	 SCS Same-Spin Energy      =      -0.1174272731297994 [Eh]
	 SCS Opposite-Spin Energy  =      -1.2991144219931388 [Eh]
	 SCS Correlation Energy    =      -1.4165416951229381 [Eh]
	 SCS Total Energy          =    -340.1541522195401512 [Eh]
	-----------------------------------------------------------

  Dipole Moment: [D]
     X:    -2.7949      Y:     0.9438      Z:     0.0003     Total:     2.9500

*** Psi4 exiting successfully. Buy a developer a beer!
