                               Psi4 1.3.2 release

  ==> Input File <==

--------------------------------------------------------------------------
#psi4
#
memory 32 gb

molecule  {
0 1
  O       -1.4607440    -0.6783760    -0.0000110
  N        0.8364910    -1.0546300    -0.0000300
  N        2.0492790    -0.4487200    -0.0000870
  C       -0.2764326    -0.1139602    -0.0000311
  C        0.3504840     1.0933250    -0.0000620
  C        1.7415550     0.8590090    -0.0000990
  C       -2.4699820     0.3361590     0.0002330
  H       -0.1651650     2.0416990    -0.0000660
  H        0.7745000    -2.0647320    -0.0000170
  H        2.5420040     1.5875080    -0.0001330
  H       -3.4206380    -0.1946080     0.0003100
  H       -2.3886930     0.9604430    -0.8948830
  H       -2.3884390     0.9602630     0.8954520
units angstrom
no_reorient  #important for SAPT in psi4, default
symmetry c1  #important for SAPT in psi4, default
}

set PROPERTIES_ORIGIN ["COM"]
properties('MP2/aug-cc-pvtz', properties = ['dipole'])
--------------------------------------------------------------------------

    Molecular point group: c1
  Charge       = 0
  Multiplicity = 1
  Basis Set: AUG-CC-PVTZ
    Blend: AUG-CC-PVTZ
  Basis Set: (AUG-CC-PVTZ AUX)
    Blend: AUG-CC-PVTZ-JKFIT

    Orbital Energies [Eh]
    ---------------------

    Doubly Occupied:

       1A    -20.622748     2A    -15.618219     3A    -15.585893
       4A    -11.345861     5A    -11.304983     6A    -11.254054
       7A    -11.222167     8A     -1.463260     9A     -1.338414
      10A     -1.071651    11A     -1.052345    12A     -0.970356
      13A     -0.816915    14A     -0.786407    15A     -0.756281
      16A     -0.689824    17A     -0.658817    18A     -0.635947
      19A     -0.587508    20A     -0.583468    21A     -0.573571
      22A     -0.540813    23A     -0.515879    24A     -0.450866
      25A     -0.363867    26A     -0.320020

  @DF-RHF Final Energy:  -338.78397707541058

   => Energetics <=

    Nuclear Repulsion Energy =            295.3756555491592053
    One-Electron Energy =               -1046.0589952854022613
    Two-Electron Energy =                 411.8993626608324803
    Total Energy =                       -338.7839770754105757
  Basis Set: (AUG-CC-PVTZ AUX)
    Blend: AUG-CC-PVTZ-RI
    Molecular point group: c1

    Geometry (in Angstrom), charge = 0, multiplicity = 1:

       Center              X                  Y                   Z               Mass
    ------------   -----------------  -----------------  -----------------  -----------------
         O           -1.502629077579    -0.652966284973    -0.000004316379    15.994914619570
         N            0.794605922421    -1.029220284973    -0.000023316379    14.003074004430
         N            2.007393922421    -0.423310284973    -0.000080316379    14.003074004430
         C           -0.318317677579    -0.088550484973    -0.000024416379    12.000000000000
         C            0.308598922421     1.118734715027    -0.000055316379    12.000000000000
         C            1.699669922421     0.884418715027    -0.000092316379    12.000000000000
         C           -2.511867077579     0.361568715027     0.000239683621    12.000000000000
         H           -0.207050077579     2.067108715027    -0.000059316379     1.007825032230
         H            0.732614922421    -2.039322284973    -0.000010316379     1.007825032230
         H            2.500118922421     1.612917715027    -0.000126316379     1.007825032230
         H           -3.462523077579    -0.169198284973     0.000316683621     1.007825032230
         H           -2.430578077579     0.985852715027    -0.894876316379     1.007825032230
         H           -2.430324077579     0.985672715027     0.895458683621     1.007825032230

  Basis Set: AUG-CC-PVTZ
    Blend: AUG-CC-PVTZ
  Basis Set: (AUG-CC-PVTZ AUX)
    Blend: AUG-CC-PVTZ-JKFIT
	 Reference Energy          =    -338.7839770754105757 [Eh]
	 Singles Energy            =      -0.0000000000000000 [Eh]
	 Same-Spin Energy          =      -0.3544379904492783 [Eh]
	 Opposite-Spin Energy      =      -1.0861547965232727 [Eh]
	 Correlation Energy        =      -1.4405927869725510 [Eh]
	 Total Energy              =    -340.2245698623831345 [Eh]

	 ================> DF-SCS-MP2 Energies <==================
	-----------------------------------------------------------
	 SCS Same-Spin Scale       =       0.3333333333333333 [-]
	 SCS Opposite-Spin Scale   =       1.2000000000000000 [-]
	 SCS Same-Spin Energy      =      -0.1181459968164261 [Eh]
	 SCS Opposite-Spin Energy  =      -1.3033857558279272 [Eh]
	 SCS Correlation Energy    =      -1.4215317526443532 [Eh]
	 SCS Total Energy          =    -340.2055088280549171 [Eh]
	-----------------------------------------------------------

  Dipole Moment: [D]
     X:    -3.4995      Y:     0.7982      Z:     0.0003     Total:     3.5894

*** Psi4 exiting successfully. Buy a developer a beer!
