                               Psi4 1.3.2 release

  ==> Input File <==

--------------------------------------------------------------------------
#psi4
#
memory 32 gb

molecule  {
0 1
  O       -1.4607440    -0.6783760    -0.0000110
  N        0.9223918    -0.9414816    -0.0000333
  N        2.0492790    -0.4487200    -0.0000870
  C       -0.2000590    -0.1785130    -0.0000310
  C        0.3504840     1.0933250    -0.0000620
  C        1.7415550     0.8590090    -0.0000990
  C       -2.4699820     0.3361590     0.0002330
  H       -0.1651650     2.0416990    -0.0000660
  H        0.7745000    -2.0647320    -0.0000170
  H        2.5420040     1.5875080    -0.0001330
  H       -3.4206380    -0.1946080     0.0003100
  H       -2.3886930     0.9604430    -0.8948830
  H       -2.3884390     0.9602630     0.8954520
units angstrom
no_reorient  #important for SAPT in psi4, default
symmetry c1  #important for SAPT in psi4, default
}

set PROPERTIES_ORIGIN ["COM"]
properties('MP2/aug-cc-pvtz', properties = ['dipole'])
--------------------------------------------------------------------------

    Molecular point group: c1
  Charge       = 0
  Multiplicity = 1
  Basis Set: AUG-CC-PVTZ
    Blend: AUG-CC-PVTZ
  Basis Set: (AUG-CC-PVTZ AUX)
    Blend: AUG-CC-PVTZ-JKFIT

    Orbital Energies [Eh]
    ---------------------

    Doubly Occupied:

       1A    -20.612962     2A    -15.649216     3A    -15.580427
       4A    -11.331806     5A    -11.301411     6A    -11.243920
       7A    -11.219651     8A     -1.448410     9A     -1.410728
      10A     -1.085857    11A     -1.056745    12A     -0.961378
      13A     -0.820592    14A     -0.791709    15A     -0.755938
      16A     -0.683499    17A     -0.649708    18A     -0.633234
      19A     -0.626048    20A     -0.584525    21A     -0.566101
      22A     -0.526687    23A     -0.512713    24A     -0.459699
      25A     -0.360162    26A     -0.319392

  @DF-RHF Final Energy:  -338.76482914704684

   => Energetics <=

    Nuclear Repulsion Energy =            298.0628828719592889
    One-Electron Energy =               -1051.2703904598999998
    Two-Electron Energy =                 414.4426784408938147
    Total Energy =                       -338.7648291470468394
  Basis Set: (AUG-CC-PVTZ AUX)
    Blend: AUG-CC-PVTZ-RI
    Molecular point group: c1

    Geometry (in Angstrom), charge = 0, multiplicity = 1:

       Center              X                  Y                   Z               Mass
    ------------   -----------------  -----------------  -----------------  -----------------
         O           -1.524244594288    -0.661225420425    -0.000003857317    15.994914619570
         N            0.858891205712    -0.924331020425    -0.000026157317    14.003074004430
         N            1.985778405712    -0.431569420425    -0.000079857317    14.003074004430
         C           -0.263559594288    -0.161362420425    -0.000023857317    12.000000000000
         C            0.286983405712     1.110475579575    -0.000054857317    12.000000000000
         C            1.678054405712     0.876159579575    -0.000091857317    12.000000000000
         C           -2.533482594288     0.353309579575     0.000240142683    12.000000000000
         H           -0.228665594288     2.058849579575    -0.000058857317     1.007825032230
         H            0.710999405712    -2.047581420425    -0.000009857317     1.007825032230
         H            2.478503405712     1.604658579575    -0.000125857317     1.007825032230
         H           -3.484138594288    -0.177457420425     0.000317142683     1.007825032230
         H           -2.452193594288     0.977593579575    -0.894875857317     1.007825032230
         H           -2.451939594288     0.977413579575     0.895459142683     1.007825032230

  Basis Set: AUG-CC-PVTZ
    Blend: AUG-CC-PVTZ
  Basis Set: (AUG-CC-PVTZ AUX)
    Blend: AUG-CC-PVTZ-JKFIT
	 Reference Energy          =    -338.7648291470468394 [Eh]
	 Singles Energy            =      -0.0000000000000000 [Eh]
	 Same-Spin Energy          =      -0.3559988237800279 [Eh]
	 Opposite-Spin Energy      =      -1.0851717715516296 [Eh]
	 Correlation Energy        =      -1.4411705953316574 [Eh]
	 Total Energy              =    -340.2059997423784807 [Eh]

	 ================> DF-SCS-MP2 Energies <==================
	-----------------------------------------------------------
	 SCS Same-Spin Scale       =       0.3333333333333333 [-]
	 SCS Opposite-Spin Scale   =       1.2000000000000000 [-]
	 SCS Same-Spin Energy      =      -0.1186662745933426 [Eh]
	 SCS Opposite-Spin Energy  =      -1.3022061258619555 [Eh]
	 SCS Correlation Energy    =      -1.4208724004552982 [Eh]
	 SCS Total Energy          =    -340.1857015475021626 [Eh]
	-----------------------------------------------------------

  Dipole Moment: [D]
     X:    -3.1472      Y:     0.4100      Z:     0.0004     Total:     3.1738

*** Psi4 exiting successfully. Buy a developer a beer!
