                               Psi4 1.4a3.dev225

  ==> Input File <==

--------------------------------------------------------------------------
#psi4
#
memory 32 gb

molecule  {
0 1
  O       -1.4607440    -0.6783760    -0.0000110
  N        0.8364910    -1.0546300    -0.0000300
  N        2.0492790    -0.4487200    -0.0000870
  C       -0.2000590    -0.1785130    -0.0000310
  C        0.3306215     1.0474395    -0.0000609
  C        1.7415550     0.8590090    -0.0000990
  C       -2.4699820     0.3361590     0.0002330
  H       -0.1651650     2.0416990    -0.0000660
  H        0.7745000    -2.0647320    -0.0000170
  H        2.5420040     1.5875080    -0.0001330
  H       -3.4206380    -0.1946080     0.0003100
  H       -2.3886930     0.9604430    -0.8948830
  H       -2.3884390     0.9602630     0.8954520
units angstrom
no_reorient  #important for SAPT in psi4, default
symmetry c1  #important for SAPT in psi4, default
}

set PROPERTIES_ORIGIN ["COM"]
properties('MP2/aug-cc-pvtz', properties = ['dipole'])
--------------------------------------------------------------------------

    Molecular point group: c1
  Charge       = 0
  Multiplicity = 1
  Basis Set: AUG-CC-PVTZ
    Blend: AUG-CC-PVTZ
  Basis Set: (AUG-CC-PVTZ AUX)
    Blend: AUG-CC-PVTZ-JKFIT

    Orbital Energies [Eh]
    ---------------------

    Doubly Occupied:

       1A    -20.610210     2A    -15.626766     3A    -15.584236
       4A    -11.335249     5A    -11.298941     6A    -11.258192
       7A    -11.218050     8A     -1.438739     9A     -1.357382
      10A     -1.090219    11A     -1.055591    12A     -0.960954
      13A     -0.818166    14A     -0.796996    15A     -0.754905
      16A     -0.679289    17A     -0.650464    18A     -0.624738
      19A     -0.600765    20A     -0.589992    21A     -0.581519
      22A     -0.529670    23A     -0.505542    24A     -0.453680
      25A     -0.364875    26A     -0.332101

  @DF-RHF Final Energy:  -338.79733537588623

   => Energetics <=

    Nuclear Repulsion Energy =            296.5455859993173817
    One-Electron Energy =               -1048.4513822150422584
    Two-Electron Energy =                 413.1084608398386422
    Total Energy =                       -338.7973353758862345
  Basis Set: (AUG-CC-PVTZ AUX)
    Blend: AUG-CC-PVTZ-RI
    Molecular point group: c1

    Geometry (in Angstrom), charge = 0, multiplicity = 1:

       Center              X                  Y                   Z               Mass
    ------------   -----------------  -----------------  -----------------  -----------------
         O           -1.509545415610    -0.639449849894    -0.000004463246    15.994914619570
         N            0.787689584390    -1.015703849894    -0.000023463246    14.003074004430
         N            2.000477584390    -0.409793849894    -0.000080463246    14.003074004430
         C           -0.248860415610    -0.139586849894    -0.000024463246    12.000000000000
         C            0.281820084390     1.086365650106    -0.000054363246    12.000000000000
         C            1.692753584390     0.897935150106    -0.000092463246    12.000000000000
         C           -2.518783415610     0.375085150106     0.000239536754    12.000000000000
         H           -0.213966415610     2.080625150106    -0.000059463246     1.007825032230
         H            0.725698584390    -2.025805849894    -0.000010463246     1.007825032230
         H            2.493202584390     1.626434150106    -0.000126463246     1.007825032230
         H           -3.469439415610    -0.155681849894     0.000316536754     1.007825032230
         H           -2.437494415610     0.999369150106    -0.894876463246     1.007825032230
         H           -2.437240415610     0.999189150106     0.895458536754     1.007825032230

  Basis Set: AUG-CC-PVTZ
    Blend: AUG-CC-PVTZ
  Basis Set: (AUG-CC-PVTZ AUX)
    Blend: AUG-CC-PVTZ-JKFIT
	 Reference Energy          =    -338.7973353758862345 [Eh]
	 Singles Energy            =      -0.0000000000000000 [Eh]
	 Same-Spin Energy          =      -0.3529315956030497 [Eh]
	 Opposite-Spin Energy      =      -1.0828657192388165 [Eh]
	 Correlation Energy        =      -1.4357973148418661 [Eh]
	 Total Energy              =    -340.2331326907280982 [Eh]

	 ================> DF-SCS-MP2 Energies <==================
	-----------------------------------------------------------
	 SCS Same-Spin Scale       =       0.3333333333333333 [-]
	 SCS Opposite-Spin Scale   =       1.2000000000000000 [-]
	 SCS Same-Spin Energy      =      -0.1176438652010166 [Eh]
	 SCS Opposite-Spin Energy  =      -1.2994388630865796 [Eh]
	 SCS Correlation Energy    =      -1.4170827282875962 [Eh]
	 SCS Total Energy          =    -340.2144181041738307 [Eh]
	-----------------------------------------------------------

  Dipole Moment: [D]
     X:    -3.0587      Y:     0.7162      Z:     0.0003     Total:     3.1414

*** Psi4 exiting successfully. Buy a developer a beer!
