                               Psi4 1.3.2 release

  ==> Input File <==

--------------------------------------------------------------------------
#psi4
#
memory 32 gb

molecule  {
0 1
  O       -1.4607440    -0.6783760    -0.0000110
  N        0.8364910    -1.0546300    -0.0000300
  N        2.0492790    -0.4487200    -0.0000870
  C       -0.2182719    -0.1348202    -0.0000225
  C        0.3504840     1.0933250    -0.0000620
  C        1.7415550     0.8590090    -0.0000990
  C       -2.4699820     0.3361590     0.0002330
  H       -0.1651650     2.0416990    -0.0000660
  H        0.7745000    -2.0647320    -0.0000170
  H        2.5420040     1.5875080    -0.0001330
  H       -3.4206380    -0.1946080     0.0003100
  H       -2.3886930     0.9604430    -0.8948830
  H       -2.3884390     0.9602630     0.8954520
units angstrom
no_reorient  #important for SAPT in psi4, default
symmetry c1  #important for SAPT in psi4, default
}

set PROPERTIES_ORIGIN ["COM"]
properties('MP2/aug-cc-pvtz', properties = ['dipole'])
--------------------------------------------------------------------------

    Molecular point group: c1
  Charge       = 0
  Multiplicity = 1
  Basis Set: AUG-CC-PVTZ
    Blend: AUG-CC-PVTZ
  Basis Set: (AUG-CC-PVTZ AUX)
    Blend: AUG-CC-PVTZ-JKFIT

    Orbital Energies [Eh]
    ---------------------

    Doubly Occupied:

       1A    -20.613947     2A    -15.625357     3A    -15.584976
       4A    -11.341662     5A    -11.299850     6A    -11.256850
       7A    -11.220740     8A     -1.440134     9A     -1.349678
      10A     -1.081917    11A     -1.055961    12A     -0.961414
      13A     -0.817968    14A     -0.793824    15A     -0.753428
      16A     -0.679608    17A     -0.651472    18A     -0.630069
      19A     -0.595216    20A     -0.591375    21A     -0.579227
      22A     -0.533343    23A     -0.507139    24A     -0.454461
      25A     -0.366831    26A     -0.327579

  @DF-RHF Final Energy:  -338.79488258085706

   => Energetics <=

    Nuclear Repulsion Energy =            295.5894562974677910
    One-Electron Energy =               -1046.5406208352710564
    Two-Electron Energy =                 412.1562819569462022
    Total Energy =                       -338.7948825808570632
  Basis Set: (AUG-CC-PVTZ AUX)
    Blend: AUG-CC-PVTZ-RI
    Molecular point group: c1

    Geometry (in Angstrom), charge = 0, multiplicity = 1:

       Center              X                  Y                   Z               Mass
    ------------   -----------------  -----------------  -----------------  -----------------
         O           -1.509747308534    -0.650413250059    -0.000005368925    15.994914619570
         N            0.787487691466    -1.026667250059    -0.000024368925    14.003074004430
         N            2.000275691466    -0.420757250059    -0.000081368925    14.003074004430
         C           -0.267275208534    -0.106857450059    -0.000016868925    12.000000000000
         C            0.301480691466     1.121287749941    -0.000056368925    12.000000000000
         C            1.692551691466     0.886971749941    -0.000093368925    12.000000000000
         C           -2.518985308534     0.364121749941     0.000238631075    12.000000000000
         H           -0.214168308534     2.069661749941    -0.000060368925     1.007825032230
         H            0.725496691466    -2.036769250059    -0.000011368925     1.007825032230
         H            2.493000691466     1.615470749941    -0.000127368925     1.007825032230
         H           -3.469641308534    -0.166645250059     0.000315631075     1.007825032230
         H           -2.437696308534     0.988405749941    -0.894877368925     1.007825032230
         H           -2.437442308534     0.988225749941     0.895457631075     1.007825032230

  Basis Set: AUG-CC-PVTZ
    Blend: AUG-CC-PVTZ
  Basis Set: (AUG-CC-PVTZ AUX)
    Blend: AUG-CC-PVTZ-JKFIT
	 Reference Energy          =    -338.7948825808570632 [Eh]
	 Singles Energy            =      -0.0000000000000000 [Eh]
	 Same-Spin Energy          =      -0.3536076861278442 [Eh]
	 Opposite-Spin Energy      =      -1.0846109784268410 [Eh]
	 Correlation Energy        =      -1.4382186645546851 [Eh]
	 Total Energy              =    -340.2331012454117740 [Eh]

	 ================> DF-SCS-MP2 Energies <==================
	-----------------------------------------------------------
	 SCS Same-Spin Scale       =       0.3333333333333333 [-]
	 SCS Opposite-Spin Scale   =       1.2000000000000000 [-]
	 SCS Same-Spin Energy      =      -0.1178692287092814 [Eh]
	 SCS Opposite-Spin Energy  =      -1.3015331741122091 [Eh]
	 SCS Correlation Energy    =      -1.4194024028214907 [Eh]
	 SCS Total Energy          =    -340.2142849836785672 [Eh]
	-----------------------------------------------------------

  Dipole Moment: [D]
     X:    -3.1565      Y:     0.7691      Z:     0.0003     Total:     3.2489

*** Psi4 exiting successfully. Buy a developer a beer!
