                               Psi4 1.3.2 release

  ==> Input File <==

--------------------------------------------------------------------------
#psi4
#
memory 32 gb

molecule  {
0 1
  O       -1.4607440    -0.6783760    -0.0000110
  N        0.8364910    -1.0546300    -0.0000300
  N        2.0492790    -0.4487200    -0.0000870
  C       -0.3528063    -0.0494073    -0.0000311
  C        0.3504840     1.0933250    -0.0000620
  C        1.7415550     0.8590090    -0.0000990
  C       -2.4699820     0.3361590     0.0002330
  H       -0.1651650     2.0416990    -0.0000660
  H        0.7745000    -2.0647320    -0.0000170
  H        2.5420040     1.5875080    -0.0001330
  H       -3.4206380    -0.1946080     0.0003100
  H       -2.3886930     0.9604430    -0.8948830
  H       -2.3884390     0.9602630     0.8954520
units angstrom
no_reorient  #important for SAPT in psi4, default
symmetry c1  #important for SAPT in psi4, default
}

set PROPERTIES_ORIGIN ["COM"]
properties('MP2/aug-cc-pvtz', properties = ['dipole'])
--------------------------------------------------------------------------

    Molecular point group: c1
  Charge       = 0
  Multiplicity = 1
  Basis Set: AUG-CC-PVTZ
    Blend: AUG-CC-PVTZ
  Basis Set: (AUG-CC-PVTZ AUX)
    Blend: AUG-CC-PVTZ-JKFIT

    Orbital Energies [Eh]
    ---------------------

    Doubly Occupied:

       1A    -20.633201     2A    -15.604514     3A    -15.590052
       4A    -11.351109     5A    -11.310646     6A    -11.250266
       7A    -11.225692     8A     -1.489466     9A     -1.323365
      10A     -1.060052    11A     -1.051856    12A     -0.978499
      13A     -0.819769    14A     -0.783379    15A     -0.749214
      16A     -0.702663    17A     -0.665117    18A     -0.647397
      19A     -0.580480    20A     -0.578604    21A     -0.565251
      22A     -0.538319    23A     -0.523221    24A     -0.443734
      25A     -0.365309    26A     -0.311004

  @DF-RHF Final Energy:  -338.74996767820312

   => Energetics <=

    Nuclear Repulsion Energy =            295.1117225352786591
    One-Electron Energy =               -1045.4390226347056796
    Two-Electron Energy =                 411.5773324212239004
    Total Energy =                       -338.7499676782031202
  Basis Set: (AUG-CC-PVTZ AUX)
    Blend: AUG-CC-PVTZ-RI
    Molecular point group: c1

    Geometry (in Angstrom), charge = 0, multiplicity = 1:

       Center              X                  Y                   Z               Mass
    ------------   -----------------  -----------------  -----------------  -----------------
         O           -1.493281775440    -0.660866851009    -0.000004316379    15.994914619570
         N            0.803953224560    -1.037120851009    -0.000023316379    14.003074004430
         N            2.016741224560    -0.431210851009    -0.000080316379    14.003074004430
         C           -0.385344075440    -0.031898151009    -0.000024416379    12.000000000000
         C            0.317946224560     1.110834148991    -0.000055316379    12.000000000000
         C            1.709017224560     0.876518148991    -0.000092316379    12.000000000000
         C           -2.502519775440     0.353668148991     0.000239683621    12.000000000000
         H           -0.197702775440     2.059208148991    -0.000059316379     1.007825032230
         H            0.741962224560    -2.047222851009    -0.000010316379     1.007825032230
         H            2.509466224560     1.605017148991    -0.000126316379     1.007825032230
         H           -3.453175775440    -0.177098851009     0.000316683621     1.007825032230
         H           -2.421230775440     0.977952148991    -0.894876316379     1.007825032230
         H           -2.420976775440     0.977772148991     0.895458683621     1.007825032230

  Basis Set: AUG-CC-PVTZ
    Blend: AUG-CC-PVTZ
  Basis Set: (AUG-CC-PVTZ AUX)
    Blend: AUG-CC-PVTZ-JKFIT
	 Reference Energy          =    -338.7499676782031202 [Eh]
	 Singles Energy            =      -0.0000000000000000 [Eh]
	 Same-Spin Energy          =      -0.3561265143937871 [Eh]
	 Opposite-Spin Energy      =      -1.0898521307332585 [Eh]
	 Correlation Energy        =      -1.4459786451270455 [Eh]
	 Total Energy              =    -340.1959463233301904 [Eh]

	 ================> DF-SCS-MP2 Energies <==================
	-----------------------------------------------------------
	 SCS Same-Spin Scale       =       0.3333333333333333 [-]
	 SCS Opposite-Spin Scale   =       1.2000000000000000 [-]
	 SCS Same-Spin Energy      =      -0.1187088381312623 [Eh]
	 SCS Opposite-Spin Energy  =      -1.3078225568799102 [Eh]
	 SCS Correlation Energy    =      -1.4265313950111727 [Eh]
	 SCS Total Energy          =    -340.1764990732143019 [Eh]
	-----------------------------------------------------------

  Dipole Moment: [D]
     X:    -3.9028      Y:     0.9403      Z:     0.0004     Total:     4.0144

*** Psi4 exiting successfully. Buy a developer a beer!
