                               Psi4 1.3.2 release

  ==> Input File <==

--------------------------------------------------------------------------
#psi4
#
memory 32 gb

molecule  {
0 1
  O       -1.4228044    -0.7650993    -0.0000102
  N        0.8364910    -1.0546300    -0.0000300
  N        2.0492790    -0.4487200    -0.0000870
  C       -0.2000590    -0.1785130    -0.0000310
  C        0.3504840     1.0933250    -0.0000620
  C        1.7415550     0.8590090    -0.0000990
  C       -2.4699820     0.3361590     0.0002330
  H       -0.1651650     2.0416990    -0.0000660
  H        0.7745000    -2.0647320    -0.0000170
  H        2.5420040     1.5875080    -0.0001330
  H       -3.4206380    -0.1946080     0.0003100
  H       -2.3886930     0.9604430    -0.8948830
  H       -2.3884390     0.9602630     0.8954520
units angstrom
no_reorient  #important for SAPT in psi4, default
symmetry c1  #important for SAPT in psi4, default
}

set PROPERTIES_ORIGIN ["COM"]
properties('MP2/aug-cc-pvtz', properties = ['dipole'])
--------------------------------------------------------------------------

    Molecular point group: c1
  Charge       = 0
  Multiplicity = 1
  Basis Set: AUG-CC-PVTZ
    Blend: AUG-CC-PVTZ
  Basis Set: (AUG-CC-PVTZ AUX)
    Blend: AUG-CC-PVTZ-JKFIT

    Orbital Energies [Eh]
    ---------------------

    Doubly Occupied:

       1A    -20.614887     2A    -15.624963     3A    -15.578315
       4A    -11.339778     5A    -11.309895     6A    -11.255720
       7A    -11.220535     8A     -1.425476     9A     -1.348818
      10A     -1.086481    11A     -1.043989    12A     -0.962599
      13A     -0.815683    14A     -0.798319    15A     -0.744313
      16A     -0.669040    17A     -0.637883    18A     -0.621535
      19A     -0.598177    20A     -0.591706    21A     -0.579509
      22A     -0.537419    23A     -0.515371    24A     -0.450433
      25A     -0.364670    26A     -0.323554

  @DF-RHF Final Energy:  -338.78963804687021

   => Energetics <=

    Nuclear Repulsion Energy =            294.6807955286065521
    One-Electron Energy =               -1044.8227305622551739
    Two-Electron Energy =                 411.3522969867784695
    Total Energy =                       -338.7896380468702091
  Basis Set: (AUG-CC-PVTZ AUX)
    Blend: AUG-CC-PVTZ-RI
    Molecular point group: c1

    Geometry (in Angstrom), charge = 0, multiplicity = 1:

       Center              X                  Y                   Z               Mass
    ------------   -----------------  -----------------  -----------------  -----------------
         O           -1.480225986875    -0.717641556494    -0.000003659125    15.994914619570
         N            0.779069413125    -1.007172256494    -0.000023459125    14.003074004430
         N            1.991857413125    -0.401262256494    -0.000080459125    14.003074004430
         C           -0.257480586875    -0.131055256494    -0.000024459125    12.000000000000
         C            0.293062413125     1.140782743506    -0.000055459125    12.000000000000
         C            1.684133413125     0.906466743506    -0.000092459125    12.000000000000
         C           -2.527403586875     0.383616743506     0.000239540875    12.000000000000
         H           -0.222586586875     2.089156743506    -0.000059459125     1.007825032230
         H            0.717078413125    -2.017274256494    -0.000010459125     1.007825032230
         H            2.484582413125     1.634965743506    -0.000126459125     1.007825032230
         H           -3.478059586875    -0.147150256494     0.000316540875     1.007825032230
         H           -2.446114586875     1.007900743506    -0.894876459125     1.007825032230
         H           -2.445860586875     1.007720743506     0.895458540875     1.007825032230

  Basis Set: AUG-CC-PVTZ
    Blend: AUG-CC-PVTZ
  Basis Set: (AUG-CC-PVTZ AUX)
    Blend: AUG-CC-PVTZ-JKFIT
	 Reference Energy          =    -338.7896380468702091 [Eh]
	 Singles Energy            =      -0.0000000000000000 [Eh]
	 Same-Spin Energy          =      -0.3539696890318742 [Eh]
	 Opposite-Spin Energy      =      -1.0862006369095818 [Eh]
	 Correlation Energy        =      -1.4401703259414560 [Eh]
	 Total Energy              =    -340.2298083728116467 [Eh]

	 ================> DF-SCS-MP2 Energies <==================
	-----------------------------------------------------------
	 SCS Same-Spin Scale       =       0.3333333333333333 [-]
	 SCS Opposite-Spin Scale   =       1.2000000000000000 [-]
	 SCS Same-Spin Energy      =      -0.1179898963439581 [Eh]
	 SCS Opposite-Spin Energy  =      -1.3034407642914980 [Eh]
	 SCS Correlation Energy    =      -1.4214306606354561 [Eh]
	 SCS Total Energy          =    -340.2110687075056603 [Eh]
	-----------------------------------------------------------

  Dipole Moment: [D]
     X:    -3.3690      Y:     0.8560      Z:     0.0004     Total:     3.4761

*** Psi4 exiting successfully. Buy a developer a beer!
