                               Psi4 1.3.2 release

  ==> Input File <==

--------------------------------------------------------------------------
#psi4
#
memory 32 gb

molecule  {
0 1
  O       -1.4607440    -0.6783760    -0.0000110
  N        0.8364910    -1.0546300    -0.0000300
  N        2.0492790    -0.4487200    -0.0000870
  C       -0.2000590    -0.1785130    -0.0000310
  C        0.3504840     1.0933250    -0.0000620
  C        1.7415550     0.8590090    -0.0000990
  C       -2.4699820     0.3361590     0.0002330
  H       -0.0696297     1.8659919    -0.0000653
  H        0.7745000    -2.0647320    -0.0000170
  H        2.5420040     1.5875080    -0.0001330
  H       -3.4206380    -0.1946080     0.0003100
  H       -2.3886930     0.9604430    -0.8948830
  H       -2.3884390     0.9602630     0.8954520
units angstrom
no_reorient  #important for SAPT in psi4, default
symmetry c1  #important for SAPT in psi4, default
}

set PROPERTIES_ORIGIN ["COM"]
properties('MP2/aug-cc-pvtz', properties = ['dipole'])
--------------------------------------------------------------------------

    Molecular point group: c1
  Charge       = 0
  Multiplicity = 1
  Basis Set: AUG-CC-PVTZ
    Blend: AUG-CC-PVTZ
  Basis Set: (AUG-CC-PVTZ AUX)
    Blend: AUG-CC-PVTZ-JKFIT

    Orbital Energies [Eh]
    ---------------------

    Doubly Occupied:

       1A    -20.612737     2A    -15.629586     3A    -15.579870
       4A    -11.342077     5A    -11.300853     6A    -11.256172
       7A    -11.197029     8A     -1.440060     9A     -1.355442
      10A     -1.091193    11A     -1.056200    12A     -0.963332
      13A     -0.831440    14A     -0.812144    15A     -0.756522
      16A     -0.679725    17A     -0.669070    18A     -0.630611
      19A     -0.610738    20A     -0.599315    21A     -0.581319
      22A     -0.529755    23A     -0.506882    24A     -0.453952
      25A     -0.366085    26A     -0.325241

  @DF-RHF Final Energy:  -338.76292968699471

   => Energetics <=

    Nuclear Repulsion Energy =            296.8319584673532745
    One-Electron Energy =               -1048.8350724594915846
    Two-Electron Energy =                 413.2401843051436003
    Total Energy =                       -338.7629296869947098
  Basis Set: (AUG-CC-PVTZ AUX)
    Blend: AUG-CC-PVTZ-RI
    Molecular point group: c1

    Geometry (in Angstrom), charge = 0, multiplicity = 1:

       Center              X                  Y                   Z               Mass
    ------------   -----------------  -----------------  -----------------  -----------------
         O           -1.512958364605    -0.643259656697    -0.000004335813    15.994914619570
         N            0.784276635395    -1.019513656697    -0.000023335813    14.003074004430
         N            1.997064635395    -0.413603656697    -0.000080335813    14.003074004430
         C           -0.252273364605    -0.143396656697    -0.000024335813    12.000000000000
         C            0.298269635395     1.128441343303    -0.000055335813    12.000000000000
         C            1.689340635395     0.894125343303    -0.000092335813    12.000000000000
         C           -2.522196364605     0.371275343303     0.000239664187    12.000000000000
         H           -0.121844064605     1.901108243303    -0.000058635813     1.007825032230
         H            0.722285635395    -2.029615656697    -0.000010335813     1.007825032230
         H            2.489789635395     1.622624343303    -0.000126335813     1.007825032230
         H           -3.472852364605    -0.159491656697     0.000316664187     1.007825032230
         H           -2.440907364605     0.995559343303    -0.894876335813     1.007825032230
         H           -2.440653364605     0.995379343303     0.895458664187     1.007825032230

  Basis Set: AUG-CC-PVTZ
    Blend: AUG-CC-PVTZ
  Basis Set: (AUG-CC-PVTZ AUX)
    Blend: AUG-CC-PVTZ-JKFIT
	 Reference Energy          =    -338.7629296869947098 [Eh]
	 Singles Energy            =      -0.0000000000000000 [Eh]
	 Same-Spin Energy          =      -0.3530224107260185 [Eh]
	 Opposite-Spin Energy      =      -1.0830910581476725 [Eh]
	 Correlation Energy        =      -1.4361134688736910 [Eh]
	 Total Energy              =    -340.1990431558684236 [Eh]

	 ================> DF-SCS-MP2 Energies <==================
	-----------------------------------------------------------
	 SCS Same-Spin Scale       =       0.3333333333333333 [-]
	 SCS Opposite-Spin Scale   =       1.2000000000000000 [-]
	 SCS Same-Spin Energy      =      -0.1176741369086728 [Eh]
	 SCS Opposite-Spin Energy  =      -1.2997092697772070 [Eh]
	 SCS Correlation Energy    =      -1.4173834066858799 [Eh]
	 SCS Total Energy          =    -340.1803130936805815 [Eh]
	-----------------------------------------------------------

  Dipole Moment: [D]
     X:    -3.1440      Y:     0.6276      Z:     0.0003     Total:     3.2060

*** Psi4 exiting successfully. Buy a developer a beer!
