                               Psi4 1.3.2 release

  ==> Input File <==

--------------------------------------------------------------------------
#psi4
#
memory 32 gb

molecule  {
0 1
  O       -1.4607440    -0.6783760    -0.0000110
  N        0.8364910    -1.0546300    -0.0000300
  N        2.0492790    -0.4487200    -0.0000870
  C       -0.2441101    -0.1585246    -0.0000304
  C        0.3504840     1.0933250    -0.0000620
  C        1.7415550     0.8590090    -0.0000990
  C       -2.4699820     0.3361590     0.0002330
  H       -0.1651650     2.0416990    -0.0000660
  H        0.7745000    -2.0647320    -0.0000170
  H        2.5420040     1.5875080    -0.0001330
  H       -3.4206380    -0.1946080     0.0003100
  H       -2.3886930     0.9604430    -0.8948830
  H       -2.3884390     0.9602630     0.8954520
units angstrom
no_reorient  #important for SAPT in psi4, default
symmetry c1  #important for SAPT in psi4, default
}

set PROPERTIES_ORIGIN ["COM"]
properties('MP2/aug-cc-pvtz', properties = ['dipole'])
--------------------------------------------------------------------------

    Molecular point group: c1
  Charge       = 0
  Multiplicity = 1
  Basis Set: AUG-CC-PVTZ
    Blend: AUG-CC-PVTZ
  Basis Set: (AUG-CC-PVTZ AUX)
    Blend: AUG-CC-PVTZ-JKFIT

    Orbital Energies [Eh]
    ---------------------

    Doubly Occupied:

       1A    -20.619097     2A    -15.624930     3A    -15.582077
       4A    -11.345494     5A    -11.303775     6A    -11.255368
       7A    -11.220978     8A     -1.456034     9A     -1.346885
      10A     -1.081847    11A     -1.047114    12A     -0.968048
      13A     -0.816464    14A     -0.792216    15A     -0.758443
      16A     -0.686440    17A     -0.656205    18A     -0.629856
      19A     -0.593207    20A     -0.589254    21A     -0.578702
      22A     -0.534692    23A     -0.513331    24A     -0.451953
      25A     -0.363335    26A     -0.321344

  @DF-RHF Final Energy:  -338.79476301847745

   => Energetics <=

    Nuclear Repulsion Energy =            295.5264920882634101
    One-Electron Energy =               -1046.3683340595030131
    Two-Electron Energy =                 412.0470789527620923
    Total Energy =                       -338.7947630184774539
  Basis Set: (AUG-CC-PVTZ AUX)
    Blend: AUG-CC-PVTZ-RI
    Molecular point group: c1

    Geometry (in Angstrom), charge = 0, multiplicity = 1:

       Center              X                  Y                   Z               Mass
    ------------   -----------------  -----------------  -----------------  -----------------
         O           -1.506584996611    -0.647512091822    -0.000004402052    15.994914619570
         N            0.790650003389    -1.023766091822    -0.000023402052    14.003074004430
         N            2.003438003389    -0.417856091822    -0.000080402052    14.003074004430
         C           -0.289951096611    -0.127660691822    -0.000023802052    12.000000000000
         C            0.304643003389     1.124188908178    -0.000055402052    12.000000000000
         C            1.695714003389     0.889872908178    -0.000092402052    12.000000000000
         C           -2.515822996611     0.367022908178     0.000239597948    12.000000000000
         H           -0.211005996611     2.072562908178    -0.000059402052     1.007825032230
         H            0.728659003389    -2.033868091822    -0.000010402052     1.007825032230
         H            2.496163003389     1.618371908178    -0.000126402052     1.007825032230
         H           -3.466478996611    -0.163744091822     0.000316597948     1.007825032230
         H           -2.434533996611     0.991306908178    -0.894876402052     1.007825032230
         H           -2.434279996611     0.991126908178     0.895458597948     1.007825032230

  Basis Set: AUG-CC-PVTZ
    Blend: AUG-CC-PVTZ
  Basis Set: (AUG-CC-PVTZ AUX)
    Blend: AUG-CC-PVTZ-JKFIT
	 Reference Energy          =    -338.7947630184774539 [Eh]
	 Singles Energy            =      -0.0000000000000000 [Eh]
	 Same-Spin Energy          =      -0.3538129677887721 [Eh]
	 Opposite-Spin Energy      =      -1.0844416014694902 [Eh]
	 Correlation Energy        =      -1.4382545692582624 [Eh]
	 Total Energy              =    -340.2330175877357306 [Eh]

	 ================> DF-SCS-MP2 Energies <==================
	-----------------------------------------------------------
	 SCS Same-Spin Scale       =       0.3333333333333333 [-]
	 SCS Opposite-Spin Scale   =       1.2000000000000000 [-]
	 SCS Same-Spin Energy      =      -0.1179376559295907 [Eh]
	 SCS Opposite-Spin Energy  =      -1.3013299217633882 [Eh]
	 SCS Correlation Energy    =      -1.4192675776929788 [Eh]
	 SCS Total Energy          =    -340.2140305961704598 [Eh]
	-----------------------------------------------------------

  Dipole Moment: [D]
     X:    -3.3748      Y:     0.6844      Z:     0.0004     Total:     3.4435

*** Psi4 exiting successfully. Buy a developer a beer!
