                               Psi4 1.4a3.dev225

  ==> Input File <==

--------------------------------------------------------------------------
#psi4
#
memory 32 gb

molecule  {
0 1
  O       -1.4607440    -0.6783760    -0.0000110
  N        0.8364910    -1.0546300    -0.0000300
  N        2.0940075    -0.4263736    -0.0000891
  C       -0.2000590    -0.1785130    -0.0000310
  C        0.3504840     1.0933250    -0.0000620
  C        1.7415550     0.8590090    -0.0000990
  C       -2.4699820     0.3361590     0.0002330
  H       -0.1651650     2.0416990    -0.0000660
  H        0.7745000    -2.0647320    -0.0000170
  H        2.5420040     1.5875080    -0.0001330
  H       -3.4206380    -0.1946080     0.0003100
  H       -2.3886930     0.9604430    -0.8948830
  H       -2.3884390     0.9602630     0.8954520
units angstrom
no_reorient  #important for SAPT in psi4, default
symmetry c1  #important for SAPT in psi4, default
}

set PROPERTIES_ORIGIN ["COM"]
properties('MP2/aug-cc-pvtz', properties = ['dipole'])
--------------------------------------------------------------------------

    Molecular point group: c1
  Charge       = 0
  Multiplicity = 1
  Basis Set: AUG-CC-PVTZ
    Blend: AUG-CC-PVTZ
  Basis Set: (AUG-CC-PVTZ AUX)
    Blend: AUG-CC-PVTZ-JKFIT

    Orbital Energies [Eh]
    ---------------------

    Doubly Occupied:

       1A    -20.615187     2A    -15.625726     3A    -15.584235
       4A    -11.347783     5A    -11.301305     6A    -11.259947
       7A    -11.219612     8A     -1.440967     9A     -1.340065
      10A     -1.096929    11A     -1.043811    12A     -0.963998
      13A     -0.815837    14A     -0.793074    15A     -0.755726
      16A     -0.680090    17A     -0.650280    18A     -0.622898
      19A     -0.597437    20A     -0.593653    21A     -0.575952
      22A     -0.528763    23A     -0.506528    24A     -0.458964
      25A     -0.368208    26A     -0.329707

  @DF-RHF Final Energy:  -338.79692809757609

   => Energetics <=

    Nuclear Repulsion Energy =            294.7198605938682476
    One-Electron Energy =               -1044.8002138090080280
    Two-Electron Energy =                 411.2834251175636950
    Total Energy =                       -338.7969280975760853
  Basis Set: (AUG-CC-PVTZ AUX)
    Blend: AUG-CC-PVTZ-RI
    Molecular point group: c1

    Geometry (in Angstrom), charge = 0, multiplicity = 1:

       Center              X                  Y                   Z               Mass
    ------------   -----------------  -----------------  -----------------  -----------------
         O           -1.518364426529    -0.648257211390    -0.000004028699    15.994914619570
         N            0.778870573471    -1.024511211390    -0.000023028699    14.003074004430
         N            2.036387073471    -0.396254811390    -0.000082128699    14.003074004430
         C           -0.257679426529    -0.148394211390    -0.000024028699    12.000000000000
         C            0.292863573471     1.123443788610    -0.000055028699    12.000000000000
         C            1.683934573471     0.889127788610    -0.000092028699    12.000000000000
         C           -2.527602426529     0.366277788610     0.000239971301    12.000000000000
         H           -0.222785426529     2.071817788610    -0.000059028699     1.007825032230
         H            0.716879573471    -2.034613211390    -0.000010028699     1.007825032230
         H            2.484383573471     1.617626788610    -0.000126028699     1.007825032230
         H           -3.478258426529    -0.164489211390     0.000316971301     1.007825032230
         H           -2.446313426529     0.990561788610    -0.894876028699     1.007825032230
         H           -2.446059426529     0.990381788610     0.895458971301     1.007825032230

  Basis Set: AUG-CC-PVTZ
    Blend: AUG-CC-PVTZ
  Basis Set: (AUG-CC-PVTZ AUX)
    Blend: AUG-CC-PVTZ-JKFIT
	 Reference Energy          =    -338.7969280975760853 [Eh]
	 Singles Energy            =      -0.0000000000000000 [Eh]
	 Same-Spin Energy          =      -0.3527355268792179 [Eh]
	 Opposite-Spin Energy      =      -1.0837567725897852 [Eh]
	 Correlation Energy        =      -1.4364922994690033 [Eh]
	 Total Energy              =    -340.2334203970451085 [Eh]

	 ================> DF-SCS-MP2 Energies <==================
	-----------------------------------------------------------
	 SCS Same-Spin Scale       =       0.3333333333333333 [-]
	 SCS Opposite-Spin Scale   =       1.2000000000000000 [-]
	 SCS Same-Spin Energy      =      -0.1175785089597393 [Eh]
	 SCS Opposite-Spin Energy  =      -1.3005081271077421 [Eh]
	 SCS Correlation Energy    =      -1.4180866360674813 [Eh]
	 SCS Total Energy          =    -340.2150147336435566 [Eh]
	-----------------------------------------------------------

  Dipole Moment: [D]
     X:    -3.1824      Y:     0.6941      Z:     0.0003     Total:     3.2572

*** Psi4 exiting successfully. Buy a developer a beer!
