                               Psi4 1.4a3.dev225

  ==> Input File <==

--------------------------------------------------------------------------
#psi4
#
memory 32 gb

molecule  {
0 1
  O       -1.4607440    -0.6783760    -0.0000110
  N        0.8364910    -1.0546300    -0.0000300
  N        2.0492790    -0.4487200    -0.0000870
  C       -0.2000590    -0.1785130    -0.0000310
  C        0.3504840     1.0933250    -0.0000620
  C        1.7301022     0.9076797    -0.0000994
  C       -2.4699820     0.3361590     0.0002330
  H       -0.1651650     2.0416990    -0.0000660
  H        0.7745000    -2.0647320    -0.0000170
  H        2.5420040     1.5875080    -0.0001330
  H       -3.4206380    -0.1946080     0.0003100
  H       -2.3886930     0.9604430    -0.8948830
  H       -2.3884390     0.9602630     0.8954520
units angstrom
no_reorient  #important for SAPT in psi4, default
symmetry c1  #important for SAPT in psi4, default
}

set PROPERTIES_ORIGIN ["COM"]
properties('MP2/aug-cc-pvtz', properties = ['dipole'])
--------------------------------------------------------------------------

    Molecular point group: c1
  Charge       = 0
  Multiplicity = 1
  Basis Set: AUG-CC-PVTZ
    Blend: AUG-CC-PVTZ
  Basis Set: (AUG-CC-PVTZ AUX)
    Blend: AUG-CC-PVTZ-JKFIT

    Orbital Energies [Eh]
    ---------------------

    Doubly Occupied:

       1A    -20.612712     2A    -15.634222     3A    -15.582179
       4A    -11.342661     5A    -11.300526     6A    -11.258478
       7A    -11.221773     8A     -1.439907     9A     -1.350159
      10A     -1.083193    11A     -1.050274    12A     -0.960025
      13A     -0.825111    14A     -0.799292    15A     -0.754457
      16A     -0.679718    17A     -0.651756    18A     -0.622014
      19A     -0.603955    20A     -0.597178    21A     -0.579305
      22A     -0.528933    23A     -0.505544    24A     -0.451697
      25A     -0.368779    26A     -0.318616

  @DF-RHF Final Energy:  -338.79236837668032

   => Energetics <=

    Nuclear Repulsion Energy =            295.1125026603588140
    One-Electron Energy =               -1045.5648176205711479
    Two-Electron Energy =                 411.6599465835320188
    Total Energy =                       -338.7923683766803151
  Basis Set: (AUG-CC-PVTZ AUX)
    Blend: AUG-CC-PVTZ-RI
    Molecular point group: c1

    Geometry (in Angstrom), charge = 0, multiplicity = 1:

       Center              X                  Y                   Z               Mass
    ------------   -----------------  -----------------  -----------------  -----------------
         O           -1.510574670535    -0.651022490351    -0.000004279663    15.994914619570
         N            0.786660329465    -1.027276490351    -0.000023279663    14.003074004430
         N            1.999448329465    -0.421366490351    -0.000080279663    14.003074004430
         C           -0.249889670535    -0.151159490351    -0.000024279663    12.000000000000
         C            0.300653329465     1.120678509649    -0.000055279663    12.000000000000
         C            1.680271529465     0.935033209649    -0.000092679663    12.000000000000
         C           -2.519812670535     0.363512509649     0.000239720337    12.000000000000
         H           -0.214995670535     2.069052509649    -0.000059279663     1.007825032230
         H            0.724669329465    -2.037378490351    -0.000010279663     1.007825032230
         H            2.492173329465     1.614861509649    -0.000126279663     1.007825032230
         H           -3.470468670535    -0.167254490351     0.000316720337     1.007825032230
         H           -2.438523670535     0.987796509649    -0.894876279663     1.007825032230
         H           -2.438269670535     0.987616509649     0.895458720337     1.007825032230

  Basis Set: AUG-CC-PVTZ
    Blend: AUG-CC-PVTZ
  Basis Set: (AUG-CC-PVTZ AUX)
    Blend: AUG-CC-PVTZ-JKFIT
	 Reference Energy          =    -338.7923683766803151 [Eh]
	 Singles Energy            =      -0.0000000000000000 [Eh]
	 Same-Spin Energy          =      -0.3547173512710834 [Eh]
	 Opposite-Spin Energy      =      -1.0861025226772094 [Eh]
	 Correlation Energy        =      -1.4408198739482927 [Eh]
	 Total Energy              =    -340.2331882506285865 [Eh]

	 ================> DF-SCS-MP2 Energies <==================
	-----------------------------------------------------------
	 SCS Same-Spin Scale       =       0.3333333333333333 [-]
	 SCS Opposite-Spin Scale   =       1.2000000000000000 [-]
	 SCS Same-Spin Energy      =      -0.1182391170903611 [Eh]
	 SCS Opposite-Spin Energy  =      -1.3033230272126513 [Eh]
	 SCS Correlation Energy    =      -1.4215621443030124 [Eh]
	 SCS Total Energy          =    -340.2139305209833537 [Eh]
	-----------------------------------------------------------

  Dipole Moment: [D]
     X:    -3.1710      Y:     0.6457      Z:     0.0003     Total:     3.2361

*** Psi4 exiting successfully. Buy a developer a beer!
