                               Psi4 1.3.2 release

  ==> Input File <==

--------------------------------------------------------------------------
#psi4
#
memory 32 gb

molecule  {
0 1
  O       -1.4607440    -0.6783760    -0.0000110
  N        0.8664356    -1.0179212    -0.0000311
  N        2.0492790    -0.4487200    -0.0000870
  C       -0.2000590    -0.1785130    -0.0000310
  C        0.3504840     1.0933250    -0.0000620
  C        1.7415550     0.8590090    -0.0000990
  C       -2.4699820     0.3361590     0.0002330
  H       -0.1651650     2.0416990    -0.0000660
  H        0.7745000    -2.0647320    -0.0000170
  H        2.5420040     1.5875080    -0.0001330
  H       -3.4206380    -0.1946080     0.0003100
  H       -2.3886930     0.9604430    -0.8948830
  H       -2.3884390     0.9602630     0.8954520
units angstrom
no_reorient  #important for SAPT in psi4, default
symmetry c1  #important for SAPT in psi4, default
}

set PROPERTIES_ORIGIN ["COM"]
properties('MP2/aug-cc-pvtz', properties = ['dipole'])
--------------------------------------------------------------------------

    Molecular point group: c1
  Charge       = 0
  Multiplicity = 1
  Basis Set: AUG-CC-PVTZ
    Blend: AUG-CC-PVTZ
  Basis Set: (AUG-CC-PVTZ AUX)
    Blend: AUG-CC-PVTZ-JKFIT

    Orbital Energies [Eh]
    ---------------------

    Doubly Occupied:

       1A    -20.612803     2A    -15.636370     3A    -15.580150
       4A    -11.338999     5A    -11.300638     6A    -11.252740
       7A    -11.219690     8A     -1.440535     9A     -1.374074
      10A     -1.086148    11A     -1.053071    12A     -0.961381
      13A     -0.812803    14A     -0.802334    15A     -0.755208
      16A     -0.680391    17A     -0.649520    18A     -0.628333
      19A     -0.607487    20A     -0.590874    21A     -0.579438
      22A     -0.527207    23A     -0.508862    24A     -0.456902
      25A     -0.363204    26A     -0.324413

  @DF-RHF Final Energy:  -338.79548298935498

   => Energetics <=

    Nuclear Repulsion Energy =            296.4338162270299790
    One-Electron Energy =               -1048.1714456277056797
    Two-Electron Energy =                 412.9421464113207207
    Total Energy =                       -338.7954829893549800
  Basis Set: (AUG-CC-PVTZ AUX)
    Blend: AUG-CC-PVTZ-RI
    Molecular point group: c1

    Geometry (in Angstrom), charge = 0, multiplicity = 1:

       Center              X                  Y                   Z               Mass
    ------------   -----------------  -----------------  -----------------  -----------------
         O           -1.516253011521    -0.650308428384    -0.000004171518    15.994914619570
         N            0.810926588479    -0.989853628384    -0.000024271518    14.003074004430
         N            1.993769988479    -0.420652428384    -0.000080171518    14.003074004430
         C           -0.255568011521    -0.150445428384    -0.000024171518    12.000000000000
         C            0.294974988479     1.121392571616    -0.000055171518    12.000000000000
         C            1.686045988479     0.887076571616    -0.000092171518    12.000000000000
         C           -2.525491011521     0.364226571616     0.000239828482    12.000000000000
         H           -0.220674011521     2.069766571616    -0.000059171518     1.007825032230
         H            0.718990988479    -2.036664428384    -0.000010171518     1.007825032230
         H            2.486494988479     1.615575571616    -0.000126171518     1.007825032230
         H           -3.476147011521    -0.166540428384     0.000316828482     1.007825032230
         H           -2.444202011521     0.988510571616    -0.894876171518     1.007825032230
         H           -2.443948011521     0.988330571616     0.895458828482     1.007825032230

  Basis Set: AUG-CC-PVTZ
    Blend: AUG-CC-PVTZ
  Basis Set: (AUG-CC-PVTZ AUX)
    Blend: AUG-CC-PVTZ-JKFIT
	 Reference Energy          =    -338.7954829893549800 [Eh]
	 Singles Energy            =      -0.0000000000000000 [Eh]
	 Same-Spin Energy          =      -0.3540385913591753 [Eh]
	 Opposite-Spin Energy      =      -1.0835752342040437 [Eh]
	 Correlation Energy        =      -1.4376138255632189 [Eh]
	 Total Energy              =    -340.2330968149182127 [Eh]

	 ================> DF-SCS-MP2 Energies <==================
	-----------------------------------------------------------
	 SCS Same-Spin Scale       =       0.3333333333333333 [-]
	 SCS Opposite-Spin Scale   =       1.2000000000000000 [-]
	 SCS Same-Spin Energy      =      -0.1180128637863918 [Eh]
	 SCS Opposite-Spin Energy  =      -1.3002902810448524 [Eh]
	 SCS Correlation Energy    =      -1.4183031448312442 [Eh]
	 SCS Total Energy          =    -340.2137861341862504 [Eh]
	-----------------------------------------------------------

  Dipole Moment: [D]
     X:    -3.1487      Y:     0.5481      Z:     0.0003     Total:     3.1961

*** Psi4 exiting successfully. Buy a developer a beer!
