                               Psi4 1.3.2 release

  ==> Input File <==

--------------------------------------------------------------------------
#psi4
#
memory 32 gb

molecule  {
0 1
  O       -1.4607440    -0.6783760    -0.0000110
  N        0.8364910    -1.0546300    -0.0000300
  N        2.0696862    -0.4914148    -0.0000861
  C       -0.2000590    -0.1785130    -0.0000310
  C        0.3504840     1.0933250    -0.0000620
  C        1.7415550     0.8590090    -0.0000990
  C       -2.4699820     0.3361590     0.0002330
  H       -0.1651650     2.0416990    -0.0000660
  H        0.7745000    -2.0647320    -0.0000170
  H        2.5420040     1.5875080    -0.0001330
  H       -3.4206380    -0.1946080     0.0003100
  H       -2.3886930     0.9604430    -0.8948830
  H       -2.3884390     0.9602630     0.8954520
units angstrom
no_reorient  #important for SAPT in psi4, default
symmetry c1  #important for SAPT in psi4, default
}

set PROPERTIES_ORIGIN ["COM"]
properties('MP2/aug-cc-pvtz', properties = ['dipole'])
--------------------------------------------------------------------------

    Molecular point group: c1
  Charge       = 0
  Multiplicity = 1
  Basis Set: AUG-CC-PVTZ
    Blend: AUG-CC-PVTZ
  Basis Set: (AUG-CC-PVTZ AUX)
    Blend: AUG-CC-PVTZ-JKFIT

    Orbital Energies [Eh]
    ---------------------

    Doubly Occupied:

       1A    -20.613417     2A    -15.632464     3A    -15.585906
       4A    -11.344232     5A    -11.301210     6A    -11.263060
       7A    -11.223963     8A     -1.440553     9A     -1.351682
      10A     -1.080356    11A     -1.053115    12A     -0.961011
      13A     -0.818619    14A     -0.800197    15A     -0.754486
      16A     -0.680264    17A     -0.650368    18A     -0.622020
      19A     -0.598505    20A     -0.597897    21A     -0.575599
      22A     -0.527879    23A     -0.506401    24A     -0.459778
      25A     -0.365297    26A     -0.322316

  @DF-RHF Final Energy:  -338.79247361495555

   => Energetics <=

    Nuclear Repulsion Energy =            294.7535938894675382
    One-Electron Energy =               -1044.8309477914579020
    Two-Electron Energy =                 411.2848802870348095
    Total Energy =                       -338.7924736149555542
  Basis Set: (AUG-CC-PVTZ AUX)
    Blend: AUG-CC-PVTZ-RI
    Molecular point group: c1

    Geometry (in Angstrom), charge = 0, multiplicity = 1:

       Center              X                  Y                   Z               Mass
    ------------   -----------------  -----------------  -----------------  -----------------
         O           -1.514890893981    -0.638968122190    -0.000004457155    15.994914619570
         N            0.782344106019    -1.015222122190    -0.000023457155    14.003074004430
         N            2.015539306019    -0.452006922190    -0.000079557155    14.003074004430
         C           -0.254205893981    -0.139105122190    -0.000024457155    12.000000000000
         C            0.296337106019     1.132732877810    -0.000055457155    12.000000000000
         C            1.687408106019     0.898416877810    -0.000092457155    12.000000000000
         C           -2.524128893981     0.375566877810     0.000239542845    12.000000000000
         H           -0.219311893981     2.081106877810    -0.000059457155     1.007825032230
         H            0.720353106019    -2.025324122190    -0.000010457155     1.007825032230
         H            2.487857106019     1.626915877810    -0.000126457155     1.007825032230
         H           -3.474784893981    -0.155200122190     0.000316542845     1.007825032230
         H           -2.442839893981     0.999850877810    -0.894876457155     1.007825032230
         H           -2.442585893981     0.999670877810     0.895458542845     1.007825032230

  Basis Set: AUG-CC-PVTZ
    Blend: AUG-CC-PVTZ
  Basis Set: (AUG-CC-PVTZ AUX)
    Blend: AUG-CC-PVTZ-JKFIT
	 Reference Energy          =    -338.7924736149555542 [Eh]
	 Singles Energy            =      -0.0000000000000000 [Eh]
	 Same-Spin Energy          =      -0.3545814442213342 [Eh]
	 Opposite-Spin Energy      =      -1.0862052536199736 [Eh]
	 Correlation Energy        =      -1.4407866978413078 [Eh]
	 Total Energy              =    -340.2332603127968582 [Eh]

	 ================> DF-SCS-MP2 Energies <==================
	-----------------------------------------------------------
	 SCS Same-Spin Scale       =       0.3333333333333333 [-]
	 SCS Opposite-Spin Scale   =       1.2000000000000000 [-]
	 SCS Same-Spin Energy      =      -0.1181938147404447 [Eh]
	 SCS Opposite-Spin Energy  =      -1.3034463043439681 [Eh]
	 SCS Correlation Energy    =      -1.4216401190844128 [Eh]
	 SCS Total Energy          =    -340.2141137340399837 [Eh]
	-----------------------------------------------------------

  Dipole Moment: [D]
     X:    -3.2197      Y:     0.6928      Z:     0.0003     Total:     3.2934

*** Psi4 exiting successfully. Buy a developer a beer!
