                               Psi4 1.3.2 release

  ==> Input File <==

--------------------------------------------------------------------------
#psi4
#
memory 32 gb

molecule  {
0 1
  O       -1.4607440    -0.6783760    -0.0000110
  N        0.8364910    -1.0546300    -0.0000300
  N        2.0492790    -0.4487200    -0.0000870
  C       -0.2859598    -0.2916614    -0.0000288
  C        0.3504840     1.0933250    -0.0000620
  C        1.7415550     0.8590090    -0.0000990
  C       -2.4699820     0.3361590     0.0002330
  H       -0.1651650     2.0416990    -0.0000660
  H        0.7745000    -2.0647320    -0.0000170
  H        2.5420040     1.5875080    -0.0001330
  H       -3.4206380    -0.1946080     0.0003100
  H       -2.3886930     0.9604430    -0.8948830
  H       -2.3884390     0.9602630     0.8954520
units angstrom
no_reorient  #important for SAPT in psi4, default
symmetry c1  #important for SAPT in psi4, default
}

set PROPERTIES_ORIGIN ["COM"]
properties('MP2/aug-cc-pvtz', properties = ['dipole'])
--------------------------------------------------------------------------

    Molecular point group: c1
  Charge       = 0
  Multiplicity = 1
  Basis Set: AUG-CC-PVTZ
    Blend: AUG-CC-PVTZ
  Basis Set: (AUG-CC-PVTZ AUX)
    Blend: AUG-CC-PVTZ-JKFIT

    Orbital Energies [Eh]
    ---------------------

    Doubly Occupied:

       1A    -20.632915     2A    -15.630179     3A    -15.566751
       4A    -11.356922     5A    -11.316462     6A    -11.251486
       7A    -11.217276     8A     -1.504109     9A     -1.347844
      10A     -1.096280    11A     -1.023767    12A     -0.981975
      13A     -0.815006    14A     -0.794920    15A     -0.775745
      16A     -0.708444    17A     -0.675992    18A     -0.621221
      19A     -0.596294    20A     -0.588522    21A     -0.581851
      22A     -0.529315    23A     -0.512354    24A     -0.442971
      25A     -0.360363    26A     -0.297748

  @DF-RHF Final Energy:  -338.77312536557662

   => Energetics <=

    Nuclear Repulsion Energy =            295.6465170791612991
    One-Electron Energy =               -1046.3858656316440374
    Two-Electron Energy =                 411.9662231869061202
    Total Energy =                       -338.7731253655766182
  Basis Set: (AUG-CC-PVTZ AUX)
    Blend: AUG-CC-PVTZ-RI
    Molecular point group: c1

    Geometry (in Angstrom), charge = 0, multiplicity = 1:

       Center              X                  Y                   Z               Mass
    ------------   -----------------  -----------------  -----------------  -----------------
         O           -1.501463052927    -0.631217609619    -0.000004597874    15.994914619570
         N            0.795771947073    -1.007471609619    -0.000023597874    14.003074004430
         N            2.008559947073    -0.401561609619    -0.000080597874    14.003074004430
         C           -0.326678852927    -0.244503009619    -0.000022397874    12.000000000000
         C            0.309764947073     1.140483390381    -0.000055597874    12.000000000000
         C            1.700835947073     0.906167390381    -0.000092597874    12.000000000000
         C           -2.510701052927     0.383317390381     0.000239402126    12.000000000000
         H           -0.205884052927     2.088857390381    -0.000059597874     1.007825032230
         H            0.733780947073    -2.017573609619    -0.000010597874     1.007825032230
         H            2.501284947073     1.634666390381    -0.000126597874     1.007825032230
         H           -3.461357052927    -0.147449609619     0.000316402126     1.007825032230
         H           -2.429412052927     1.007601390381    -0.894876597874     1.007825032230
         H           -2.429158052927     1.007421390381     0.895458402126     1.007825032230

  Basis Set: AUG-CC-PVTZ
    Blend: AUG-CC-PVTZ
  Basis Set: (AUG-CC-PVTZ AUX)
    Blend: AUG-CC-PVTZ-JKFIT
	 Reference Energy          =    -338.7731253655766182 [Eh]
	 Singles Energy            =      -0.0000000000000000 [Eh]
	 Same-Spin Energy          =      -0.3536188432488739 [Eh]
	 Opposite-Spin Energy      =      -1.0825211015822804 [Eh]
	 Correlation Energy        =      -1.4361399448311545 [Eh]
	 Total Energy              =    -340.2092653104077726 [Eh]

	 ================> DF-SCS-MP2 Energies <==================
	-----------------------------------------------------------
	 SCS Same-Spin Scale       =       0.3333333333333333 [-]
	 SCS Opposite-Spin Scale   =       1.2000000000000000 [-]
	 SCS Same-Spin Energy      =      -0.1178729477496246 [Eh]
	 SCS Opposite-Spin Energy  =      -1.2990253218987364 [Eh]
	 SCS Correlation Energy    =      -1.4168982696483612 [Eh]
	 SCS Total Energy          =    -340.1900236352249749 [Eh]
	-----------------------------------------------------------

  Dipole Moment: [D]
     X:    -4.0238      Y:     0.2680      Z:     0.0004     Total:     4.0327

*** Psi4 exiting successfully. Buy a developer a beer!
