                               Psi4 1.3.2 release

  ==> Input File <==

--------------------------------------------------------------------------
#psi4
#
memory 32 gb

molecule  {
0 1
  O       -1.4607440    -0.6783760    -0.0000110
  N        0.7797999    -0.9245399    -0.0000302
  N        2.0492790    -0.4487200    -0.0000870
  C       -0.2000590    -0.1785130    -0.0000310
  C        0.3504840     1.0933250    -0.0000620
  C        1.7415550     0.8590090    -0.0000990
  C       -2.4699820     0.3361590     0.0002330
  H       -0.1651650     2.0416990    -0.0000660
  H        0.7745000    -2.0647320    -0.0000170
  H        2.5420040     1.5875080    -0.0001330
  H       -3.4206380    -0.1946080     0.0003100
  H       -2.3886930     0.9604430    -0.8948830
  H       -2.3884390     0.9602630     0.8954520
units angstrom
no_reorient  #important for SAPT in psi4, default
symmetry c1  #important for SAPT in psi4, default
}

set PROPERTIES_ORIGIN ["COM"]
properties('MP2/aug-cc-pvtz', properties = ['dipole'])
--------------------------------------------------------------------------

    Molecular point group: c1
  Charge       = 0
  Multiplicity = 1
  Basis Set: AUG-CC-PVTZ
    Blend: AUG-CC-PVTZ
  Basis Set: (AUG-CC-PVTZ AUX)
    Blend: AUG-CC-PVTZ-JKFIT

    Orbital Energies [Eh]
    ---------------------

    Doubly Occupied:

       1A    -20.613034     2A    -15.638676     3A    -15.577218
       4A    -11.330133     5A    -11.300239     6A    -11.256088
       7A    -11.210997     8A     -1.449762     9A     -1.379529
      10A     -1.118602    11A     -1.040222    12A     -0.962702
      13A     -0.816590    14A     -0.792256    15A     -0.759482
      16A     -0.688033    17A     -0.643467    18A     -0.622224
      19A     -0.616825    20A     -0.585500    21A     -0.562080
      22A     -0.525925    23A     -0.506810    24A     -0.468219
      25A     -0.366764    26A     -0.329599

  @DF-RHF Final Energy:  -338.76542664324290

   => Energetics <=

    Nuclear Repulsion Energy =            298.8685266833966807
    One-Electron Energy =               -1052.9459575121409216
    Two-Electron Energy =                 415.3120041855013369
    Total Energy =                       -338.7654266432429040
  Basis Set: (AUG-CC-PVTZ AUX)
    Blend: AUG-CC-PVTZ-RI
    Molecular point group: c1

    Geometry (in Angstrom), charge = 0, multiplicity = 1:

       Center              X                  Y                   Z               Mass
    ------------   -----------------  -----------------  -----------------  -----------------
         O           -1.503879827367    -0.663645009278    -0.000004300055    15.994914619570
         N            0.736664072633    -0.909808909278    -0.000023500055    14.003074004430
         N            2.006143172633    -0.433989009278    -0.000080300055    14.003074004430
         C           -0.243194827367    -0.163782009278    -0.000024300055    12.000000000000
         C            0.307348172633     1.108055990722    -0.000055300055    12.000000000000
         C            1.698419172633     0.873739990722    -0.000092300055    12.000000000000
         C           -2.513117827367     0.350889990722     0.000239699945    12.000000000000
         H           -0.208300827367     2.056429990722    -0.000059300055     1.007825032230
         H            0.731364172633    -2.050001009278    -0.000010300055     1.007825032230
         H            2.498868172633     1.602238990722    -0.000126300055     1.007825032230
         H           -3.463773827367    -0.179877009278     0.000316699945     1.007825032230
         H           -2.431828827367     0.975173990722    -0.894876300055     1.007825032230
         H           -2.431574827367     0.974993990722     0.895458699945     1.007825032230

  Basis Set: AUG-CC-PVTZ
    Blend: AUG-CC-PVTZ
  Basis Set: (AUG-CC-PVTZ AUX)
    Blend: AUG-CC-PVTZ-JKFIT
	 Reference Energy          =    -338.7654266432429040 [Eh]
	 Singles Energy            =      -0.0000000000000000 [Eh]
	 Same-Spin Energy          =      -0.3539842088417612 [Eh]
	 Opposite-Spin Energy      =      -1.0836742926297049 [Eh]
	 Correlation Energy        =      -1.4376585014714660 [Eh]
	 Total Energy              =    -340.2030851447143505 [Eh]

	 ================> DF-SCS-MP2 Energies <==================
	-----------------------------------------------------------
	 SCS Same-Spin Scale       =       0.3333333333333333 [-]
	 SCS Opposite-Spin Scale   =       1.2000000000000000 [-]
	 SCS Same-Spin Energy      =      -0.1179947362805871 [Eh]
	 SCS Opposite-Spin Energy  =      -1.3004091511556459 [Eh]
	 SCS Correlation Energy    =      -1.4184038874362330 [Eh]
	 SCS Total Energy          =    -340.1838305306791312 [Eh]
	-----------------------------------------------------------

  Dipole Moment: [D]
     X:    -3.0856      Y:     0.3949      Z:     0.0004     Total:     3.1107

*** Psi4 exiting successfully. Buy a developer a beer!
