                               Psi4 1.3.2 release

  ==> Input File <==

--------------------------------------------------------------------------
#psi4
#
memory 32 gb

molecule  {
0 1
  O       -1.4607440    -0.6783760    -0.0000110
  N        0.8364910    -1.0546300    -0.0000300
  N        2.0492790    -0.4487200    -0.0000870
  C       -0.2000590    -0.1785130    -0.0000310
  C        0.3431539     1.0446346    -0.0000611
  C        1.7415550     0.8590090    -0.0000990
  C       -2.4699820     0.3361590     0.0002330
  H       -0.1651650     2.0416990    -0.0000660
  H        0.7745000    -2.0647320    -0.0000170
  H        2.5420040     1.5875080    -0.0001330
  H       -3.4206380    -0.1946080     0.0003100
  H       -2.3886930     0.9604430    -0.8948830
  H       -2.3884390     0.9602630     0.8954520
units angstrom
no_reorient  #important for SAPT in psi4, default
symmetry c1  #important for SAPT in psi4, default
}

set PROPERTIES_ORIGIN ["COM"]
properties('MP2/aug-cc-pvtz', properties = ['dipole'])
--------------------------------------------------------------------------

    Molecular point group: c1
  Charge       = 0
  Multiplicity = 1
  Basis Set: AUG-CC-PVTZ
    Blend: AUG-CC-PVTZ
  Basis Set: (AUG-CC-PVTZ AUX)
    Blend: AUG-CC-PVTZ-JKFIT

    Orbital Energies [Eh]
    ---------------------

    Doubly Occupied:

       1A    -20.610877     2A    -15.627151     3A    -15.583251
       4A    -11.335348     5A    -11.299241     6A    -11.256709
       7A    -11.217936     8A     -1.439110     9A     -1.357816
      10A     -1.090728    11A     -1.055877    12A     -0.961147
      13A     -0.819345    14A     -0.796031    15A     -0.755207
      16A     -0.679589    17A     -0.650116    18A     -0.625437
      19A     -0.601111    20A     -0.591375    21A     -0.579216
      22A     -0.529592    23A     -0.505908    24A     -0.453604
      25A     -0.366165    26A     -0.331022

  @DF-RHF Final Energy:  -338.79692666714936

   => Energetics <=

    Nuclear Repulsion Energy =            296.6373476597669310
    One-Electron Energy =               -1048.6307318617202782
    Two-Electron Energy =                 413.1964575348040398
    Total Energy =                       -338.7969266671493642
  Basis Set: (AUG-CC-PVTZ AUX)
    Blend: AUG-CC-PVTZ-RI
    Molecular point group: c1

    Geometry (in Angstrom), charge = 0, multiplicity = 1:

       Center              X                  Y                   Z               Mass
    ------------   -----------------  -----------------  -----------------  -----------------
         O           -1.511079243739    -0.639106560937    -0.000004438768    15.994914619570
         N            0.786155756261    -1.015360560937    -0.000023438768    14.003074004430
         N            1.998943756261    -0.409450560937    -0.000080438768    14.003074004430
         C           -0.250394243739    -0.139243560937    -0.000024438768    12.000000000000
         C            0.292818656261     1.083904039063    -0.000054538768    12.000000000000
         C            1.691219756261     0.898278439063    -0.000092438768    12.000000000000
         C           -2.520317243739     0.375428439063     0.000239561232    12.000000000000
         H           -0.215500243739     2.080968439063    -0.000059438768     1.007825032230
         H            0.724164756261    -2.025462560937    -0.000010438768     1.007825032230
         H            2.491668756261     1.626777439063    -0.000126438768     1.007825032230
         H           -3.470973243739    -0.155338560937     0.000316561232     1.007825032230
         H           -2.439028243739     0.999712439063    -0.894876438768     1.007825032230
         H           -2.438774243739     0.999532439063     0.895458561232     1.007825032230

  Basis Set: AUG-CC-PVTZ
    Blend: AUG-CC-PVTZ
  Basis Set: (AUG-CC-PVTZ AUX)
    Blend: AUG-CC-PVTZ-JKFIT
	 Reference Energy          =    -338.7969266671493642 [Eh]
	 Singles Energy            =      -0.0000000000000000 [Eh]
	 Same-Spin Energy          =      -0.3530923761006972 [Eh]
	 Opposite-Spin Energy      =      -1.0829839810536410 [Eh]
	 Correlation Energy        =      -1.4360763571543382 [Eh]
	 Total Energy              =    -340.2330030243036845 [Eh]

	 ================> DF-SCS-MP2 Energies <==================
	-----------------------------------------------------------
	 SCS Same-Spin Scale       =       0.3333333333333333 [-]
	 SCS Opposite-Spin Scale   =       1.2000000000000000 [-]
	 SCS Same-Spin Energy      =      -0.1176974587002324 [Eh]
	 SCS Opposite-Spin Energy  =      -1.2995807772643693 [Eh]
	 SCS Correlation Energy    =      -1.4172782359646017 [Eh]
	 SCS Total Energy          =    -340.2142049031139663 [Eh]
	-----------------------------------------------------------

  Dipole Moment: [D]
     X:    -3.0782      Y:     0.7125      Z:     0.0003     Total:     3.1596

*** Psi4 exiting successfully. Buy a developer a beer!
