                               Psi4 1.3.2 release

  ==> Input File <==

--------------------------------------------------------------------------
#psi4
#
memory 32 gb

molecule  {
0 1
  O       -1.4607440    -0.6783760    -0.0000110
  N        0.8364910    -1.0546300    -0.0000300
  N        2.1059701    -0.5788101    -0.0000880
  C       -0.2000590    -0.1785130    -0.0000310
  C        0.3504840     1.0933250    -0.0000620
  C        1.7415550     0.8590090    -0.0000990
  C       -2.4699820     0.3361590     0.0002330
  H       -0.1651650     2.0416990    -0.0000660
  H        0.7745000    -2.0647320    -0.0000170
  H        2.5420040     1.5875080    -0.0001330
  H       -3.4206380    -0.1946080     0.0003100
  H       -2.3886930     0.9604430    -0.8948830
  H       -2.3884390     0.9602630     0.8954520
units angstrom
no_reorient  #important for SAPT in psi4, default
symmetry c1  #important for SAPT in psi4, default
}

set PROPERTIES_ORIGIN ["COM"]
properties('MP2/aug-cc-pvtz', properties = ['dipole'])
--------------------------------------------------------------------------

    Molecular point group: c1
  Charge       = 0
  Multiplicity = 1
  Basis Set: AUG-CC-PVTZ
    Blend: AUG-CC-PVTZ
  Basis Set: (AUG-CC-PVTZ AUX)
    Blend: AUG-CC-PVTZ-JKFIT

    Orbital Energies [Eh]
    ---------------------

    Doubly Occupied:

       1A    -20.614967     2A    -15.636818     3A    -15.594518
       4A    -11.346584     5A    -11.303147     6A    -11.273086
       7A    -11.231451     8A     -1.441815     9A     -1.344341
      10A     -1.062211    11A     -1.061705    12A     -0.959605
      13A     -0.819903    14A     -0.801218    15A     -0.753136
      16A     -0.681755    17A     -0.652099    18A     -0.615481
      19A     -0.601194    20A     -0.595086    21A     -0.565366
      22A     -0.527949    23A     -0.506058    24A     -0.465593
      25A     -0.366790    26A     -0.313101

  @DF-RHF Final Energy:  -338.76833804107576

   => Energetics <=

    Nuclear Repulsion Energy =            292.9963814730004970
    One-Electron Energy =               -1041.2594826790004845
    Two-Electron Energy =                 409.4947631649242226
    Total Energy =                       -338.7683380410757650
  Basis Set: (AUG-CC-PVTZ AUX)
    Blend: AUG-CC-PVTZ-RI
    Molecular point group: c1

    Geometry (in Angstrom), charge = 0, multiplicity = 1:

       Center              X                  Y                   Z               Mass
    ------------   -----------------  -----------------  -----------------  -----------------
         O           -1.520072907591    -0.626486453074    -0.000004185800    15.994914619570
         N            0.777162092409    -1.002740453074    -0.000023185800    14.003074004430
         N            2.046641192409    -0.526920553074    -0.000081185800    14.003074004430
         C           -0.259387907591    -0.126623453074    -0.000024185800    12.000000000000
         C            0.291155092409     1.145214546926    -0.000055185800    12.000000000000
         C            1.682226092409     0.910898546926    -0.000092185800    12.000000000000
         C           -2.529310907591     0.388048546926     0.000239814200    12.000000000000
         H           -0.224493907591     2.093588546926    -0.000059185800     1.007825032230
         H            0.715171092409    -2.012842453074    -0.000010185800     1.007825032230
         H            2.482675092409     1.639397546926    -0.000126185800     1.007825032230
         H           -3.479966907591    -0.142718453074     0.000316814200     1.007825032230
         H           -2.448021907591     1.012332546926    -0.894876185800     1.007825032230
         H           -2.447767907591     1.012152546926     0.895458814200     1.007825032230

  Basis Set: AUG-CC-PVTZ
    Blend: AUG-CC-PVTZ
  Basis Set: (AUG-CC-PVTZ AUX)
    Blend: AUG-CC-PVTZ-JKFIT
	 Reference Energy          =    -338.7683380410757650 [Eh]
	 Singles Energy            =      -0.0000000000000000 [Eh]
	 Same-Spin Energy          =      -0.3574828290686999 [Eh]
	 Opposite-Spin Energy      =      -1.0926675398941943 [Eh]
	 Correlation Energy        =      -1.4501503689628943 [Eh]
	 Total Energy              =    -340.2184884100386739 [Eh]

	 ================> DF-SCS-MP2 Energies <==================
	-----------------------------------------------------------
	 SCS Same-Spin Scale       =       0.3333333333333333 [-]
	 SCS Opposite-Spin Scale   =       1.2000000000000000 [-]
	 SCS Same-Spin Energy      =      -0.1191609430229000 [Eh]
	 SCS Opposite-Spin Energy  =      -1.3112010478730332 [Eh]
	 SCS Correlation Energy    =      -1.4303619908959331 [Eh]
	 SCS Total Energy          =    -340.1987000319717254 [Eh]
	-----------------------------------------------------------

  Dipole Moment: [D]
     X:    -3.3635      Y:     0.7706      Z:     0.0004     Total:     3.4506

*** Psi4 exiting successfully. Buy a developer a beer!
