                               Psi4 1.3.2 release

  ==> Input File <==

--------------------------------------------------------------------------
#psi4
#
memory 32 gb

molecule  {
0 1
  O       -1.4607440    -0.6783760    -0.0000110
  N        0.8364910    -1.0546300    -0.0000300
  N        1.9108984    -0.4737220    -0.0000827
  C       -0.2000590    -0.1785130    -0.0000310
  C        0.3504840     1.0933250    -0.0000620
  C        1.7415550     0.8590090    -0.0000990
  C       -2.4699820     0.3361590     0.0002330
  H       -0.1651650     2.0416990    -0.0000660
  H        0.7745000    -2.0647320    -0.0000170
  H        2.5420040     1.5875080    -0.0001330
  H       -3.4206380    -0.1946080     0.0003100
  H       -2.3886930     0.9604430    -0.8948830
  H       -2.3884390     0.9602630     0.8954520
units angstrom
no_reorient  #important for SAPT in psi4, default
symmetry c1  #important for SAPT in psi4, default
}

set PROPERTIES_ORIGIN ["COM"]
properties('MP2/aug-cc-pvtz', properties = ['dipole'])
--------------------------------------------------------------------------

    Molecular point group: c1
  Charge       = 0
  Multiplicity = 1
  Basis Set: AUG-CC-PVTZ
    Blend: AUG-CC-PVTZ
  Basis Set: (AUG-CC-PVTZ AUX)
    Blend: AUG-CC-PVTZ-JKFIT

    Orbital Energies [Eh]
    ---------------------

    Doubly Occupied:

       1A    -20.603171     2A    -15.641736     3A    -15.570235
       4A    -11.325879     5A    -11.295494     6A    -11.246305
       7A    -11.219510     8A     -1.449439     9A     -1.405276
      10A     -1.087539    11A     -1.057903    12A     -0.953640
      13A     -0.830970    14A     -0.818543    15A     -0.751259
      16A     -0.679701    17A     -0.657424    18A     -0.634141
      19A     -0.623688    20A     -0.595558    21A     -0.586581
      22A     -0.522941    23A     -0.506097    24A     -0.432990
      25A     -0.368683    26A     -0.310629

  @DF-RHF Final Energy:  -338.78387001043154

   => Energetics <=

    Nuclear Repulsion Energy =            299.4111656171057234
    One-Electron Energy =               -1054.0394069148824201
    Two-Electron Energy =                 415.8443712873450977
    Total Energy =                       -338.7838700104315421
  Basis Set: (AUG-CC-PVTZ AUX)
    Blend: AUG-CC-PVTZ-RI
    Molecular point group: c1

    Geometry (in Angstrom), charge = 0, multiplicity = 1:

       Center              X                  Y                   Z               Mass
    ------------   -----------------  -----------------  -----------------  -----------------
         O           -1.492213052275    -0.641494982048    -0.000004942738    15.994914619570
         N            0.805021947725    -1.017748982048    -0.000023942738    14.003074004430
         N            1.879429347725    -0.436840982048    -0.000076642738    14.003074004430
         C           -0.231528052275    -0.141631982048    -0.000024942738    12.000000000000
         C            0.319014947725     1.130206017952    -0.000055942738    12.000000000000
         C            1.710085947725     0.895890017952    -0.000092942738    12.000000000000
         C           -2.501451052275     0.373040017952     0.000239057262    12.000000000000
         H           -0.196634052275     2.078580017952    -0.000059942738     1.007825032230
         H            0.743030947725    -2.027850982048    -0.000010942738     1.007825032230
         H            2.510534947725     1.624389017952    -0.000126942738     1.007825032230
         H           -3.452107052275    -0.157726982048     0.000316057262     1.007825032230
         H           -2.420162052275     0.997324017952    -0.894876942738     1.007825032230
         H           -2.419908052275     0.997144017952     0.895458057262     1.007825032230

  Basis Set: AUG-CC-PVTZ
    Blend: AUG-CC-PVTZ
  Basis Set: (AUG-CC-PVTZ AUX)
    Blend: AUG-CC-PVTZ-JKFIT
	 Reference Energy          =    -338.7838700104315421 [Eh]
	 Singles Energy            =      -0.0000000000000000 [Eh]
	 Same-Spin Energy          =      -0.3540558901870361 [Eh]
	 Opposite-Spin Energy      =      -1.0809300166302052 [Eh]
	 Correlation Energy        =      -1.4349859068172413 [Eh]
	 Total Energy              =    -340.2188559172487885 [Eh]

	 ================> DF-SCS-MP2 Energies <==================
	-----------------------------------------------------------
	 SCS Same-Spin Scale       =       0.3333333333333333 [-]
	 SCS Opposite-Spin Scale   =       1.2000000000000000 [-]
	 SCS Same-Spin Energy      =      -0.1180186300623454 [Eh]
	 SCS Opposite-Spin Energy  =      -1.2971160199562461 [Eh]
	 SCS Correlation Energy    =      -1.4151346500185915 [Eh]
	 SCS Total Energy          =    -340.1990046604501572 [Eh]
	-----------------------------------------------------------

  Dipole Moment: [D]
     X:    -2.8140      Y:     0.4535      Z:     0.0003     Total:     2.8503

*** Psi4 exiting successfully. Buy a developer a beer!
