                               Psi4 1.4a3.dev225

  ==> Input File <==

--------------------------------------------------------------------------
#psi4
#
memory 32 gb

molecule  {
0 1
  O       -1.4607440    -0.6783760    -0.0000110
  N        0.8364910    -1.0546300    -0.0000300
  N        2.0492790    -0.4487200    -0.0000870
  C       -0.2000590    -0.1785130    -0.0000310
  C        0.3504840     1.0933250    -0.0000620
  C        1.7218328     0.8623311    -0.0000985
  C       -2.4699820     0.3361590     0.0002330
  H       -0.1651650     2.0416990    -0.0000660
  H        0.7745000    -2.0647320    -0.0000170
  H        2.5420040     1.5875080    -0.0001330
  H       -3.4206380    -0.1946080     0.0003100
  H       -2.3886930     0.9604430    -0.8948830
  H       -2.3884390     0.9602630     0.8954520
units angstrom
no_reorient  #important for SAPT in psi4, default
symmetry c1  #important for SAPT in psi4, default
}

set PROPERTIES_ORIGIN ["COM"]
properties('MP2/aug-cc-pvtz', properties = ['dipole'])
--------------------------------------------------------------------------

    Molecular point group: c1
  Charge       = 0
  Multiplicity = 1
  Basis Set: AUG-CC-PVTZ
    Blend: AUG-CC-PVTZ
  Basis Set: (AUG-CC-PVTZ AUX)
    Blend: AUG-CC-PVTZ-JKFIT

    Orbital Energies [Eh]
    ---------------------

    Doubly Occupied:

       1A    -20.612753     2A    -15.631119     3A    -15.579724
       4A    -11.343294     5A    -11.300550     6A    -11.256712
       7A    -11.219504     8A     -1.440274     9A     -1.356269
      10A     -1.089643    11A     -1.051850    12A     -0.961537
      13A     -0.819114    14A     -0.798868    15A     -0.755300
      16A     -0.679934    17A     -0.650365    18A     -0.625409
      19A     -0.600114    20A     -0.599744    21A     -0.575796
      22A     -0.527060    23A     -0.506784    24A     -0.455806
      25A     -0.368945    26A     -0.324009

  @DF-RHF Final Energy:  -338.79806192763948

   => Energetics <=

    Nuclear Repulsion Energy =            295.9371305530429481
    One-Electron Energy =               -1047.2094307229610877
    Two-Electron Energy =                 412.4742382422786591
    Total Energy =                       -338.7980619276394805
  Basis Set: (AUG-CC-PVTZ AUX)
    Blend: AUG-CC-PVTZ-RI
    Molecular point group: c1

    Geometry (in Angstrom), charge = 0, multiplicity = 1:

       Center              X                  Y                   Z               Mass
    ------------   -----------------  -----------------  -----------------  -----------------
         O           -1.509562586790    -0.645472319733    -0.000004389813    15.994914619570
         N            0.787672413210    -1.021726319733    -0.000023389813    14.003074004430
         N            2.000460413210    -0.415816319733    -0.000080389813    14.003074004430
         C           -0.248877586790    -0.145609319733    -0.000024389813    12.000000000000
         C            0.301665413210     1.126228680267    -0.000055389813    12.000000000000
         C            1.673014213210     0.895234780267    -0.000091889813    12.000000000000
         C           -2.518800586790     0.369062680267     0.000239610187    12.000000000000
         H           -0.213983586790     2.074602680267    -0.000059389813     1.007825032230
         H            0.725681413210    -2.031828319733    -0.000010389813     1.007825032230
         H            2.493185413210     1.620411680267    -0.000126389813     1.007825032230
         H           -3.469456586790    -0.161704319733     0.000316610187     1.007825032230
         H           -2.437511586790     0.993346680267    -0.894876389813     1.007825032230
         H           -2.437257586790     0.993166680267     0.895458610187     1.007825032230

  Basis Set: AUG-CC-PVTZ
    Blend: AUG-CC-PVTZ
  Basis Set: (AUG-CC-PVTZ AUX)
    Blend: AUG-CC-PVTZ-JKFIT
	 Reference Energy          =    -338.7980619276394805 [Eh]
	 Singles Energy            =      -0.0000000000000000 [Eh]
	 Same-Spin Energy          =      -0.3536514897086359 [Eh]
	 Opposite-Spin Energy      =      -1.0838659754634778 [Eh]
	 Correlation Energy        =      -1.4375174651721137 [Eh]
	 Total Energy              =    -340.2355793928115872 [Eh]

	 ================> DF-SCS-MP2 Energies <==================
	-----------------------------------------------------------
	 SCS Same-Spin Scale       =       0.3333333333333333 [-]
	 SCS Opposite-Spin Scale   =       1.2000000000000000 [-]
	 SCS Same-Spin Energy      =      -0.1178838299028786 [Eh]
	 SCS Opposite-Spin Energy  =      -1.3006391705561733 [Eh]
	 SCS Correlation Energy    =      -1.4185230004590519 [Eh]
	 SCS Total Energy          =    -340.2165849280985412 [Eh]
	-----------------------------------------------------------

  Dipole Moment: [D]
     X:    -3.1667      Y:     0.6443      Z:     0.0003     Total:     3.2316

*** Psi4 exiting successfully. Buy a developer a beer!
