                               Psi4 1.4a3.dev225

  ==> Input File <==

--------------------------------------------------------------------------
#psi4
#
memory 32 gb

molecule  {
0 1
  O       -1.4607440    -0.6783760    -0.0000110
  N        0.8364910    -1.0546300    -0.0000300
  N        2.0492790    -0.4487200    -0.0000870
  C       -0.1535793    -0.1600837    -0.0000317
  C        0.3504840     1.0933250    -0.0000620
  C        1.7415550     0.8590090    -0.0000990
  C       -2.4699820     0.3361590     0.0002330
  H       -0.1651650     2.0416990    -0.0000660
  H        0.7745000    -2.0647320    -0.0000170
  H        2.5420040     1.5875080    -0.0001330
  H       -3.4206380    -0.1946080     0.0003100
  H       -2.3886930     0.9604430    -0.8948830
  H       -2.3884390     0.9602630     0.8954520
units angstrom
no_reorient  #important for SAPT in psi4, default
symmetry c1  #important for SAPT in psi4, default
}

set PROPERTIES_ORIGIN ["COM"]
properties('MP2/aug-cc-pvtz', properties = ['dipole'])
--------------------------------------------------------------------------

    Molecular point group: c1
  Charge       = 0
  Multiplicity = 1
  Basis Set: AUG-CC-PVTZ
    Blend: AUG-CC-PVTZ
  Basis Set: (AUG-CC-PVTZ AUX)
    Blend: AUG-CC-PVTZ-JKFIT

    Orbital Energies [Eh]
    ---------------------

    Doubly Occupied:

       1A    -20.604531     2A    -15.632556     3A    -15.583197
       4A    -11.338456     5A    -11.294716     6A    -11.259938
       7A    -11.219689     8A     -1.421559     9A     -1.360908
      10A     -1.095327    11A     -1.058740    12A     -0.951669
      13A     -0.821656    14A     -0.806461    15A     -0.746899
      16A     -0.671080    17A     -0.644724    18A     -0.624303
      19A     -0.604972    20A     -0.602649    21A     -0.581776
      22A     -0.520837    23A     -0.497204    24A     -0.456908
      25A     -0.370962    26A     -0.334388

  @DF-RHF Final Energy:  -338.79616387259091

   => Energetics <=

    Nuclear Repulsion Energy =            295.9163344505667510
    One-Electron Energy =               -1047.2127818702488184
    Two-Electron Energy =                 412.5002835470911577
    Total Energy =                       -338.7961638725909097
  Basis Set: (AUG-CC-PVTZ AUX)
    Blend: AUG-CC-PVTZ-RI
    Molecular point group: c1

    Geometry (in Angstrom), charge = 0, multiplicity = 1:

       Center              X                  Y                   Z               Mass
    ------------   -----------------  -----------------  -----------------  -----------------
         O           -1.517664972316    -0.647321275104    -0.000004242946    15.994914619570
         N            0.779570027684    -1.023575275104    -0.000023242946    14.003074004430
         N            1.992358027684    -0.417665275104    -0.000080242946    14.003074004430
         C           -0.210500272316    -0.129028975104    -0.000024942946    12.000000000000
         C            0.293563027684     1.124379724896    -0.000055242946    12.000000000000
         C            1.684634027684     0.890063724896    -0.000092242946    12.000000000000
         C           -2.526902972316     0.367213724896     0.000239757054    12.000000000000
         H           -0.222085972316     2.072753724896    -0.000059242946     1.007825032230
         H            0.717579027684    -2.033677275104    -0.000010242946     1.007825032230
         H            2.485083027684     1.618562724896    -0.000126242946     1.007825032230
         H           -3.477558972316    -0.163553275104     0.000316757054     1.007825032230
         H           -2.445613972316     0.991497724896    -0.894876242946     1.007825032230
         H           -2.445359972316     0.991317724896     0.895458757054     1.007825032230

  Basis Set: AUG-CC-PVTZ
    Blend: AUG-CC-PVTZ
  Basis Set: (AUG-CC-PVTZ AUX)
    Blend: AUG-CC-PVTZ-JKFIT
	 Reference Energy          =    -338.7961638725909097 [Eh]
	 Singles Energy            =      -0.0000000000000000 [Eh]
	 Same-Spin Energy          =      -0.3530054662950957 [Eh]
	 Opposite-Spin Energy      =      -1.0833845652645604 [Eh]
	 Correlation Energy        =      -1.4363900315596561 [Eh]
	 Total Energy              =    -340.2325539041505635 [Eh]

	 ================> DF-SCS-MP2 Energies <==================
	-----------------------------------------------------------
	 SCS Same-Spin Scale       =       0.3333333333333333 [-]
	 SCS Opposite-Spin Scale   =       1.2000000000000000 [-]
	 SCS Same-Spin Energy      =      -0.1176684887650319 [Eh]
	 SCS Opposite-Spin Energy  =      -1.3000614783174724 [Eh]
	 SCS Correlation Energy    =      -1.4177299670825043 [Eh]
	 SCS Total Energy          =    -340.2138938396734034 [Eh]
	-----------------------------------------------------------

  Dipole Moment: [D]
     X:    -2.8010      Y:     0.7212      Z:     0.0003     Total:     2.8924

*** Psi4 exiting successfully. Buy a developer a beer!
