                               Psi4 1.3.2 release

  ==> Input File <==

--------------------------------------------------------------------------
#psi4
#
memory 32 gb

molecule  {
0 1
  O       -1.4607440    -0.6783760    -0.0000110
  N        0.8364910    -1.0546300    -0.0000300
  N        2.0492790    -0.4487200    -0.0000870
  C       -0.1099990    -0.2138188    -0.0000323
  C        0.3504840     1.0933250    -0.0000620
  C        1.7415550     0.8590090    -0.0000990
  C       -2.4699820     0.3361590     0.0002330
  H       -0.1651650     2.0416990    -0.0000660
  H        0.7745000    -2.0647320    -0.0000170
  H        2.5420040     1.5875080    -0.0001330
  H       -3.4206380    -0.1946080     0.0003100
  H       -2.3886930     0.9604430    -0.8948830
  H       -2.3884390     0.9602630     0.8954520
units angstrom
no_reorient  #important for SAPT in psi4, default
symmetry c1  #important for SAPT in psi4, default
}

set PROPERTIES_ORIGIN ["COM"]
properties('MP2/aug-cc-pvtz', properties = ['dipole'])
--------------------------------------------------------------------------

    Molecular point group: c1
  Charge       = 0
  Multiplicity = 1
  Basis Set: AUG-CC-PVTZ
    Blend: AUG-CC-PVTZ
  Basis Set: (AUG-CC-PVTZ AUX)
    Blend: AUG-CC-PVTZ-JKFIT

    Orbital Energies [Eh]
    ---------------------

    Doubly Occupied:

       1A    -20.599445     2A    -15.639836     3A    -15.578133
       4A    -11.339227     5A    -11.293173     6A    -11.261597
       7A    -11.219306     8A     -1.422395     9A     -1.368146
      10A     -1.112115    11A     -1.051594    12A     -0.947784
      13A     -0.828713    14A     -0.815777    15A     -0.744044
      16A     -0.670377    17A     -0.640527    18A     -0.620261
      19A     -0.613932    20A     -0.610620    21A     -0.581099
      22A     -0.509263    23A     -0.492574    24A     -0.456626
      25A     -0.376026    26A     -0.332022

  @DF-RHF Final Energy:  -338.78897200090671

   => Energetics <=

    Nuclear Repulsion Energy =            296.2277195625160857
    One-Electron Energy =               -1047.7841608862383964
    Two-Electron Energy =                 412.7674693228156002
    Total Energy =                       -338.7889720009067105
  Basis Set: (AUG-CC-PVTZ AUX)
    Blend: AUG-CC-PVTZ-RI
    Molecular point group: c1

    Geometry (in Angstrom), charge = 0, multiplicity = 1:

       Center              X                  Y                   Z               Mass
    ------------   -----------------  -----------------  -----------------  -----------------
         O           -1.522998722435    -0.640744688987    -0.000004169513    15.994914619570
         N            0.774236277565    -1.016998688987    -0.000023169513    14.003074004430
         N            1.987024277565    -0.411088688987    -0.000080169513    14.003074004430
         C           -0.172253722435    -0.176187488987    -0.000025469513    12.000000000000
         C            0.288229277565     1.130956311013    -0.000055169513    12.000000000000
         C            1.679300277565     0.896640311013    -0.000092169513    12.000000000000
         C           -2.532236722435     0.373790311013     0.000239830487    12.000000000000
         H           -0.227419722435     2.079330311013    -0.000059169513     1.007825032230
         H            0.712245277565    -2.027100688987    -0.000010169513     1.007825032230
         H            2.479749277565     1.625139311013    -0.000126169513     1.007825032230
         H           -3.482892722435    -0.156976688987     0.000316830487     1.007825032230
         H           -2.450947722435     0.998074311013    -0.894876169513     1.007825032230
         H           -2.450693722435     0.997894311013     0.895458830487     1.007825032230

  Basis Set: AUG-CC-PVTZ
    Blend: AUG-CC-PVTZ
  Basis Set: (AUG-CC-PVTZ AUX)
    Blend: AUG-CC-PVTZ-JKFIT
	 Reference Energy          =    -338.7889720009067105 [Eh]
	 Singles Energy            =      -0.0000000000000000 [Eh]
	 Same-Spin Energy          =      -0.3525333408578655 [Eh]
	 Opposite-Spin Energy      =      -1.0819323336423694 [Eh]
	 Correlation Energy        =      -1.4344656745002349 [Eh]
	 Total Energy              =    -340.2234376754069558 [Eh]

	 ================> DF-SCS-MP2 Energies <==================
	-----------------------------------------------------------
	 SCS Same-Spin Scale       =       0.3333333333333333 [-]
	 SCS Opposite-Spin Scale   =       1.2000000000000000 [-]
	 SCS Same-Spin Energy      =      -0.1175111136192885 [Eh]
	 SCS Opposite-Spin Energy  =      -1.2983188003708432 [Eh]
	 SCS Correlation Energy    =      -1.4158299139901318 [Eh]
	 SCS Total Energy          =    -340.2048019148968478 [Eh]
	-----------------------------------------------------------

  Dipole Moment: [D]
     X:    -2.6457      Y:     0.5680      Z:     0.0003     Total:     2.7060

*** Psi4 exiting successfully. Buy a developer a beer!
