                               Psi4 1.3.2 release

  ==> Input File <==

--------------------------------------------------------------------------
#psi4
#
memory 32 gb

molecule  {
0 1
  O       -1.4607440    -0.6783760    -0.0000110
  N        0.8364910    -1.0546300    -0.0000300
  N        2.0492790    -0.4487200    -0.0000870
  C       -0.2000590    -0.1785130    -0.0000310
  C        0.3504840     1.0933250    -0.0000620
  C        1.7415550     0.8590090    -0.0000990
  C       -2.4699820     0.3361590     0.0002330
  H       -0.1651650     2.0416990    -0.0000660
  H        0.7745000    -2.0647320    -0.0000170
  H        2.6159604     1.6548167    -0.0001361
  H       -3.4206380    -0.1946080     0.0003100
  H       -2.3886930     0.9604430    -0.8948830
  H       -2.3884390     0.9602630     0.8954520
units angstrom
no_reorient  #important for SAPT in psi4, default
symmetry c1  #important for SAPT in psi4, default
}

set PROPERTIES_ORIGIN ["COM"]
properties('MP2/aug-cc-pvtz', properties = ['dipole'])
--------------------------------------------------------------------------

    Molecular point group: c1
  Charge       = 0
  Multiplicity = 1
  Basis Set: AUG-CC-PVTZ
    Blend: AUG-CC-PVTZ
  Basis Set: (AUG-CC-PVTZ AUX)
    Blend: AUG-CC-PVTZ-JKFIT

    Orbital Energies [Eh]
    ---------------------

    Doubly Occupied:

       1A    -20.613068     2A    -15.631041     3A    -15.581513
       4A    -11.343688     5A    -11.300490     6A    -11.268308
       7A    -11.221244     8A     -1.440457     9A     -1.357036
      10A     -1.090220    11A     -1.049098    12A     -0.961706
      13A     -0.812148    14A     -0.795626    15A     -0.753710
      16A     -0.679973    17A     -0.649660    18A     -0.625266
      19A     -0.600471    20A     -0.595255    21A     -0.567717
      22A     -0.525544    23A     -0.507151    24A     -0.453437
      25A     -0.367129    26A     -0.326321

  @DF-RHF Final Energy:  -338.79207890042778

   => Energetics <=

    Nuclear Repulsion Energy =            295.2346416007397920
    One-Electron Energy =               -1045.8188865768154301
    Two-Electron Energy =                 411.7921660756478559
    Total Energy =                       -338.7920789004277822
  Basis Set: (AUG-CC-PVTZ AUX)
    Blend: AUG-CC-PVTZ-RI
    Molecular point group: c1

    Geometry (in Angstrom), charge = 0, multiplicity = 1:

       Center              X                  Y                   Z               Mass
    ------------   -----------------  -----------------  -----------------  -----------------
         O           -1.512736557401    -0.645757590101    -0.000004296754    15.994914619570
         N            0.784498442599    -1.022011590101    -0.000023296754    14.003074004430
         N            1.997286442599    -0.416101590101    -0.000080296754    14.003074004430
         C           -0.252051557401    -0.145894590101    -0.000024296754    12.000000000000
         C            0.298491442599     1.125943409899    -0.000055296754    12.000000000000
         C            1.689562442599     0.891627409899    -0.000092296754    12.000000000000
         C           -2.521974557401     0.368777409899     0.000239703246    12.000000000000
         H           -0.217157557401     2.074317409899    -0.000059296754     1.007825032230
         H            0.722507442599    -2.032113590101    -0.000010296754     1.007825032230
         H            2.563967842599     1.687435109899    -0.000129396754     1.007825032230
         H           -3.472630557401    -0.161989590101     0.000316703246     1.007825032230
         H           -2.440685557401     0.993061409899    -0.894876296754     1.007825032230
         H           -2.440431557401     0.992881409899     0.895458703246     1.007825032230

  Basis Set: AUG-CC-PVTZ
    Blend: AUG-CC-PVTZ
  Basis Set: (AUG-CC-PVTZ AUX)
    Blend: AUG-CC-PVTZ-JKFIT
	 Reference Energy          =    -338.7920789004277822 [Eh]
	 Singles Energy            =      -0.0000000000000000 [Eh]
	 Same-Spin Energy          =      -0.3534213019023662 [Eh]
	 Opposite-Spin Energy      =      -1.0840966131466596 [Eh]
	 Correlation Energy        =      -1.4375179150490258 [Eh]
	 Total Energy              =    -340.2295968154767820 [Eh]

	 ================> DF-SCS-MP2 Energies <==================
	-----------------------------------------------------------
	 SCS Same-Spin Scale       =       0.3333333333333333 [-]
	 SCS Opposite-Spin Scale   =       1.2000000000000000 [-]
	 SCS Same-Spin Energy      =      -0.1178071006341221 [Eh]
	 SCS Opposite-Spin Energy  =      -1.3009159357759914 [Eh]
	 SCS Correlation Energy    =      -1.4187230364101135 [Eh]
	 SCS Total Energy          =    -340.2108019368378677 [Eh]
	-----------------------------------------------------------

  Dipole Moment: [D]
     X:    -3.1465      Y:     0.6310      Z:     0.0003     Total:     3.2091

*** Psi4 exiting successfully. Buy a developer a beer!
