                               Psi4 1.4a3.dev225

  ==> Input File <==

--------------------------------------------------------------------------
#psi4
#
memory 32 gb

molecule  {
0 1
  O       -1.4607440    -0.6783760    -0.0000110
  N        0.8364910    -1.0546300    -0.0000300
  N        2.0492790    -0.4487200    -0.0000870
  C       -0.2000590    -0.1785130    -0.0000310
  C        0.3504840     1.0933250    -0.0000620
  C        1.7415550     0.8590090    -0.0000990
  C       -2.4699820     0.3361590     0.0002330
  H       -0.1890488     2.0856258    -0.0000662
  H        0.7745000    -2.0647320    -0.0000170
  H        2.5420040     1.5875080    -0.0001330
  H       -3.4206380    -0.1946080     0.0003100
  H       -2.3886930     0.9604430    -0.8948830
  H       -2.3884390     0.9602630     0.8954520
units angstrom
no_reorient  #important for SAPT in psi4, default
symmetry c1  #important for SAPT in psi4, default
}

set PROPERTIES_ORIGIN ["COM"]
properties('MP2/aug-cc-pvtz', properties = ['dipole'])
--------------------------------------------------------------------------

    Molecular point group: c1
  Charge       = 0
  Multiplicity = 1
  Basis Set: AUG-CC-PVTZ
    Blend: AUG-CC-PVTZ
  Basis Set: (AUG-CC-PVTZ AUX)
    Blend: AUG-CC-PVTZ-JKFIT

    Orbital Energies [Eh]
    ---------------------

    Doubly Occupied:

       1A    -20.612591     2A    -15.630736     3A    -15.581164
       4A    -11.343387     5A    -11.300006     6A    -11.257846
       7A    -11.225763     8A     -1.440002     9A     -1.356657
      10A     -1.091495    11A     -1.047538    12A     -0.961179
      13A     -0.817876    14A     -0.796361    15A     -0.754583
      16A     -0.679526    17A     -0.647645    18A     -0.624461
      19A     -0.600074    20A     -0.593144    21A     -0.578729
      22A     -0.526811    23A     -0.506703    24A     -0.454024
      25A     -0.366809    26A     -0.325955

  @DF-RHF Final Energy:  -338.79702093024667

   => Energetics <=

    Nuclear Repulsion Energy =            295.4707278029364375
    One-Electron Energy =               -1046.2933630637733131
    Two-Electron Energy =                 412.0256143305902583
    Total Energy =                       -338.7970209302466742
  Basis Set: (AUG-CC-PVTZ AUX)
    Blend: AUG-CC-PVTZ-RI
    Molecular point group: c1

    Geometry (in Angstrom), charge = 0, multiplicity = 1:

       Center              X                  Y                   Z               Mass
    ------------   -----------------  -----------------  -----------------  -----------------
         O           -1.511730868455    -0.645517250053    -0.000004326562    15.994914619570
         N            0.785504131545    -1.021771250053    -0.000023326562    14.003074004430
         N            1.998292131545    -0.415861250053    -0.000080326562    14.003074004430
         C           -0.251045868455    -0.145654250053    -0.000024326562    12.000000000000
         C            0.299497131545     1.126183749947    -0.000055326562    12.000000000000
         C            1.690568131545     0.891867749947    -0.000092326562    12.000000000000
         C           -2.520968868455     0.369017749947     0.000239673438    12.000000000000
         H           -0.240035668455     2.118484549947    -0.000059526562     1.007825032230
         H            0.723513131545    -2.031873250053    -0.000010326562     1.007825032230
         H            2.491017131545     1.620366749947    -0.000126326562     1.007825032230
         H           -3.471624868455    -0.161749250053     0.000316673438     1.007825032230
         H           -2.439679868455     0.993301749947    -0.894876326562     1.007825032230
         H           -2.439425868455     0.993121749947     0.895458673438     1.007825032230

  Basis Set: AUG-CC-PVTZ
    Blend: AUG-CC-PVTZ
  Basis Set: (AUG-CC-PVTZ AUX)
    Blend: AUG-CC-PVTZ-JKFIT
	 Reference Energy          =    -338.7970209302466742 [Eh]
	 Singles Energy            =      -0.0000000000000000 [Eh]
	 Same-Spin Energy          =      -0.3533465565619370 [Eh]
	 Opposite-Spin Energy      =      -1.0836555014562008 [Eh]
	 Correlation Energy        =      -1.4370020580181377 [Eh]
	 Total Energy              =    -340.2340229882648259 [Eh]

	 ================> DF-SCS-MP2 Energies <==================
	-----------------------------------------------------------
	 SCS Same-Spin Scale       =       0.3333333333333333 [-]
	 SCS Opposite-Spin Scale   =       1.2000000000000000 [-]
	 SCS Same-Spin Energy      =      -0.1177821855206456 [Eh]
	 SCS Opposite-Spin Energy  =      -1.3003866017474410 [Eh]
	 SCS Correlation Energy    =      -1.4181687872680866 [Eh]
	 SCS Total Energy          =    -340.2151897175147610 [Eh]
	-----------------------------------------------------------

  Dipole Moment: [D]
     X:    -3.1221      Y:     0.6471      Z:     0.0003     Total:     3.1884

*** Psi4 exiting successfully. Buy a developer a beer!
