                               Psi4 1.3.2 release

  ==> Input File <==

--------------------------------------------------------------------------
#psi4
#
memory 32 gb

molecule  {
0 1
  O       -1.4607440    -0.6783760    -0.0000110
  N        0.8364910    -1.0546300    -0.0000300
  N        2.0492790    -0.4487200    -0.0000870
  C       -0.2089748    -0.1565871    -0.0000268
  C        0.3504840     1.0933250    -0.0000620
  C        1.7415550     0.8590090    -0.0000990
  C       -2.4699820     0.3361590     0.0002330
  H       -0.1651650     2.0416990    -0.0000660
  H        0.7745000    -2.0647320    -0.0000170
  H        2.5420040     1.5875080    -0.0001330
  H       -3.4206380    -0.1946080     0.0003100
  H       -2.3886930     0.9604430    -0.8948830
  H       -2.3884390     0.9602630     0.8954520
units angstrom
no_reorient  #important for SAPT in psi4, default
symmetry c1  #important for SAPT in psi4, default
}

set PROPERTIES_ORIGIN ["COM"]
properties('MP2/aug-cc-pvtz', properties = ['dipole'])
--------------------------------------------------------------------------

    Molecular point group: c1
  Charge       = 0
  Multiplicity = 1
  Basis Set: AUG-CC-PVTZ
    Blend: AUG-CC-PVTZ
  Basis Set: (AUG-CC-PVTZ AUX)
    Blend: AUG-CC-PVTZ-JKFIT

    Orbital Energies [Eh]
    ---------------------

    Doubly Occupied:

       1A    -20.613227     2A    -15.627922     3A    -15.582925
       4A    -11.342300     5A    -11.299987     6A    -11.257145
       7A    -11.220472     8A     -1.439977     9A     -1.352942
      10A     -1.086472    11A     -1.052266    12A     -0.961423
      13A     -0.817974    14A     -0.796878    15A     -0.754209
      16A     -0.679500    17A     -0.650700    18A     -0.627811
      19A     -0.597496    20A     -0.594777    21A     -0.579936
      22A     -0.530619    23A     -0.506909    24A     -0.454281
      25A     -0.366349    26A     -0.326928

  @DF-RHF Final Energy:  -338.79788463072191

   => Energetics <=

    Nuclear Repulsion Energy =            295.6486539322385738
    One-Electron Energy =               -1046.6502298955081187
    Two-Electron Energy =                 412.2036913325475780
    Total Energy =                       -338.7978846307219101
  Basis Set: (AUG-CC-PVTZ AUX)
    Blend: AUG-CC-PVTZ-RI
    Molecular point group: c1

    Geometry (in Angstrom), charge = 0, multiplicity = 1:

       Center              X                  Y                   Z               Mass
    ------------   -----------------  -----------------  -----------------  -----------------
         O           -1.510885171473    -0.647749220544    -0.000004842652    15.994914619570
         N            0.786349828527    -1.024003220544    -0.000023842652    14.003074004430
         N            1.999137828527    -0.418093220544    -0.000080842652    14.003074004430
         C           -0.259115971473    -0.125960320544    -0.000020642652    12.000000000000
         C            0.300342828527     1.123951779456    -0.000055842652    12.000000000000
         C            1.691413828527     0.889635779456    -0.000092842652    12.000000000000
         C           -2.520123171473     0.366785779456     0.000239157348    12.000000000000
         H           -0.215306171473     2.072325779456    -0.000059842652     1.007825032230
         H            0.724358828527    -2.034105220544    -0.000010842652     1.007825032230
         H            2.491862828527     1.618134779456    -0.000126842652     1.007825032230
         H           -3.470779171473    -0.163981220544     0.000316157348     1.007825032230
         H           -2.438834171473     0.991069779456    -0.894876842652     1.007825032230
         H           -2.438580171473     0.990889779456     0.895458157348     1.007825032230

  Basis Set: AUG-CC-PVTZ
    Blend: AUG-CC-PVTZ
  Basis Set: (AUG-CC-PVTZ AUX)
    Blend: AUG-CC-PVTZ-JKFIT
	 Reference Energy          =    -338.7978846307219101 [Eh]
	 Singles Energy            =      -0.0000000000000000 [Eh]
	 Same-Spin Energy          =      -0.3534274391628992 [Eh]
	 Opposite-Spin Energy      =      -1.0839574626125152 [Eh]
	 Correlation Energy        =      -1.4373849017754146 [Eh]
	 Total Energy              =    -340.2352695324973411 [Eh]

	 ================> DF-SCS-MP2 Energies <==================
	-----------------------------------------------------------
	 SCS Same-Spin Scale       =       0.3333333333333333 [-]
	 SCS Opposite-Spin Scale   =       1.2000000000000000 [-]
	 SCS Same-Spin Energy      =      -0.1178091463876331 [Eh]
	 SCS Opposite-Spin Energy  =      -1.3007489551350182 [Eh]
	 SCS Correlation Energy    =      -1.4185581015226512 [Eh]
	 SCS Total Energy          =    -340.2164427322445590 [Eh]
	-----------------------------------------------------------

  Dipole Moment: [D]
     X:    -3.1401      Y:     0.7083      Z:     0.0003     Total:     3.2190

*** Psi4 exiting successfully. Buy a developer a beer!
