                               Psi4 1.4a3.dev225

  ==> Input File <==

--------------------------------------------------------------------------
#psi4
#
memory 32 gb

molecule  {
0 1
  O       -1.4607440    -0.6783760    -0.0000110
  N        0.8364910    -1.0546300    -0.0000300
  N        2.0492790    -0.4487200    -0.0000870
  C       -0.2186509    -0.1858847    -0.0000307
  C        0.3504840     1.0933250    -0.0000620
  C        1.7415550     0.8590090    -0.0000990
  C       -2.4699820     0.3361590     0.0002330
  H       -0.1651650     2.0416990    -0.0000660
  H        0.7745000    -2.0647320    -0.0000170
  H        2.5420040     1.5875080    -0.0001330
  H       -3.4206380    -0.1946080     0.0003100
  H       -2.3886930     0.9604430    -0.8948830
  H       -2.3884390     0.9602630     0.8954520
units angstrom
no_reorient  #important for SAPT in psi4, default
symmetry c1  #important for SAPT in psi4, default
}

set PROPERTIES_ORIGIN ["COM"]
properties('MP2/aug-cc-pvtz', properties = ['dipole'])
--------------------------------------------------------------------------

    Molecular point group: c1
  Charge       = 0
  Multiplicity = 1
  Basis Set: AUG-CC-PVTZ
    Blend: AUG-CC-PVTZ
  Basis Set: (AUG-CC-PVTZ AUX)
    Blend: AUG-CC-PVTZ-JKFIT

    Orbital Energies [Eh]
    ---------------------

    Doubly Occupied:

       1A    -20.615919     2A    -15.629412     3A    -15.579764
       4A    -11.344960     5A    -11.302507     6A    -11.256383
       7A    -11.220305     8A     -1.449082     9A     -1.353697
      10A     -1.089727    11A     -1.044581    12A     -0.965515
      13A     -0.816996    14A     -0.797516    15A     -0.758203
      16A     -0.683505    17A     -0.653394    18A     -0.625986
      19A     -0.597845    20A     -0.595424    21A     -0.579750
      22A     -0.529440    23A     -0.510577    24A     -0.452631
      25A     -0.364830    26A     -0.322066

  @DF-RHF Final Energy:  -338.79879640210186

   => Energetics <=

    Nuclear Repulsion Energy =            295.6448501842892256
    One-Electron Energy =               -1046.6072613856545104
    Two-Electron Energy =                 412.1636147992634278
    Total Energy =                       -338.7987964021018570
  Basis Set: (AUG-CC-PVTZ AUX)
    Blend: AUG-CC-PVTZ-RI
    Molecular point group: c1

    Geometry (in Angstrom), charge = 0, multiplicity = 1:

       Center              X                  Y                   Z               Mass
    ------------   -----------------  -----------------  -----------------  -----------------
         O           -1.509700923097    -0.644163516053    -0.000004365335    15.994914619570
         N            0.787534076903    -1.020417516053    -0.000023365335    14.003074004430
         N            2.000322076903    -0.414507516053    -0.000080365335    14.003074004430
         C           -0.267607823097    -0.151672216053    -0.000024065335    12.000000000000
         C            0.301527076903     1.127537483947    -0.000055365335    12.000000000000
         C            1.692598076903     0.893221483947    -0.000092365335    12.000000000000
         C           -2.518938923097     0.370371483947     0.000239634665    12.000000000000
         H           -0.214121923097     2.075911483947    -0.000059365335     1.007825032230
         H            0.725543076903    -2.030519516053    -0.000010365335     1.007825032230
         H            2.493047076903     1.621720483947    -0.000126365335     1.007825032230
         H           -3.469594923097    -0.160395516053     0.000316634665     1.007825032230
         H           -2.437649923097     0.994655483947    -0.894876365335     1.007825032230
         H           -2.437395923097     0.994475483947     0.895458634665     1.007825032230

  Basis Set: AUG-CC-PVTZ
    Blend: AUG-CC-PVTZ
  Basis Set: (AUG-CC-PVTZ AUX)
    Blend: AUG-CC-PVTZ-JKFIT
	 Reference Energy          =    -338.7987964021018570 [Eh]
	 Singles Energy            =      -0.0000000000000000 [Eh]
	 Same-Spin Energy          =      -0.3533935688406270 [Eh]
	 Opposite-Spin Energy      =      -1.0834001521751397 [Eh]
	 Correlation Energy        =      -1.4367937210157669 [Eh]
	 Total Energy              =    -340.2355901231176176 [Eh]

	 ================> DF-SCS-MP2 Energies <==================
	-----------------------------------------------------------
	 SCS Same-Spin Scale       =       0.3333333333333333 [-]
	 SCS Opposite-Spin Scale   =       1.2000000000000000 [-]
	 SCS Same-Spin Energy      =      -0.1177978562802090 [Eh]
	 SCS Opposite-Spin Energy  =      -1.3000801826101676 [Eh]
	 SCS Correlation Energy    =      -1.4178780388903764 [Eh]
	 SCS Total Energy          =    -340.2166744409922217 [Eh]
	-----------------------------------------------------------

  Dipole Moment: [D]
     X:    -3.2654      Y:     0.6164      Z:     0.0004     Total:     3.3230

*** Psi4 exiting successfully. Buy a developer a beer!
