                               Psi4 1.3.2 release

  ==> Input File <==

--------------------------------------------------------------------------
#psi4
#
memory 32 gb

molecule  {
0 1
  O       -1.4607440    -0.6783760    -0.0000110
  N        0.8364910    -1.0546300    -0.0000300
  N        2.0492790    -0.4487200    -0.0000870
  C       -0.2000590    -0.1785130    -0.0000310
  C        0.3702176     1.1897904    -0.0000640
  C        1.7415550     0.8590090    -0.0000990
  C       -2.4699820     0.3361590     0.0002330
  H       -0.1651650     2.0416990    -0.0000660
  H        0.7745000    -2.0647320    -0.0000170
  H        2.5420040     1.5875080    -0.0001330
  H       -3.4206380    -0.1946080     0.0003100
  H       -2.3886930     0.9604430    -0.8948830
  H       -2.3884390     0.9602630     0.8954520
units angstrom
no_reorient  #important for SAPT in psi4, default
symmetry c1  #important for SAPT in psi4, default
}

set PROPERTIES_ORIGIN ["COM"]
properties('MP2/aug-cc-pvtz', properties = ['dipole'])
--------------------------------------------------------------------------

    Molecular point group: c1
  Charge       = 0
  Multiplicity = 1
  Basis Set: AUG-CC-PVTZ
    Blend: AUG-CC-PVTZ
  Basis Set: (AUG-CC-PVTZ AUX)
    Blend: AUG-CC-PVTZ-JKFIT

    Orbital Energies [Eh]
    ---------------------

    Doubly Occupied:

       1A    -20.616052     2A    -15.636861     3A    -15.576445
       4A    -11.356308     5A    -11.301956     6A    -11.259755
       7A    -11.225023     8A     -1.441962     9A     -1.354509
      10A     -1.092787    11A     -1.036785    12A     -0.962240
      13A     -0.821778    14A     -0.803452    15A     -0.755056
      16A     -0.679878    17A     -0.658300    18A     -0.630111
      19A     -0.607280    20A     -0.598185    21A     -0.573409
      22A     -0.519692    23A     -0.508404    24A     -0.454126
      25A     -0.368854    26A     -0.315967

  @DF-RHF Final Energy:  -338.78468988626810

   => Energetics <=

    Nuclear Repulsion Energy =            293.9706633214518092
    One-Electron Energy =               -1043.2003524620574808
    Two-Electron Energy =                 410.4449992543375174
    Total Energy =                       -338.7846898862680973
  Basis Set: (AUG-CC-PVTZ AUX)
    Blend: AUG-CC-PVTZ-RI
    Molecular point group: c1

    Geometry (in Angstrom), charge = 0, multiplicity = 1:

       Center              X                  Y                   Z               Mass
    ------------   -----------------  -----------------  -----------------  -----------------
         O           -1.514391543404    -0.656872036747    -0.000004083840    15.994914619570
         N            0.782843456596    -1.033126036747    -0.000023083840    14.003074004430
         N            1.995631456596    -0.427216036747    -0.000080083840    14.003074004430
         C           -0.253706543404    -0.157009036747    -0.000024083840    12.000000000000
         C            0.316570056596     1.211294363253    -0.000057083840    12.000000000000
         C            1.687907456596     0.880512963253    -0.000092083840    12.000000000000
         C           -2.523629543404     0.357662963253     0.000239916160    12.000000000000
         H           -0.218812543404     2.063202963253    -0.000059083840     1.007825032230
         H            0.720852456596    -2.043228036747    -0.000010083840     1.007825032230
         H            2.488356456596     1.609011963253    -0.000126083840     1.007825032230
         H           -3.474285543404    -0.173104036747     0.000316916160     1.007825032230
         H           -2.442340543404     0.981946963253    -0.894876083840     1.007825032230
         H           -2.442086543404     0.981766963253     0.895458916160     1.007825032230

  Basis Set: AUG-CC-PVTZ
    Blend: AUG-CC-PVTZ
  Basis Set: (AUG-CC-PVTZ AUX)
    Blend: AUG-CC-PVTZ-JKFIT
	 Reference Energy          =    -338.7846898862680973 [Eh]
	 Singles Energy            =      -0.0000000000000000 [Eh]
	 Same-Spin Energy          =      -0.3536986478837882 [Eh]
	 Opposite-Spin Energy      =      -1.0846859404292140 [Eh]
	 Correlation Energy        =      -1.4383845883130022 [Eh]
	 Total Energy              =    -340.2230744745810966 [Eh]

	 ================> DF-SCS-MP2 Energies <==================
	-----------------------------------------------------------
	 SCS Same-Spin Scale       =       0.3333333333333333 [-]
	 SCS Opposite-Spin Scale   =       1.2000000000000000 [-]
	 SCS Same-Spin Energy      =      -0.1178995492945961 [Eh]
	 SCS Opposite-Spin Energy  =      -1.3016231285150568 [Eh]
	 SCS Correlation Energy    =      -1.4195226778096528 [Eh]
	 SCS Total Energy          =    -340.2042125640777499 [Eh]
	-----------------------------------------------------------

  Dipole Moment: [D]
     X:    -3.2131      Y:     0.5093      Z:     0.0003     Total:     3.2532

*** Psi4 exiting successfully. Buy a developer a beer!
