                               Psi4 1.3.2 release

  ==> Input File <==

--------------------------------------------------------------------------
#psi4
#
memory 32 gb

molecule  {
-1 1
  O       -1.7411470    -0.6399890    -0.1225600
  O       -0.5847590     1.3260370     0.0697860
  C        0.6502745    -0.7382695    -0.0337273
  C        1.8800080     0.0729070    -0.1221640
  C       -0.7030090     0.0671670     0.0101180
  H        0.6586950    -1.1281730     1.1946430
  H        0.5657790    -1.6256900    -0.4841100
  H        1.8946620     0.3977130    -1.1675530
  H        1.8661090     0.9768400     0.4889820
  H        2.8042200    -0.4891930     0.0741590
units angstrom
no_reorient  #important for SAPT in psi4, default
symmetry c1  #important for SAPT in psi4, default
}

set PROPERTIES_ORIGIN ["COM"]
properties('MP2/aug-cc-pvtz', properties = ['dipole'])
--------------------------------------------------------------------------

    Molecular point group: c1
  Charge       = -1
  Multiplicity = 1
  Basis Set: AUG-CC-PVTZ
    Blend: AUG-CC-PVTZ
  Basis Set: (AUG-CC-PVTZ AUX)
    Blend: AUG-CC-PVTZ-JKFIT

    Orbital Energies [Eh]
    ---------------------

    Doubly Occupied:

       1A    -20.293364     2A    -20.290571     3A    -11.140369
       4A    -11.065948     5A    -11.063736     6A     -1.160335
       7A     -1.063554     8A     -0.878811     9A     -0.699633
      10A     -0.523240    11A     -0.453956    12A     -0.441663
      13A     -0.416370    14A     -0.376546    15A     -0.363641
      16A     -0.350987    17A     -0.268319    18A     -0.209863
      19A     -0.193421    20A     -0.191195

  @DF-RHF Final Energy:  -266.34108790224360

   => Energetics <=

    Nuclear Repulsion Energy =            167.9890205240771763
    One-Electron Energy =                -705.7691743048421813
    Two-Electron Energy =                 271.4390658785213759
    Total Energy =                       -266.3410879022436006
  Basis Set: (AUG-CC-PVTZ AUX)
    Blend: AUG-CC-PVTZ-RI
    Molecular point group: c1

    Geometry (in Angstrom), charge = -1, multiplicity = 1:

       Center              X                  Y                   Z               Mass
    ------------   -----------------  -----------------  -----------------  -----------------
         O           -1.639475435215    -0.666167782162    -0.088512630100    15.994914619570
         O           -0.483087435215     1.299858217838     0.103833369900    15.994914619570
         C            0.751946064785    -0.764448282162     0.000320069900    12.000000000000
         C            1.981679564785     0.046728217838    -0.088116630100    12.000000000000
         C           -0.601337435215     0.040988217838     0.044165369900    12.000000000000
         H            0.760366564785    -1.154351782162     1.228690369900     1.007825032230
         H            0.667450564785    -1.651868782162    -0.450062630100     1.007825032230
         H            1.996333564785     0.371534217838    -1.133505630100     1.007825032230
         H            1.967780564785     0.950661217838     0.523029369900     1.007825032230
         H            2.905891564785    -0.515371782162     0.108206369900     1.007825032230

  Basis Set: AUG-CC-PVTZ
    Blend: AUG-CC-PVTZ
  Basis Set: (AUG-CC-PVTZ AUX)
    Blend: AUG-CC-PVTZ-JKFIT
	 Reference Energy          =    -266.3410879022436006 [Eh]
	 Singles Energy            =      -0.0000000000000000 [Eh]
	 Same-Spin Energy          =      -0.2666227581893652 [Eh]
	 Opposite-Spin Energy      =      -0.8318958598763256 [Eh]
	 Correlation Energy        =      -1.0985186180656910 [Eh]
	 Total Energy              =    -267.4396065203092689 [Eh]

	 ================> DF-SCS-MP2 Energies <==================
	-----------------------------------------------------------
	 SCS Same-Spin Scale       =       0.3333333333333333 [-]
	 SCS Opposite-Spin Scale   =       1.2000000000000000 [-]
	 SCS Same-Spin Energy      =      -0.0888742527297884 [Eh]
	 SCS Opposite-Spin Energy  =      -0.9982750318515907 [Eh]
	 SCS Correlation Energy    =      -1.0871492845813790 [Eh]
	 SCS Total Energy          =    -267.4282371868249584 [Eh]
	-----------------------------------------------------------

  Dipole Moment: [D]
     X:     4.6806      Y:    -1.4316      Z:    -0.1873     Total:     4.8982

*** Psi4 exiting successfully. Buy a developer a beer!
