                               Psi4 1.3.2 release

  ==> Input File <==

--------------------------------------------------------------------------
#psi4
#
memory 32 gb

molecule  {
-1 1
  O       -1.7411470    -0.6399890    -0.1225600
  O       -0.5847590     1.3260370     0.0697860
  C        0.6381203    -0.7408282     0.0654984
  C        1.8800080     0.0729070    -0.1221640
  C       -0.7030090     0.0671670     0.0101180
  H        0.6586950    -1.1281730     1.1946430
  H        0.5657790    -1.6256900    -0.4841100
  H        1.8946620     0.3977130    -1.1675530
  H        1.8661090     0.9768400     0.4889820
  H        2.8042200    -0.4891930     0.0741590
units angstrom
no_reorient  #important for SAPT in psi4, default
symmetry c1  #important for SAPT in psi4, default
}

set PROPERTIES_ORIGIN ["COM"]
properties('MP2/aug-cc-pvtz', properties = ['dipole'])
--------------------------------------------------------------------------

    Molecular point group: c1
  Charge       = -1
  Multiplicity = 1
  Basis Set: AUG-CC-PVTZ
    Blend: AUG-CC-PVTZ
  Basis Set: (AUG-CC-PVTZ AUX)
    Blend: AUG-CC-PVTZ-JKFIT

    Orbital Energies [Eh]
    ---------------------

    Doubly Occupied:

       1A    -20.292320     2A    -20.290017     3A    -11.137137
       4A    -11.064167     5A    -11.058127     6A     -1.159539
       7A     -1.062660     8A     -0.872351     9A     -0.698215
      10A     -0.516556    11A     -0.453319    12A     -0.443302
      13A     -0.408767    14A     -0.373625    15A     -0.355816
      16A     -0.349156    17A     -0.291720    18A     -0.208800
      19A     -0.192686    20A     -0.191460

  @DF-RHF Final Energy:  -266.36570515750378

   => Energetics <=

    Nuclear Repulsion Energy =            167.9437705111685091
    One-Electron Energy =                -705.7794715692745058
    Two-Electron Energy =                 271.4699959006022141
    Total Energy =                       -266.3657051575037826
  Basis Set: (AUG-CC-PVTZ AUX)
    Blend: AUG-CC-PVTZ-RI
    Molecular point group: c1

    Geometry (in Angstrom), charge = -1, multiplicity = 1:

       Center              X                  Y                   Z               Mass
    ------------   -----------------  -----------------  -----------------  -----------------
         O           -1.637478276675    -0.665747340704    -0.104817237085    15.994914619570
         O           -0.481090276675     1.300278659296     0.087528762915    15.994914619570
         C            0.741789023325    -0.766586540704     0.083241162915    12.000000000000
         C            1.983676723325     0.047148659296    -0.104421237085    12.000000000000
         C           -0.599340276675     0.041408659296     0.027860762915    12.000000000000
         H            0.762363723325    -1.153931340704     1.212385762915     1.007825032230
         H            0.669447723325    -1.651448340704    -0.466367237085     1.007825032230
         H            1.998330723325     0.371954659296    -1.149810237085     1.007825032230
         H            1.969777723325     0.951081659296     0.506724762915     1.007825032230
         H            2.907888723325    -0.514951340704     0.091901762915     1.007825032230

  Basis Set: AUG-CC-PVTZ
    Blend: AUG-CC-PVTZ
  Basis Set: (AUG-CC-PVTZ AUX)
    Blend: AUG-CC-PVTZ-JKFIT
	 Reference Energy          =    -266.3657051575037826 [Eh]
	 Singles Energy            =      -0.0000000000000000 [Eh]
	 Same-Spin Energy          =      -0.2661157929124477 [Eh]
	 Opposite-Spin Energy      =      -0.8306104035453760 [Eh]
	 Correlation Energy        =      -1.0967261964578237 [Eh]
	 Total Energy              =    -267.4624313539616196 [Eh]

	 ================> DF-SCS-MP2 Energies <==================
	-----------------------------------------------------------
	 SCS Same-Spin Scale       =       0.3333333333333333 [-]
	 SCS Opposite-Spin Scale   =       1.2000000000000000 [-]
	 SCS Same-Spin Energy      =      -0.0887052643041492 [Eh]
	 SCS Opposite-Spin Energy  =      -0.9967324842544512 [Eh]
	 SCS Correlation Energy    =      -1.0854377485586004 [Eh]
	 SCS Total Energy          =    -267.4511429060623868 [Eh]
	-----------------------------------------------------------

  Dipole Moment: [D]
     X:     4.6567      Y:    -1.4853      Z:     0.0188     Total:     4.8879

*** Psi4 exiting successfully. Buy a developer a beer!
