                               Psi4 1.3.2 release

  ==> Input File <==

--------------------------------------------------------------------------
#psi4
#
memory 32 gb

molecule  {
-1 1
  O       -1.7411470    -0.6399890    -0.1225600
  O       -0.5847590     1.3260370     0.0697860
  C        0.6320431    -0.7421076     0.1151112
  C        1.8800080     0.0729070    -0.1221640
  C       -0.7030090     0.0671670     0.0101180
  H        0.6586950    -1.1281730     1.1946430
  H        0.5657790    -1.6256900    -0.4841100
  H        1.8946620     0.3977130    -1.1675530
  H        1.8661090     0.9768400     0.4889820
  H        2.8042200    -0.4891930     0.0741590
units angstrom
no_reorient  #important for SAPT in psi4, default
symmetry c1  #important for SAPT in psi4, default
}

set PROPERTIES_ORIGIN ["COM"]
properties('MP2/aug-cc-pvtz', properties = ['dipole'])
--------------------------------------------------------------------------

    Molecular point group: c1
  Charge       = -1
  Multiplicity = 1
  Basis Set: AUG-CC-PVTZ
    Blend: AUG-CC-PVTZ
  Basis Set: (AUG-CC-PVTZ AUX)
    Blend: AUG-CC-PVTZ-JKFIT

    Orbital Energies [Eh]
    ---------------------

    Doubly Occupied:

       1A    -20.292064     2A    -20.289914     3A    -11.136196
       4A    -11.063846     5A    -11.056215     6A     -1.159324
       7A     -1.062425     8A     -0.869280     9A     -0.698347
      10A     -0.514527    11A     -0.453388    12A     -0.443729
      13A     -0.405911    14A     -0.372721    15A     -0.356819
      16A     -0.342887    17A     -0.301430    18A     -0.208375
      19A     -0.192486    20A     -0.191445

  @DF-RHF Final Energy:  -266.37255914542015

   => Energetics <=

    Nuclear Repulsion Energy =            167.8772581996663575
    One-Electron Energy =                -705.6769724558261032
    Two-Electron Energy =                 271.4271551107395908
    Total Energy =                       -266.3725591454201549
  Basis Set: (AUG-CC-PVTZ AUX)
    Blend: AUG-CC-PVTZ-RI
    Molecular point group: c1

    Geometry (in Angstrom), charge = -1, multiplicity = 1:

       Center              X                  Y                   Z               Mass
    ------------   -----------------  -----------------  -----------------  -----------------
         O           -1.636479680972    -0.665537111760    -0.112969532361    15.994914619570
         O           -0.480091680972     1.300488888240     0.079376467639    15.994914619570
         C            0.736710419028    -0.767655711760     0.124701667639    12.000000000000
         C            1.984675319028     0.047358888240    -0.112573532361    12.000000000000
         C           -0.598341680972     0.041618888240     0.019708467639    12.000000000000
         H            0.763362319028    -1.153721111760     1.204233467639     1.007825032230
         H            0.670446319028    -1.651238111760    -0.474519532361     1.007825032230
         H            1.999329319028     0.372164888240    -1.157962532361     1.007825032230
         H            1.970776319028     0.951291888240     0.498572467639     1.007825032230
         H            2.908887319028    -0.514741111760     0.083749467639     1.007825032230

  Basis Set: AUG-CC-PVTZ
    Blend: AUG-CC-PVTZ
  Basis Set: (AUG-CC-PVTZ AUX)
    Blend: AUG-CC-PVTZ-JKFIT
	 Reference Energy          =    -266.3725591454201549 [Eh]
	 Singles Energy            =      -0.0000000000000000 [Eh]
	 Same-Spin Energy          =      -0.2659483362109047 [Eh]
	 Opposite-Spin Energy      =      -0.8302752015419956 [Eh]
	 Correlation Energy        =      -1.0962235377529004 [Eh]
	 Total Energy              =    -267.4687826831730604 [Eh]

	 ================> DF-SCS-MP2 Energies <==================
	-----------------------------------------------------------
	 SCS Same-Spin Scale       =       0.3333333333333333 [-]
	 SCS Opposite-Spin Scale   =       1.2000000000000000 [-]
	 SCS Same-Spin Energy      =      -0.0886494454036349 [Eh]
	 SCS Opposite-Spin Energy  =      -0.9963302418503948 [Eh]
	 SCS Correlation Energy    =      -1.0849796872540296 [Eh]
	 SCS Total Energy          =    -267.4575388326741745 [Eh]
	-----------------------------------------------------------

  Dipole Moment: [D]
     X:     4.6384      Y:    -1.4992      Z:     0.1169     Total:     4.8761

*** Psi4 exiting successfully. Buy a developer a beer!
