                               Psi4 1.3.2 release

  ==> Input File <==

--------------------------------------------------------------------------
#psi4
#
memory 32 gb

molecule  {
-1 1
  O       -1.7411470    -0.6399890    -0.1225600
  O       -0.5847590     1.3260370     0.0697860
  C        0.6624288    -0.7357107    -0.1329529
  C        1.8800080     0.0729070    -0.1221640
  C       -0.7030090     0.0671670     0.0101180
  H        0.6586950    -1.1281730     1.1946430
  H        0.5657790    -1.6256900    -0.4841100
  H        1.8946620     0.3977130    -1.1675530
  H        1.8661090     0.9768400     0.4889820
  H        2.8042200    -0.4891930     0.0741590
units angstrom
no_reorient  #important for SAPT in psi4, default
symmetry c1  #important for SAPT in psi4, default
}

set PROPERTIES_ORIGIN ["COM"]
properties('MP2/aug-cc-pvtz', properties = ['dipole'])
--------------------------------------------------------------------------

    Molecular point group: c1
  Charge       = -1
  Multiplicity = 1
  Basis Set: AUG-CC-PVTZ
    Blend: AUG-CC-PVTZ
  Basis Set: (AUG-CC-PVTZ AUX)
    Blend: AUG-CC-PVTZ-JKFIT

    Orbital Energies [Eh]
    ---------------------

    Doubly Occupied:

       1A    -20.295065     2A    -20.291580     3A    -11.145185
       4A    -11.071776     5A    -11.068897     6A     -1.161575
       7A     -1.064965     8A     -0.885325     9A     -0.702840
      10A     -0.530496    11A     -0.456250    12A     -0.441627
      13A     -0.423601    14A     -0.380975    15A     -0.369664
      16A     -0.350585    17A     -0.244387    18A     -0.211014
      19A     -0.194599    20A     -0.190186

  @DF-RHF Final Energy:  -266.30559205726053

   => Energetics <=

    Nuclear Repulsion Energy =            167.9032483421903237
    One-Electron Energy =                -705.4564990147517847
    Two-Electron Energy =                 271.2476586153009634
    Total Energy =                       -266.3055920572605260
  Basis Set: (AUG-CC-PVTZ AUX)
    Blend: AUG-CC-PVTZ-RI
    Molecular point group: c1

    Geometry (in Angstrom), charge = -1, multiplicity = 1:

       Center              X                  Y                   Z               Mass
    ------------   -----------------  -----------------  -----------------  -----------------
         O           -1.641472610188    -0.666588240050    -0.072208039547    15.994914619570
         O           -0.485084610188     1.299437759950     0.120137960453    15.994914619570
         C            0.762103189812    -0.762309940050    -0.082600939547    12.000000000000
         C            1.979682389812     0.046307759950    -0.071812039547    12.000000000000
         C           -0.603334610188     0.040567759950     0.060469960453    12.000000000000
         H            0.758369389812    -1.154772240050     1.244994960453     1.007825032230
         H            0.665453389812    -1.652289240050    -0.433758039547     1.007825032230
         H            1.994336389812     0.371113759950    -1.117201039547     1.007825032230
         H            1.965783389812     0.950240759950     0.539333960453     1.007825032230
         H            2.903894389812    -0.515792240050     0.124510960453     1.007825032230

  Basis Set: AUG-CC-PVTZ
    Blend: AUG-CC-PVTZ
  Basis Set: (AUG-CC-PVTZ AUX)
    Blend: AUG-CC-PVTZ-JKFIT
	 Reference Energy          =    -266.3055920572605260 [Eh]
	 Singles Energy            =      -0.0000000000000000 [Eh]
	 Same-Spin Energy          =      -0.2673489059441121 [Eh]
	 Opposite-Spin Energy      =      -0.8339686472599397 [Eh]
	 Correlation Energy        =      -1.1013175532040518 [Eh]
	 Total Energy              =    -267.4069096104645951 [Eh]

	 ================> DF-SCS-MP2 Energies <==================
	-----------------------------------------------------------
	 SCS Same-Spin Scale       =       0.3333333333333333 [-]
	 SCS Opposite-Spin Scale   =       1.2000000000000000 [-]
	 SCS Same-Spin Energy      =      -0.0891163019813707 [Eh]
	 SCS Opposite-Spin Energy  =      -1.0007623767119276 [Eh]
	 SCS Correlation Energy    =      -1.0898786786932984 [Eh]
	 SCS Total Energy          =    -267.3954707359538361 [Eh]
	-----------------------------------------------------------

  Dipole Moment: [D]
     X:     4.6878      Y:    -1.3506      Z:    -0.3956     Total:     4.8945

*** Psi4 exiting successfully. Buy a developer a beer!
