                               Psi4 1.3.2 release

  ==> Input File <==

--------------------------------------------------------------------------
#psi4
#
memory 32 gb

molecule  {
-1 1
  O       -1.7411470    -0.6399890    -0.1225600
  O       -0.5847590     1.3260370     0.0697860
  C        0.6441974    -0.7395488     0.0158855
  C        1.8800080     0.0729070    -0.1221640
  C       -0.7030090     0.0671670     0.0101180
  H        0.6586950    -1.1281730     1.1946430
  H        0.5657790    -1.6256900    -0.4841100
  H        1.8946620     0.3977130    -1.1675530
  H        1.8661090     0.9768400     0.4889820
  H        2.8042200    -0.4891930     0.0741590
units angstrom
no_reorient  #important for SAPT in psi4, default
symmetry c1  #important for SAPT in psi4, default
}

set PROPERTIES_ORIGIN ["COM"]
properties('MP2/aug-cc-pvtz', properties = ['dipole'])
--------------------------------------------------------------------------

    Molecular point group: c1
  Charge       = -1
  Multiplicity = 1
  Basis Set: AUG-CC-PVTZ
    Blend: AUG-CC-PVTZ
  Basis Set: (AUG-CC-PVTZ AUX)
    Blend: AUG-CC-PVTZ-JKFIT

    Orbital Energies [Eh]
    ---------------------

    Doubly Occupied:

       1A    -20.292755     2A    -20.290237     3A    -11.138537
       4A    -11.064866     5A    -11.060643     6A     -1.159877
       7A     -1.063038     8A     -0.875546     9A     -0.698664
      10A     -0.519631    11A     -0.453464    12A     -0.442525
      13A     -0.412307    14A     -0.374867    15A     -0.359053
      16A     -0.351152    17A     -0.280396    18A     -0.209300
      19A     -0.192991    20A     -0.191395

  @DF-RHF Final Energy:  -266.35502778812963

   => Energetics <=

    Nuclear Repulsion Energy =            167.9817820763455529
    One-Electron Energy =                -705.8111380486521966
    Two-Electron Energy =                 271.4743281841770113
    Total Energy =                       -266.3550277881296324
  Basis Set: (AUG-CC-PVTZ AUX)
    Blend: AUG-CC-PVTZ-RI
    Molecular point group: c1

    Geometry (in Angstrom), charge = -1, multiplicity = 1:

       Center              X                  Y                   Z               Mass
    ------------   -----------------  -----------------  -----------------  -----------------
         O           -1.638476855945    -0.665957569649    -0.096664925376    15.994914619570
         O           -0.482088855945     1.300068430351     0.095681074624    15.994914619570
         C            0.746867544055    -0.765517369649     0.041780574624    12.000000000000
         C            1.982678144055     0.046938430351    -0.096268925376    12.000000000000
         C           -0.600338855945     0.041198430351     0.036013074624    12.000000000000
         H            0.761365144055    -1.154141569649     1.220538074624     1.007825032230
         H            0.668449144055    -1.651658569649    -0.458214925376     1.007825032230
         H            1.997332144055     0.371744430351    -1.141657925376     1.007825032230
         H            1.968779144055     0.950871430351     0.514877074624     1.007825032230
         H            2.906890144055    -0.515161569649     0.100054074624     1.007825032230

  Basis Set: AUG-CC-PVTZ
    Blend: AUG-CC-PVTZ
  Basis Set: (AUG-CC-PVTZ AUX)
    Blend: AUG-CC-PVTZ-JKFIT
	 Reference Energy          =    -266.3550277881296324 [Eh]
	 Singles Energy            =      -0.0000000000000000 [Eh]
	 Same-Spin Energy          =      -0.2663414688945186 [Eh]
	 Opposite-Spin Energy      =      -0.8311533377875926 [Eh]
	 Correlation Energy        =      -1.0974948066821111 [Eh]
	 Total Energy              =    -267.4525225948117395 [Eh]

	 ================> DF-SCS-MP2 Energies <==================
	-----------------------------------------------------------
	 SCS Same-Spin Scale       =       0.3333333333333333 [-]
	 SCS Opposite-Spin Scale   =       1.2000000000000000 [-]
	 SCS Same-Spin Energy      =      -0.0887804896315062 [Eh]
	 SCS Opposite-Spin Energy  =      -0.9973840053451111 [Eh]
	 SCS Correlation Energy    =      -1.0861644949766172 [Eh]
	 SCS Total Energy          =    -267.4411922831062611 [Eh]
	-----------------------------------------------------------

  Dipole Moment: [D]
     X:     4.6708      Y:    -1.4625      Z:    -0.0830     Total:     4.8951

*** Psi4 exiting successfully. Buy a developer a beer!
