                               Psi4 1.3.2 release

  ==> Input File <==

--------------------------------------------------------------------------
#psi4
#
memory 32 gb

molecule  {
-1 1
  O       -1.7411470    -0.6399890    -0.1225600
  O       -0.5847590     1.3260370     0.0697860
  C        0.6563517    -0.7369901    -0.0833401
  C        1.8800080     0.0729070    -0.1221640
  C       -0.7030090     0.0671670     0.0101180
  H        0.6586950    -1.1281730     1.1946430
  H        0.5657790    -1.6256900    -0.4841100
  H        1.8946620     0.3977130    -1.1675530
  H        1.8661090     0.9768400     0.4889820
  H        2.8042200    -0.4891930     0.0741590
units angstrom
no_reorient  #important for SAPT in psi4, default
symmetry c1  #important for SAPT in psi4, default
}

set PROPERTIES_ORIGIN ["COM"]
properties('MP2/aug-cc-pvtz', properties = ['dipole'])
--------------------------------------------------------------------------

    Molecular point group: c1
  Charge       = -1
  Multiplicity = 1
  Basis Set: AUG-CC-PVTZ
    Blend: AUG-CC-PVTZ
  Basis Set: (AUG-CC-PVTZ AUX)
    Blend: AUG-CC-PVTZ-JKFIT

    Orbital Energies [Eh]
    ---------------------

    Doubly Occupied:

       1A    -20.294137     2A    -20.291020     3A    -11.142599
       4A    -11.067793     5A    -11.066977     6A     -1.160904
       7A     -1.064199     8A     -0.882092     9A     -0.701054
      10A     -0.526969    11A     -0.454858    12A     -0.441149
      13A     -0.420452    14A     -0.378655    15A     -0.367190
      16A     -0.350736    17A     -0.256133    18A     -0.210457
      19A     -0.193965    20A     -0.190817

  @DF-RHF Final Energy:  -266.32443011112059

   => Energetics <=

    Nuclear Repulsion Energy =            167.9634418494205761
    One-Electron Energy =                -705.6514359782376005
    Two-Electron Energy =                 271.3635640176964898
    Total Energy =                       -266.3244301111205914
  Basis Set: (AUG-CC-PVTZ AUX)
    Blend: AUG-CC-PVTZ-RI
    Molecular point group: c1

    Geometry (in Angstrom), charge = -1, multiplicity = 1:

       Center              X                  Y                   Z               Mass
    ------------   -----------------  -----------------  -----------------  -----------------
         O           -1.640474030918    -0.666378011106    -0.080360334823    15.994914619570
         O           -0.484086030918     1.299647988894     0.111985665177    15.994914619570
         C            0.757024669082    -0.763379111106    -0.041140434823    12.000000000000
         C            1.980680969082     0.046517988894    -0.079964334823    12.000000000000
         C           -0.602336030918     0.040777988894     0.052317665177    12.000000000000
         H            0.759367969082    -1.154562011106     1.236842665177     1.007825032230
         H            0.666451969082    -1.652079011106    -0.441910334823     1.007825032230
         H            1.995334969082     0.371323988894    -1.125353334823     1.007825032230
         H            1.966781969082     0.950450988894     0.531181665177     1.007825032230
         H            2.904892969082    -0.515582011106     0.116358665177     1.007825032230

  Basis Set: AUG-CC-PVTZ
    Blend: AUG-CC-PVTZ
  Basis Set: (AUG-CC-PVTZ AUX)
    Blend: AUG-CC-PVTZ-JKFIT
	 Reference Energy          =    -266.3244301111205914 [Eh]
	 Singles Energy            =      -0.0000000000000000 [Eh]
	 Same-Spin Energy          =      -0.2669584244011810 [Eh]
	 Opposite-Spin Energy      =      -0.8328346523541672 [Eh]
	 Correlation Energy        =      -1.0997930767553483 [Eh]
	 Total Energy              =    -267.4242231878759526 [Eh]

	 ================> DF-SCS-MP2 Energies <==================
	-----------------------------------------------------------
	 SCS Same-Spin Scale       =       0.3333333333333333 [-]
	 SCS Opposite-Spin Scale   =       1.2000000000000000 [-]
	 SCS Same-Spin Energy      =      -0.0889861414670603 [Eh]
	 SCS Opposite-Spin Energy  =      -0.9994015828250006 [Eh]
	 SCS Correlation Energy    =      -1.0883877242920610 [Eh]
	 SCS Total Energy          =    -267.4128178354126248 [Eh]
	-----------------------------------------------------------

  Dipole Moment: [D]
     X:     4.6863      Y:    -1.3938      Z:    -0.2924     Total:     4.8979

*** Psi4 exiting successfully. Buy a developer a beer!
