                               Psi4 1.4a3.dev225

  ==> Input File <==

--------------------------------------------------------------------------
#psi4
#
memory 32 gb

molecule  {
0 1
 Br       -3.5713820     0.2354630    -0.0000030
 Br        3.5713810    -0.2354650    -0.0000030
  O       -1.7063930    -1.8556370     0.0000010
  O        1.7063960     1.8556390     0.0000010
  C       -0.6782960     0.3467420     0.0000100
  C        0.6782960    -0.3467390     0.0000100
  C       -1.7955640    -0.6603920     0.0000020
  C        1.8134204     0.6513868     0.0000019
  H       -0.8053490     0.9949230    -0.8734510
  H       -0.8053540     0.9949110     0.8734800
  H        0.8053470    -0.9949190    -0.8734520
  H        0.8053530    -0.9949090     0.8734780
units angstrom
no_reorient  #important for SAPT in psi4, default
symmetry c1  #important for SAPT in psi4, default
}

set PROPERTIES_ORIGIN ["COM"]
properties('MP2/aug-cc-pvtz', properties = ['dipole'])
--------------------------------------------------------------------------

    Molecular point group: c1
  Charge       = 0
  Multiplicity = 1
  Basis Set: AUG-CC-PVTZ
    Blend: AUG-CC-PVTZ
  Basis Set: (AUG-CC-PVTZ AUX)
    Blend: AUG-CC-PVTZ-JKFIT

    Orbital Energies [Eh]
    ---------------------

    Doubly Occupied:

       1A   -490.046610     2A   -490.041584     3A    -65.186504
       4A    -65.181463     5A    -58.541720     6A    -58.540443
       7A    -58.540301     8A    -58.536670     9A    -58.535410
      10A    -58.535275    11A    -20.617306    12A    -20.614747
      13A    -11.428468    14A    -11.428391    15A    -11.296530
      16A    -11.295899    17A     -9.859213    18A     -9.854110
      19A     -7.470422    20A     -7.465231    21A     -7.464319
      22A     -7.463729    23A     -7.459246    24A     -7.458688
      25A     -3.214001    26A     -3.211006    27A     -3.210204
      28A     -3.208750    29A     -3.205839    30A     -3.205075
      31A     -3.202436    32A     -3.202416    33A     -3.197438
      34A     -3.197420    35A     -1.458327    36A     -1.449431
      37A     -1.137059    38A     -1.070625    39A     -1.040310
      40A     -0.964734    41A     -0.787474    42A     -0.784394
      43A     -0.709708    44A     -0.700321    45A     -0.682260
      46A     -0.648200    47A     -0.637930    48A     -0.620036
      49A     -0.573263    50A     -0.567716    51A     -0.542891
      52A     -0.460983    53A     -0.444578    54A     -0.441286
      55A     -0.437247    56A     -0.437168    57A     -0.432683

  @DF-RHF Final Energy: -5448.56637659274656

   => Energetics <=

    Nuclear Repulsion Energy =            771.2155284788408380
    One-Electron Energy =               -9115.6728398015711718
    Two-Electron Energy =                2895.8909347299841102
    Total Energy =                      -5448.5663765927465647
  Basis Set: (AUG-CC-PVTZ AUX)
    Blend: AUG-CC-PVTZ-RI
    Molecular point group: c1

    Geometry (in Angstrom), charge = 0, multiplicity = 1:

       Center              X                  Y                   Z               Mass
    ------------   -----------------  -----------------  -----------------  -----------------
         BR          -3.572267821499     0.235910147861    -0.000002589470    78.918337600000
         BR           3.570495178501    -0.235017852139    -0.000002589470    78.918337600000
         O           -1.707278821499    -1.855189852139     0.000001410530    15.994914619570
         O            1.705510178501     1.856086147861     0.000001410530    15.994914619570
         C           -0.679181821499     0.347189147861     0.000010410530    12.000000000000
         C            0.677410178501    -0.346291852139     0.000010410530    12.000000000000
         C           -1.796449821499    -0.659944852139     0.000002410530    12.000000000000
         C            1.812534578501     0.651833947861     0.000002310530    12.000000000000
         H           -0.806234821499     0.995370147861    -0.873450589470     1.007825032230
         H           -0.806239821499     0.995358147861     0.873480410530     1.007825032230
         H            0.804461178501    -0.994471852139    -0.873451589470     1.007825032230
         H            0.804467178501    -0.994461852139     0.873478410530     1.007825032230

  Basis Set: AUG-CC-PVTZ
    Blend: AUG-CC-PVTZ
  Basis Set: (AUG-CC-PVTZ AUX)
    Blend: AUG-CC-PVTZ-JKFIT
	 Reference Energy          =   -5448.5663765927465647 [Eh]
	 Singles Energy            =      -0.0000000000000000 [Eh]
	 Same-Spin Energy          =      -0.4825773231977781 [Eh]
	 Opposite-Spin Energy      =      -1.3317054585510291 [Eh]
	 Correlation Energy        =      -1.8142827817488072 [Eh]
	 Total Energy              =   -5450.3806593744957354 [Eh]

	 ================> DF-SCS-MP2 Energies <==================
	-----------------------------------------------------------
	 SCS Same-Spin Scale       =       0.3333333333333333 [-]
	 SCS Opposite-Spin Scale   =       1.2000000000000000 [-]
	 SCS Same-Spin Energy      =      -0.1608591077325927 [Eh]
	 SCS Opposite-Spin Energy  =      -1.5980465502612349 [Eh]
	 SCS Correlation Energy    =      -1.7589056579938276 [Eh]
	 SCS Total Energy          =   -5450.3252822507402016 [Eh]
	-----------------------------------------------------------

  Dipole Moment: [D]
     X:     0.2139      Y:    -0.0950      Z:     0.0000     Total:     0.2341

*** Psi4 exiting successfully. Buy a developer a beer!
