                               Psi4 1.4a3.dev225

  ==> Input File <==

--------------------------------------------------------------------------
#psi4
#
memory 32 gb

molecule  {
0 1
 Br       -3.5713820     0.2354630    -0.0000030
 Br        3.5713810    -0.2354650    -0.0000030
  O       -1.7063930    -1.8556370     0.0000010
  O        1.7063960     1.8556390     0.0000010
  C       -0.6782960     0.3467420     0.0000100
  C        0.6782960    -0.3467390     0.0000100
  C       -1.8104193    -0.6737830     0.0000019
  C        1.7955640     0.6603950     0.0000020
  H       -0.8053490     0.9949230    -0.8734510
  H       -0.8053540     0.9949110     0.8734800
  H        0.8053470    -0.9949190    -0.8734520
  H        0.8053530    -0.9949090     0.8734780
units angstrom
no_reorient  #important for SAPT in psi4, default
symmetry c1  #important for SAPT in psi4, default
}

set PROPERTIES_ORIGIN ["COM"]
properties('MP2/aug-cc-pvtz', properties = ['dipole'])
--------------------------------------------------------------------------

    Molecular point group: c1
  Charge       = 0
  Multiplicity = 1
  Basis Set: AUG-CC-PVTZ
    Blend: AUG-CC-PVTZ
  Basis Set: (AUG-CC-PVTZ AUX)
    Blend: AUG-CC-PVTZ-JKFIT

    Orbital Energies [Eh]
    ---------------------

    Doubly Occupied:

       1A   -490.042443     2A   -490.041780     3A    -65.182368
       4A    -65.181661     5A    -58.537565     6A    -58.536867
       7A    -58.536315     8A    -58.536178     9A    -58.535608
      10A    -58.535473    11A    -20.618698    12A    -20.617579
      13A    -11.428644    14A    -11.427364    15A    -11.297109
      16A    -11.296354    17A     -9.855071    18A     -9.854309
      19A     -7.466189    20A     -7.465428    21A     -7.460222
      22A     -7.459658    23A     -7.459446    24A     -7.458889
      25A     -3.209702    26A     -3.208946    27A     -3.206790
      28A     -3.206036    29A     -3.206019    30A     -3.205272
      31A     -3.198425    32A     -3.198406    33A     -3.197641
      34A     -3.197623    35A     -1.467749    36A     -1.458461
      37A     -1.136178    38A     -1.067729    39A     -1.038520
      40A     -0.962519    41A     -0.788194    42A     -0.785864
      43A     -0.713271    44A     -0.700826    45A     -0.683694
      46A     -0.651907    47A     -0.640626    48A     -0.623418
      49A     -0.574935    50A     -0.573151    51A     -0.545260
      52A     -0.459343    53A     -0.442331    54A     -0.439263
      55A     -0.437173    56A     -0.435869    57A     -0.431286

  @DF-RHF Final Energy: -5448.56880499295949

   => Energetics <=

    Nuclear Repulsion Energy =            771.1110347938603127
    One-Electron Energy =               -9115.5123864788929495
    Two-Electron Energy =                2895.8325466920723557
    Total Energy =                      -5448.5688049929594854
  Basis Set: (AUG-CC-PVTZ AUX)
    Blend: AUG-CC-PVTZ-RI
    Molecular point group: c1

    Geometry (in Angstrom), charge = 0, multiplicity = 1:

       Center              X                  Y                   Z               Mass
    ------------   -----------------  -----------------  -----------------  -----------------
         BR          -3.570644800068     0.236127604560    -0.000002589470    78.918337600000
         BR           3.572118199932    -0.234800395440    -0.000002589470    78.918337600000
         O           -1.705655800068    -1.854972395440     0.000001410530    15.994914619570
         O            1.707133199932     1.856303604560     0.000001410530    15.994914619570
         C           -0.677558800068     0.347406604560     0.000010410530    12.000000000000
         C            0.679033199932    -0.346074395440     0.000010410530    12.000000000000
         C           -1.809682100068    -0.673118395440     0.000002310530    12.000000000000
         C            1.796301199932     0.661059604560     0.000002410530    12.000000000000
         H           -0.804611800068     0.995587604560    -0.873450589470     1.007825032230
         H           -0.804616800068     0.995575604560     0.873480410530     1.007825032230
         H            0.806084199932    -0.994254395440    -0.873451589470     1.007825032230
         H            0.806090199932    -0.994244395440     0.873478410530     1.007825032230

  Basis Set: AUG-CC-PVTZ
    Blend: AUG-CC-PVTZ
  Basis Set: (AUG-CC-PVTZ AUX)
    Blend: AUG-CC-PVTZ-JKFIT
	 Reference Energy          =   -5448.5688049929594854 [Eh]
	 Singles Energy            =      -0.0000000000000000 [Eh]
	 Same-Spin Energy          =      -0.4819237920620468 [Eh]
	 Opposite-Spin Energy      =      -1.3302468308312525 [Eh]
	 Correlation Energy        =      -1.8121706228932992 [Eh]
	 Total Energy              =   -5450.3809756158525488 [Eh]

	 ================> DF-SCS-MP2 Energies <==================
	-----------------------------------------------------------
	 SCS Same-Spin Scale       =       0.3333333333333333 [-]
	 SCS Opposite-Spin Scale   =       1.2000000000000000 [-]
	 SCS Same-Spin Energy      =      -0.1606412640206823 [Eh]
	 SCS Opposite-Spin Energy  =      -1.5962961969975029 [Eh]
	 SCS Correlation Energy    =      -1.7569374610181852 [Eh]
	 SCS Total Energy          =   -5450.3257424539779095 [Eh]
	-----------------------------------------------------------

  Dipole Moment: [D]
     X:    -0.0833      Y:    -0.0511      Z:     0.0000     Total:     0.0977

*** Psi4 exiting successfully. Buy a developer a beer!
