                               Psi4 1.4a3.dev225

  ==> Input File <==

--------------------------------------------------------------------------
#psi4
#
memory 32 gb

molecule  {
0 1
 Br       -3.5713820     0.2354630    -0.0000030
 Br        3.5713810    -0.2354650    -0.0000030
  O       -1.7063930    -1.8556370     0.0000010
  O        1.7063960     1.8556390     0.0000010
  C       -0.6651012     0.3705146     0.0457140
  C        0.6782960    -0.3467390     0.0000100
  C       -1.7955640    -0.6603920     0.0000020
  C        1.7955640     0.6603950     0.0000020
  H       -0.8053490     0.9949230    -0.8734510
  H       -0.8053540     0.9949110     0.8734800
  H        0.8053470    -0.9949190    -0.8734520
  H        0.8053530    -0.9949090     0.8734780
units angstrom
no_reorient  #important for SAPT in psi4, default
symmetry c1  #important for SAPT in psi4, default
}

set PROPERTIES_ORIGIN ["COM"]
properties('MP2/aug-cc-pvtz', properties = ['dipole'])
--------------------------------------------------------------------------

    Molecular point group: c1
  Charge       = 0
  Multiplicity = 1
  Basis Set: AUG-CC-PVTZ
    Blend: AUG-CC-PVTZ
  Basis Set: (AUG-CC-PVTZ AUX)
    Blend: AUG-CC-PVTZ-JKFIT

    Orbital Energies [Eh]
    ---------------------

    Doubly Occupied:

       1A   -490.041879     2A   -490.041869     3A    -65.181764
       4A    -65.181756     5A    -58.536965     6A    -58.536959
       7A    -58.535712     8A    -58.535704     9A    -58.535575
      10A    -58.535569    11A    -20.618813    12A    -20.618136
      13A    -11.429936    14A    -11.428914    15A    -11.298104
      16A    -11.297476    17A     -9.854416    18A     -9.854409
      19A     -7.465520    20A     -7.465519    21A     -7.459564
      22A     -7.459554    23A     -7.458998    24A     -7.458995
      25A     -3.209031    26A     -3.209031    27A     -3.206138
      28A     -3.206130    29A     -3.205365    30A     -3.205363
      31A     -3.197767    32A     -3.197757    33A     -3.197748
      34A     -3.197739    35A     -1.459735    36A     -1.458370
      37A     -1.138485    38A     -1.067260    39A     -1.038061
      40A     -0.964131    41A     -0.788231    42A     -0.787220
      43A     -0.712459    44A     -0.703583    45A     -0.683017
      46A     -0.648519    47A     -0.639310    48A     -0.623047
      49A     -0.581088    50A     -0.570943    51A     -0.546331
      52A     -0.459431    53A     -0.441700    54A     -0.438682
      55A     -0.437044    56A     -0.435309    57A     -0.431104

  @DF-RHF Final Energy: -5448.56467984038682

   => Energetics <=

    Nuclear Repulsion Energy =            770.7715186122445630
    One-Electron Energy =               -9114.8379254885894625
    Two-Electron Energy =                2895.5017270359589929
    Total Energy =                      -5448.5646798403868161
  Basis Set: (AUG-CC-PVTZ AUX)
    Blend: AUG-CC-PVTZ-RI
    Molecular point group: c1

    Geometry (in Angstrom), charge = 0, multiplicity = 1:

       Center              X                  Y                   Z               Mass
    ------------   -----------------  -----------------  -----------------  -----------------
         BR          -3.572036531878     0.234283697969    -0.002270240915    78.918337600000
         BR           3.570726468122    -0.236644302031    -0.002270240915    78.918337600000
         O           -1.707047531878    -1.856816302031    -0.002266240915    15.994914619570
         O            1.705741468122     1.854459697969    -0.002266240915    15.994914619570
         C           -0.665755731878     0.369335297969     0.043446759085    12.000000000000
         C            0.677641468122    -0.347918302031    -0.002257240915    12.000000000000
         C           -1.796218531878    -0.661571302031    -0.002265240915    12.000000000000
         C            1.794909468122     0.659215697969    -0.002265240915    12.000000000000
         H           -0.806003531878     0.993743697969    -0.875718240915     1.007825032230
         H           -0.806008531878     0.993731697969     0.871212759085     1.007825032230
         H            0.804692468122    -0.996098302031    -0.875719240915     1.007825032230
         H            0.804698468122    -0.996088302031     0.871210759085     1.007825032230

  Basis Set: AUG-CC-PVTZ
    Blend: AUG-CC-PVTZ
  Basis Set: (AUG-CC-PVTZ AUX)
    Blend: AUG-CC-PVTZ-JKFIT
	 Reference Energy          =   -5448.5646798403868161 [Eh]
	 Singles Energy            =      -0.0000000000000000 [Eh]
	 Same-Spin Energy          =      -0.4822548870610627 [Eh]
	 Opposite-Spin Energy      =      -1.3310800442444943 [Eh]
	 Correlation Energy        =      -1.8133349313055569 [Eh]
	 Total Energy              =   -5450.3780147716925057 [Eh]

	 ================> DF-SCS-MP2 Energies <==================
	-----------------------------------------------------------
	 SCS Same-Spin Scale       =       0.3333333333333333 [-]
	 SCS Opposite-Spin Scale   =       1.2000000000000000 [-]
	 SCS Same-Spin Energy      =      -0.1607516290203542 [Eh]
	 SCS Opposite-Spin Energy  =      -1.5972960530933931 [Eh]
	 SCS Correlation Energy    =      -1.7580476821137472 [Eh]
	 SCS Total Energy          =   -5450.3227275225008270 [Eh]
	-----------------------------------------------------------

  Dipole Moment: [D]
     X:    -0.0246      Y:    -0.0230      Z:     0.0211     Total:     0.0397

*** Psi4 exiting successfully. Buy a developer a beer!
