                               Psi4 1.4a3.dev225

  ==> Input File <==

--------------------------------------------------------------------------
#psi4
#
memory 32 gb

molecule  {
0 1
 Br       -3.5713820     0.2354630    -0.0000030
 Br        3.5713810    -0.2354650    -0.0000030
  O       -1.7063930    -1.8556370     0.0000010
  O        1.7063960     1.8556390     0.0000010
  C       -0.6782960     0.3467420     0.0000100
  C        0.6782960    -0.3467390     0.0000100
  C       -1.7955640    -0.6603920     0.0000020
  C        1.7777076     0.6694032     0.0000021
  H       -0.8053490     0.9949230    -0.8734510
  H       -0.8053540     0.9949110     0.8734800
  H        0.8053470    -0.9949190    -0.8734520
  H        0.8053530    -0.9949090     0.8734780
units angstrom
no_reorient  #important for SAPT in psi4, default
symmetry c1  #important for SAPT in psi4, default
}

set PROPERTIES_ORIGIN ["COM"]
properties('MP2/aug-cc-pvtz', properties = ['dipole'])
--------------------------------------------------------------------------

    Molecular point group: c1
  Charge       = 0
  Multiplicity = 1
  Basis Set: AUG-CC-PVTZ
    Blend: AUG-CC-PVTZ
  Basis Set: (AUG-CC-PVTZ AUX)
    Blend: AUG-CC-PVTZ-JKFIT

    Orbital Energies [Eh]
    ---------------------

    Doubly Occupied:

       1A   -490.042945     2A   -490.037706     3A    -65.182820
       4A    -65.177578     5A    -58.538028     6A    -58.536766
       7A    -58.536631     8A    -58.532772     9A    -58.531532
      10A    -58.531403    11A    -20.621697    12A    -20.619004
      13A    -11.430026    14A    -11.429995    15A    -11.299033
      16A    -11.298392    17A     -9.855465    18A     -9.850172
      19A     -7.466588    20A     -7.461203    21A     -7.460597
      22A     -7.460039    23A     -7.455343    24A     -7.454814
      25A     -3.210110    26A     -3.207195    27A     -3.206431
      28A     -3.204660    29A     -3.201834    30A     -3.201105
      31A     -3.198787    32A     -3.198768    33A     -3.193615
      34A     -3.193597    35A     -1.468811    36A     -1.459862
      37A     -1.141694    38A     -1.067232    39A     -1.035515
      40A     -0.966778    41A     -0.789809    42A     -0.788638
      43A     -0.715844    44A     -0.704546    45A     -0.686044
      46A     -0.653478    47A     -0.640430    48A     -0.625619
      49A     -0.577561    50A     -0.573799    51A     -0.547349
      52A     -0.460061    53A     -0.441708    54A     -0.438943
      55A     -0.434654    56A     -0.434491    57A     -0.429976

  @DF-RHF Final Energy: -5448.56813424956181

   => Energetics <=

    Nuclear Repulsion Energy =            770.9050042390502995
    One-Electron Energy =               -9115.1272974264284130
    Two-Electron Energy =                2895.6541589378175559
    Total Energy =                      -5448.5681342495608988
  Basis Set: (AUG-CC-PVTZ AUX)
    Blend: AUG-CC-PVTZ-RI
    Molecular point group: c1

    Geometry (in Angstrom), charge = 0, multiplicity = 1:

       Center              X                  Y                   Z               Mass
    ------------   -----------------  -----------------  -----------------  -----------------
         BR          -3.570495897699     0.235016247412    -0.000002599393    78.918337600000
         BR           3.572267102301    -0.235911752588    -0.000002599393    78.918337600000
         O           -1.705506897699    -1.856083752588     0.000001400607    15.994914619570
         O            1.707282102301     1.855192247412     0.000001400607    15.994914619570
         C           -0.677409897699     0.346295247412     0.000010400607    12.000000000000
         C            0.679182102301    -0.347185752588     0.000010400607    12.000000000000
         C           -1.794677897699    -0.660838752588     0.000002400607    12.000000000000
         C            1.778593702301     0.668956447412     0.000002500607    12.000000000000
         H           -0.804462897699     0.994476247412    -0.873450599393     1.007825032230
         H           -0.804467897699     0.994464247412     0.873480400607     1.007825032230
         H            0.806233102301    -0.995365752588    -0.873451599393     1.007825032230
         H            0.806239102301    -0.995355752588     0.873478400607     1.007825032230

  Basis Set: AUG-CC-PVTZ
    Blend: AUG-CC-PVTZ
  Basis Set: (AUG-CC-PVTZ AUX)
    Blend: AUG-CC-PVTZ-JKFIT
	 Reference Energy          =   -5448.5681342495618082 [Eh]
	 Singles Energy            =      -0.0000000000000000 [Eh]
	 Same-Spin Energy          =      -0.4821849593889652 [Eh]
	 Opposite-Spin Energy      =      -1.3306297327786281 [Eh]
	 Correlation Energy        =      -1.8128146921675934 [Eh]
	 Total Energy              =   -5450.3809489417290024 [Eh]

	 ================> DF-SCS-MP2 Energies <==================
	-----------------------------------------------------------
	 SCS Same-Spin Scale       =       0.3333333333333333 [-]
	 SCS Opposite-Spin Scale   =       1.2000000000000000 [-]
	 SCS Same-Spin Energy      =      -0.1607283197963217 [Eh]
	 SCS Opposite-Spin Energy  =      -1.5967556793343536 [Eh]
	 SCS Correlation Energy    =      -1.7574839991306752 [Eh]
	 SCS Total Energy          =   -5450.3256182486920807 [Eh]
	-----------------------------------------------------------

  Dipole Moment: [D]
     X:    -0.2192      Y:     0.0973      Z:     0.0000     Total:     0.2398

*** Psi4 exiting successfully. Buy a developer a beer!
