                               Psi4 1.4a3.dev225

  ==> Input File <==

--------------------------------------------------------------------------
#psi4
#
memory 32 gb

molecule  {
0 1
 Br       -3.5713820     0.2354630    -0.0000030
 Br        3.5713810    -0.2354650    -0.0000030
  O       -1.7063930    -1.8556370     0.0000010
  O        1.7063960     1.8556390     0.0000010
  C       -0.6782960     0.3467420     0.0000100
  C        0.6782960    -0.3467390     0.0000100
  C       -1.7955640    -0.6603920     0.0000020
  C        1.7992838     0.6105336     0.0000020
  H       -0.8053490     0.9949230    -0.8734510
  H       -0.8053540     0.9949110     0.8734800
  H        0.8053470    -0.9949190    -0.8734520
  H        0.8053530    -0.9949090     0.8734780
units angstrom
no_reorient  #important for SAPT in psi4, default
symmetry c1  #important for SAPT in psi4, default
}

set PROPERTIES_ORIGIN ["COM"]
properties('MP2/aug-cc-pvtz', properties = ['dipole'])
--------------------------------------------------------------------------

    Molecular point group: c1
  Charge       = 0
  Multiplicity = 1
  Basis Set: AUG-CC-PVTZ
    Blend: AUG-CC-PVTZ
  Basis Set: (AUG-CC-PVTZ AUX)
    Blend: AUG-CC-PVTZ-JKFIT

    Orbital Energies [Eh]
    ---------------------

    Doubly Occupied:

       1A   -490.050735     2A   -490.041962     3A    -65.190538
       4A    -65.181836     5A    -58.545786     6A    -58.544468
       7A    -58.544323     8A    -58.537044     9A    -58.535781
      10A    -58.535646    11A    -20.617707    12A    -20.609624
      13A    -11.431380    14A    -11.428784    15A    -11.297170
      16A    -11.295744    17A     -9.863185    18A     -9.854478
      19A     -7.474495    20A     -7.468222    21A     -7.467610
      22A     -7.465606    23A     -7.459608    24A     -7.459049
      25A     -3.218154    26A     -3.215071    27A     -3.214242
      28A     -3.209129    29A     -3.206234    30A     -3.206213
      31A     -3.206212    32A     -3.205447    33A     -3.197794
      34A     -3.197776    35A     -1.458752    36A     -1.420641
      37A     -1.142139    38A     -1.074339    39A     -1.042073
      40A     -0.971243    41A     -0.787864    42A     -0.783590
      43A     -0.705973    44A     -0.702064    45A     -0.681155
      46A     -0.644064    47A     -0.632381    48A     -0.618205
      49A     -0.570992    50A     -0.561049    51A     -0.536548
      52A     -0.464884    53A     -0.447005    54A     -0.442373
      55A     -0.438397    56A     -0.437619    57A     -0.433981

  @DF-RHF Final Energy: -5448.55806199965627

   => Energetics <=

    Nuclear Repulsion Energy =            771.2900066334609619
    One-Electron Energy =               -9115.7473683354692184
    Two-Electron Energy =                2895.8992997023519820
    Total Energy =                      -5448.5580619996562746
  Basis Set: (AUG-CC-PVTZ AUX)
    Blend: AUG-CC-PVTZ-RI
    Molecular point group: c1

    Geometry (in Angstrom), charge = 0, multiplicity = 1:

       Center              X                  Y                   Z               Mass
    ------------   -----------------  -----------------  -----------------  -----------------
         BR          -3.571566420937     0.237937117389    -0.000002594432    78.918337600000
         BR           3.571196579063    -0.232990882611    -0.000002594432    78.918337600000
         O           -1.706577420937    -1.853162882611     0.000001405568    15.994914619570
         O            1.706211579063     1.858113117389     0.000001405568    15.994914619570
         C           -0.678480420937     0.349216117389     0.000010405568    12.000000000000
         C            0.678111579063    -0.344264882611     0.000010405568    12.000000000000
         C           -1.795748420937    -0.657917882611     0.000002405568    12.000000000000
         C            1.799099379063     0.613007717389     0.000002405568    12.000000000000
         H           -0.805533420937     0.997397117389    -0.873450594432     1.007825032230
         H           -0.805538420937     0.997385117389     0.873480405568     1.007825032230
         H            0.805162579063    -0.992444882611    -0.873451594432     1.007825032230
         H            0.805168579063    -0.992434882611     0.873478405568     1.007825032230

  Basis Set: AUG-CC-PVTZ
    Blend: AUG-CC-PVTZ
  Basis Set: (AUG-CC-PVTZ AUX)
    Blend: AUG-CC-PVTZ-JKFIT
	 Reference Energy          =   -5448.5580619996562746 [Eh]
	 Singles Energy            =      -0.0000000000000000 [Eh]
	 Same-Spin Energy          =      -0.4838891370843994 [Eh]
	 Opposite-Spin Energy      =      -1.3345130804178607 [Eh]
	 Correlation Energy        =      -1.8184022175022601 [Eh]
	 Total Energy              =   -5450.3764642171581727 [Eh]

	 ================> DF-SCS-MP2 Energies <==================
	-----------------------------------------------------------
	 SCS Same-Spin Scale       =       0.3333333333333333 [-]
	 SCS Opposite-Spin Scale   =       1.2000000000000000 [-]
	 SCS Same-Spin Energy      =      -0.1612963790281331 [Eh]
	 SCS Opposite-Spin Energy  =      -1.6014156965014328 [Eh]
	 SCS Correlation Energy    =      -1.7627120755295660 [Eh]
	 SCS Total Energy          =   -5450.3207740751859092 [Eh]
	-----------------------------------------------------------

  Dipole Moment: [D]
     X:     0.2533      Y:    -0.3043      Z:     0.0000     Total:     0.3959

*** Psi4 exiting successfully. Buy a developer a beer!
