                               Psi4 1.4a3.dev225

  ==> Input File <==

--------------------------------------------------------------------------
#psi4
#
memory 32 gb

molecule  {
0 1
 Br       -3.5713820     0.2354630    -0.0000030
 Br        3.5713810    -0.2354650    -0.0000030
  O       -1.7063930    -1.8556370     0.0000010
  O        1.7063960     1.8556390     0.0000010
  C       -0.7079093     0.2704757    -0.1368793
  C        0.6782960    -0.3467390     0.0000100
  C       -1.7955640    -0.6603920     0.0000020
  C        1.7955640     0.6603950     0.0000020
  H       -0.8053490     0.9949230    -0.8734510
  H       -0.8053540     0.9949110     0.8734800
  H        0.8053470    -0.9949190    -0.8734520
  H        0.8053530    -0.9949090     0.8734780
units angstrom
no_reorient  #important for SAPT in psi4, default
symmetry c1  #important for SAPT in psi4, default
}

set PROPERTIES_ORIGIN ["COM"]
properties('MP2/aug-cc-pvtz', properties = ['dipole'])
--------------------------------------------------------------------------

    Molecular point group: c1
  Charge       = 0
  Multiplicity = 1
  Basis Set: AUG-CC-PVTZ
    Blend: AUG-CC-PVTZ
  Basis Set: (AUG-CC-PVTZ AUX)
    Blend: AUG-CC-PVTZ-JKFIT

    Orbital Energies [Eh]
    ---------------------

    Doubly Occupied:

       1A   -490.043814     2A   -490.043167     3A    -65.183662
       4A    -65.183008     5A    -58.538882     6A    -58.538237
       7A    -58.537601     8A    -58.537467     9A    -58.536942
      10A    -58.536815    11A    -20.618732    12A    -20.614532
      13A    -11.430534    14A    -11.426705    15A    -11.300473
      16A    -11.298461    17A     -9.856282    18A     -9.855622
      19A     -7.467447    20A     -7.466822    21A     -7.461381
      22A     -7.460825    23A     -7.460693    24A     -7.460165
      25A     -3.210993    26A     -3.210380    27A     -3.208041
      28A     -3.207388    29A     -3.207278    30A     -3.206662
      31A     -3.199534    32A     -3.199516    33A     -3.198833
      34A     -3.198815    35A     -1.459852    36A     -1.458287
      37A     -1.143084    38A     -1.072163    39A     -1.038992
      40A     -0.972355    41A     -0.793451    42A     -0.788468
      43A     -0.716932    44A     -0.695878    45A     -0.688488
      46A     -0.657007    47A     -0.639299    48A     -0.623493
      49A     -0.576718    50A     -0.566963    51A     -0.512820
      52A     -0.463326    53A     -0.446799    54A     -0.439758
      55A     -0.437867    56A     -0.436073    57A     -0.432853

  @DF-RHF Final Energy: -5448.54439594332962

   => Energetics <=

    Nuclear Repulsion Energy =            771.7194137218272090
    One-Electron Energy =               -9116.5943528662755853
    Two-Electron Energy =                2896.3305432011188714
    Total Energy =                      -5448.5443959433305281
  Basis Set: (AUG-CC-PVTZ AUX)
    Blend: AUG-CC-PVTZ-RI
    Molecular point group: c1

    Geometry (in Angstrom), charge = 0, multiplicity = 1:

       Center              X                  Y                   Z               Mass
    ------------   -----------------  -----------------  -----------------  -----------------
         BR          -3.569912568167     0.239247221070     0.006789295550    78.918337600000
         BR           3.572850431833    -0.231680778930     0.006789295550    78.918337600000
         O           -1.704923568167    -1.851852778930     0.006793295550    15.994914619570
         O            1.707865431833     1.859423221070     0.006793295550    15.994914619570
         C           -0.706439868167     0.274259921070    -0.130087004450    12.000000000000
         C            0.679765431833    -0.342954778930     0.006802295550    12.000000000000
         C           -1.794094568167    -0.656607778930     0.006794295550    12.000000000000
         C            1.797033431833     0.664179221070     0.006794295550    12.000000000000
         H           -0.803879568167     0.998707221070    -0.866658704450     1.007825032230
         H           -0.803884568167     0.998695221070     0.880272295550     1.007825032230
         H            0.806816431833    -0.991134778930    -0.866659704450     1.007825032230
         H            0.806822431833    -0.991124778930     0.880270295550     1.007825032230

  Basis Set: AUG-CC-PVTZ
    Blend: AUG-CC-PVTZ
  Basis Set: (AUG-CC-PVTZ AUX)
    Blend: AUG-CC-PVTZ-JKFIT
	 Reference Energy          =   -5448.5443959433296186 [Eh]
	 Singles Energy            =      -0.0000000000000000 [Eh]
	 Same-Spin Energy          =      -0.4834800199322082 [Eh]
	 Opposite-Spin Energy      =      -1.3332642301626731 [Eh]
	 Correlation Energy        =      -1.8167442500948814 [Eh]
	 Total Energy              =   -5450.3611401934249443 [Eh]

	 ================> DF-SCS-MP2 Energies <==================
	-----------------------------------------------------------
	 SCS Same-Spin Scale       =       0.3333333333333333 [-]
	 SCS Opposite-Spin Scale   =       1.2000000000000000 [-]
	 SCS Same-Spin Energy      =      -0.1611600066440694 [Eh]
	 SCS Opposite-Spin Energy  =      -1.5999170761952077 [Eh]
	 SCS Correlation Energy    =      -1.7610770828392772 [Eh]
	 SCS Total Energy          =   -5450.3054730261692384 [Eh]
	-----------------------------------------------------------

  Dipole Moment: [D]
     X:     0.1270      Y:     0.0756      Z:    -0.0644     Total:     0.1613

*** Psi4 exiting successfully. Buy a developer a beer!
