                               Psi4 1.4a3.dev225

  ==> Input File <==

--------------------------------------------------------------------------
#psi4
#
memory 32 gb

molecule  {
0 1
 Br       -3.5713820     0.2354630    -0.0000030
 Br        3.5713810    -0.2354650    -0.0000030
  O       -1.7063930    -1.8556370     0.0000010
  O        1.7063960     1.8556390     0.0000010
  C       -0.6782960     0.3467420     0.0000100
  C        0.6782960    -0.3467390     0.0000100
  C       -1.7955640    -0.6603920     0.0000020
  C        1.7970519     0.6404504     0.0000020
  H       -0.8053490     0.9949230    -0.8734510
  H       -0.8053540     0.9949110     0.8734800
  H        0.8053470    -0.9949190    -0.8734520
  H        0.8053530    -0.9949090     0.8734780
units angstrom
no_reorient  #important for SAPT in psi4, default
symmetry c1  #important for SAPT in psi4, default
}

set PROPERTIES_ORIGIN ["COM"]
properties('MP2/aug-cc-pvtz', properties = ['dipole'])
--------------------------------------------------------------------------

    Molecular point group: c1
  Charge       = 0
  Multiplicity = 1
  Basis Set: AUG-CC-PVTZ
    Blend: AUG-CC-PVTZ
  Basis Set: (AUG-CC-PVTZ AUX)
    Blend: AUG-CC-PVTZ-JKFIT

    Orbital Energies [Eh]
    ---------------------

    Doubly Occupied:

       1A   -490.045760     2A   -490.042112     3A    -65.185605
       4A    -65.181988     5A    -58.540829     6A    -58.539544
       7A    -58.539405     8A    -58.537196     9A    -58.535934
      10A    -58.535799    11A    -20.617943    12A    -20.614686
      13A    -11.430119    14A    -11.428995    15A    -11.297397
      16A    -11.296583    17A     -9.858248    18A     -9.854632
      19A     -7.469449    20A     -7.465757    21A     -7.463340
      22A     -7.462762    23A     -7.459765    24A     -7.459207
      25A     -3.213026    26A     -3.210042    27A     -3.209278
      28A     -3.209253    29A     -3.206364    30A     -3.205599
      31A     -3.201457    32A     -3.201438    33A     -3.197955
      34A     -3.197936    35A     -1.458951    36A     -1.443229
      37A     -1.140355    38A     -1.070807    39A     -1.039859
      40A     -0.967974    41A     -0.787968    42A     -0.785396
      43A     -0.709636    44A     -0.702130    45A     -0.683005
      46A     -0.647958    47A     -0.636407    48A     -0.620345
      49A     -0.573751    50A     -0.566091    51A     -0.542542
      52A     -0.462067    53A     -0.444829    54A     -0.440252
      55A     -0.437631    56A     -0.436546    57A     -0.433223

  @DF-RHF Final Energy: -5448.56459582076150

   => Energetics <=

    Nuclear Repulsion Energy =            771.1424121527123816
    One-Electron Energy =               -9115.5212998393926682
    Two-Electron Energy =                2895.8142918659186762
    Total Energy =                      -5448.5645958207614967
  Basis Set: (AUG-CC-PVTZ AUX)
    Blend: AUG-CC-PVTZ-RI
    Molecular point group: c1

    Geometry (in Angstrom), charge = 0, multiplicity = 1:

       Center              X                  Y                   Z               Mass
    ------------   -----------------  -----------------  -----------------  -----------------
         BR          -3.571455683142     0.236452767522    -0.000002594432    78.918337600000
         BR           3.571307316858    -0.234475232478    -0.000002594432    78.918337600000
         O           -1.706466683142    -1.854647232478     0.000001405568    15.994914619570
         O            1.706322316858     1.856628767522     0.000001405568    15.994914619570
         C           -0.678369683142     0.347731767522     0.000010405568    12.000000000000
         C            0.678222316858    -0.345749232478     0.000010405568    12.000000000000
         C           -1.795637683142    -0.659402232478     0.000002405568    12.000000000000
         C            1.796978216858     0.641440167522     0.000002405568    12.000000000000
         H           -0.805422683142     0.995912767522    -0.873450594432     1.007825032230
         H           -0.805427683142     0.995900767522     0.873480405568     1.007825032230
         H            0.805273316858    -0.993929232478    -0.873451594432     1.007825032230
         H            0.805279316858    -0.993919232478     0.873478405568     1.007825032230

  Basis Set: AUG-CC-PVTZ
    Blend: AUG-CC-PVTZ
  Basis Set: (AUG-CC-PVTZ AUX)
    Blend: AUG-CC-PVTZ-JKFIT
	 Reference Energy          =   -5448.5645958207614967 [Eh]
	 Singles Energy            =      -0.0000000000000000 [Eh]
	 Same-Spin Energy          =      -0.4829661267681034 [Eh]
	 Opposite-Spin Energy      =      -1.3324774758130005 [Eh]
	 Correlation Energy        =      -1.8154436025811038 [Eh]
	 Total Energy              =   -5450.3800394233421684 [Eh]

	 ================> DF-SCS-MP2 Energies <==================
	-----------------------------------------------------------
	 SCS Same-Spin Scale       =       0.3333333333333333 [-]
	 SCS Opposite-Spin Scale   =       1.2000000000000000 [-]
	 SCS Same-Spin Energy      =      -0.1609887089227011 [Eh]
	 SCS Opposite-Spin Energy  =      -1.5989729709756004 [Eh]
	 SCS Correlation Energy    =      -1.7599616798983015 [Eh]
	 SCS Total Energy          =   -5450.3245575006594663 [Eh]
	-----------------------------------------------------------

  Dipole Moment: [D]
     X:     0.1047      Y:    -0.1257      Z:     0.0000     Total:     0.1637

*** Psi4 exiting successfully. Buy a developer a beer!
