                               Psi4 1.4a3.dev225

  ==> Input File <==

--------------------------------------------------------------------------
#psi4
#
memory 32 gb

molecule  {
0 1
 Br       -3.5713820     0.2354630    -0.0000030
 Br        3.5713810    -0.2354650    -0.0000030
  O       -1.7063930    -1.8556370     0.0000010
  O        1.7063960     1.8556390     0.0000010
  C       -0.6338196     0.4154104     0.1368993
  C        0.6782960    -0.3467390     0.0000100
  C       -1.7955640    -0.6603920     0.0000020
  C        1.7955640     0.6603950     0.0000020
  H       -0.8053490     0.9949230    -0.8734510
  H       -0.8053540     0.9949110     0.8734800
  H        0.8053470    -0.9949190    -0.8734520
  H        0.8053530    -0.9949090     0.8734780
units angstrom
no_reorient  #important for SAPT in psi4, default
symmetry c1  #important for SAPT in psi4, default
}

set PROPERTIES_ORIGIN ["COM"]
properties('MP2/aug-cc-pvtz', properties = ['dipole'])
--------------------------------------------------------------------------

    Molecular point group: c1
  Charge       = 0
  Multiplicity = 1
  Basis Set: AUG-CC-PVTZ
    Blend: AUG-CC-PVTZ
  Basis Set: (AUG-CC-PVTZ AUX)
    Blend: AUG-CC-PVTZ-JKFIT

    Orbital Energies [Eh]
    ---------------------

    Doubly Occupied:

       1A   -490.041358     2A   -490.041099     3A    -65.181261
       4A    -65.180990     5A    -58.536456     6A    -58.536186
       7A    -58.535213     8A    -58.535076     9A    -58.534939
      10A    -58.534799    11A    -20.619580    12A    -20.618437
      13A    -11.431257    14A    -11.428706    15A    -11.300647
      16A    -11.299763    17A     -9.853927    18A     -9.853651
      19A     -7.465013    20A     -7.464732    21A     -7.459093
      22A     -7.458814    23A     -7.458531    24A     -7.458232
      25A     -3.208511    26A     -3.208233    27A     -3.205633
      28A     -3.205364    29A     -3.204865    30A     -3.204574
      31A     -3.197316    32A     -3.197298    33A     -3.197028
      34A     -3.197008    35A     -1.459967    36A     -1.458086
      37A     -1.137880    38A     -1.064937    39A     -1.037922
      40A     -0.962940    41A     -0.795143    42A     -0.785549
      43A     -0.715341    44A     -0.703079    45A     -0.682472
      46A     -0.644190    47A     -0.641024    48A     -0.624726
      49A     -0.593607    50A     -0.570317    51A     -0.538080
      52A     -0.457421    53A     -0.439519    54A     -0.438136
      55A     -0.436628    56A     -0.434435    57A     -0.428163

  @DF-RHF Final Energy: -5448.53764425728514

   => Energetics <=

    Nuclear Repulsion Energy =            770.1460315125982561
    One-Electron Energy =               -9113.5610461386731913
    Two-Electron Energy =                2894.8773703687893430
    Total Energy =                      -5448.5376442572851374
  Basis Set: (AUG-CC-PVTZ AUX)
    Blend: AUG-CC-PVTZ-RI
    Molecular point group: c1

    Geometry (in Angstrom), charge = 0, multiplicity = 1:

       Center              X                  Y                   Z               Mass
    ------------   -----------------  -----------------  -----------------  -----------------
         BR          -3.573588597566     0.232056151081    -0.006794484414    78.918337600000
         BR           3.569174402434    -0.238871848919    -0.006794484414    78.918337600000
         O           -1.708599597566    -1.859043848919    -0.006790484414    15.994914619570
         O            1.704189402434     1.852232151081    -0.006790484414    15.994914619570
         C           -0.636026197566     0.412003551081     0.130107815586    12.000000000000
         C            0.676089402434    -0.350145848919    -0.006781484414    12.000000000000
         C           -1.797770597566    -0.663798848919    -0.006789484414    12.000000000000
         C            1.793357402434     0.656988151081    -0.006789484414    12.000000000000
         H           -0.807555597566     0.991516151081    -0.880242484414     1.007825032230
         H           -0.807560597566     0.991504151081     0.866688515586     1.007825032230
         H            0.803140402434    -0.998325848919    -0.880243484414     1.007825032230
         H            0.803146402434    -0.998315848919     0.866686515586     1.007825032230

  Basis Set: AUG-CC-PVTZ
    Blend: AUG-CC-PVTZ
  Basis Set: (AUG-CC-PVTZ AUX)
    Blend: AUG-CC-PVTZ-JKFIT
	 Reference Energy          =   -5448.5376442572851374 [Eh]
	 Singles Energy            =      -0.0000000000000000 [Eh]
	 Same-Spin Energy          =      -0.4824598752109804 [Eh]
	 Opposite-Spin Energy      =      -1.3320656975391616 [Eh]
	 Correlation Energy        =      -1.8145255727501421 [Eh]
	 Total Energy              =   -5450.3521698300355638 [Eh]

	 ================> DF-SCS-MP2 Energies <==================
	-----------------------------------------------------------
	 SCS Same-Spin Scale       =       0.3333333333333333 [-]
	 SCS Opposite-Spin Scale   =       1.2000000000000000 [-]
	 SCS Same-Spin Energy      =      -0.1608199584036601 [Eh]
	 SCS Opposite-Spin Energy  =      -1.5984788370469938 [Eh]
	 SCS Correlation Energy    =      -1.7592987954506538 [Eh]
	 SCS Total Energy          =   -5450.2969430527355144 [Eh]
	-----------------------------------------------------------

  Dipole Moment: [D]
     X:    -0.0506      Y:    -0.0710      Z:     0.0608     Total:     0.1063

*** Psi4 exiting successfully. Buy a developer a beer!
