                               Psi4 1.4a3.dev225

  ==> Input File <==

--------------------------------------------------------------------------
#psi4
#
memory 32 gb

molecule  {
0 1
 Br       -3.5713820     0.2354630    -0.0000030
 Br        3.5713810    -0.2354650    -0.0000030
  O       -1.7063930    -1.8556370     0.0000010
  O        1.7063960     1.8556390     0.0000010
  C       -0.6782960     0.3467420     0.0000100
  C        0.6782960    -0.3467390     0.0000100
  C       -1.7955640    -0.6603920     0.0000020
  C        1.7881244     0.7601179     0.0000019
  H       -0.8053490     0.9949230    -0.8734510
  H       -0.8053540     0.9949110     0.8734800
  H        0.8053470    -0.9949190    -0.8734520
  H        0.8053530    -0.9949090     0.8734780
units angstrom
no_reorient  #important for SAPT in psi4, default
symmetry c1  #important for SAPT in psi4, default
}

set PROPERTIES_ORIGIN ["COM"]
properties('MP2/aug-cc-pvtz', properties = ['dipole'])
--------------------------------------------------------------------------

    Molecular point group: c1
  Charge       = 0
  Multiplicity = 1
  Basis Set: AUG-CC-PVTZ
    Blend: AUG-CC-PVTZ
  Basis Set: (AUG-CC-PVTZ AUX)
    Blend: AUG-CC-PVTZ-JKFIT

    Orbital Energies [Eh]
    ---------------------

    Doubly Occupied:

       1A   -490.043336     2A   -490.022297     3A    -65.183219
       4A    -65.162390     5A    -58.538423     6A    -58.537165
       7A    -58.537030     8A    -58.517484     9A    -58.516381
      10A    -58.516262    11A    -20.636590    12A    -20.619537
      13A    -11.430528    14A    -11.422903    15A    -11.301799
      16A    -11.298982    17A     -9.855870    18A     -9.835106
      19A     -7.466984    20A     -7.461009    21A     -7.460454
      22A     -7.445773    23A     -7.440508    24A     -7.440040
      25A     -3.210500    26A     -3.207592    27A     -3.206831
      28A     -3.199209    29A     -3.199191    30A     -3.188968
      31A     -3.186469    32A     -3.185812    33A     -3.179134
      34A     -3.179118    35A     -1.546354    36A     -1.460284
      37A     -1.135620    38A     -1.059310    39A     -1.026779
      40A     -0.955641    41A     -0.800406    42A     -0.789691
      43A     -0.732816    44A     -0.708065    45A     -0.691719
      46A     -0.668586    47A     -0.652175    48A     -0.648761
      49A     -0.590419    50A     -0.581285    51A     -0.550423
      52A     -0.456882    53A     -0.439278    54A     -0.437842
      55A     -0.425903    56A     -0.425347    57A     -0.417379

  @DF-RHF Final Energy: -5448.55994183666007

   => Energetics <=

    Nuclear Repulsion Energy =            770.7895984560881288
    One-Electron Energy =               -9115.0313548630274454
    Two-Electron Energy =                2895.6818145702804941
    Total Energy =                      -5448.5599418366600730
  Basis Set: (AUG-CC-PVTZ AUX)
    Blend: AUG-CC-PVTZ-RI
    Molecular point group: c1

    Geometry (in Angstrom), charge = 0, multiplicity = 1:

       Center              X                  Y                   Z               Mass
    ------------   -----------------  -----------------  -----------------  -----------------
         BR          -3.571012736923     0.230515353170    -0.000002589470    78.918337600000
         BR           3.571750263077    -0.240412646830    -0.000002589470    78.918337600000
         O           -1.706023736923    -1.860584646830     0.000001410530    15.994914619570
         O            1.706765263077     1.850691353170     0.000001410530    15.994914619570
         C           -0.677926736923     0.341794353170     0.000010410530    12.000000000000
         C            0.678665263077    -0.351686646830     0.000010410530    12.000000000000
         C           -1.795194736923    -0.665339646830     0.000002410530    12.000000000000
         C            1.788493663077     0.755170253170     0.000002310530    12.000000000000
         H           -0.804979736923     0.989975353170    -0.873450589470     1.007825032230
         H           -0.804984736923     0.989963353170     0.873480410530     1.007825032230
         H            0.805716263077    -0.999866646830    -0.873451589470     1.007825032230
         H            0.805722263077    -0.999856646830     0.873478410530     1.007825032230

  Basis Set: AUG-CC-PVTZ
    Blend: AUG-CC-PVTZ
  Basis Set: (AUG-CC-PVTZ AUX)
    Blend: AUG-CC-PVTZ-JKFIT
	 Reference Energy          =   -5448.5599418366600730 [Eh]
	 Singles Energy            =      -0.0000000000000000 [Eh]
	 Same-Spin Energy          =      -0.4794617028866065 [Eh]
	 Opposite-Spin Energy      =      -1.3246843213638773 [Eh]
	 Correlation Energy        =      -1.8041460242504836 [Eh]
	 Total Energy              =   -5450.3640878609103311 [Eh]

	 ================> DF-SCS-MP2 Energies <==================
	-----------------------------------------------------------
	 SCS Same-Spin Scale       =       0.3333333333333333 [-]
	 SCS Opposite-Spin Scale   =       1.2000000000000000 [-]
	 SCS Same-Spin Energy      =      -0.1598205676288688 [Eh]
	 SCS Opposite-Spin Energy  =      -1.5896211856366527 [Eh]
	 SCS Correlation Energy    =      -1.7494417532655215 [Eh]
	 SCS Total Energy          =   -5450.3093835899253463 [Eh]
	-----------------------------------------------------------

  Dipole Moment: [D]
     X:    -0.5829      Y:     0.6941      Z:     0.0000     Total:     0.9064

*** Psi4 exiting successfully. Buy a developer a beer!
