                               Psi4 1.4a3.dev225

  ==> Input File <==

--------------------------------------------------------------------------
#psi4
#
memory 32 gb

molecule  {
0 1
 Br       -3.5713820     0.2354630    -0.0000030
 Br        3.5713810    -0.2354650    -0.0000030
  O       -1.7063930    -1.8556370     0.0000010
  O        1.7063960     1.8556390     0.0000010
  C       -0.6898380     0.3221245    -0.0456940
  C        0.6782960    -0.3467390     0.0000100
  C       -1.7955640    -0.6603920     0.0000020
  C        1.7955640     0.6603950     0.0000020
  H       -0.8053490     0.9949230    -0.8734510
  H       -0.8053540     0.9949110     0.8734800
  H        0.8053470    -0.9949190    -0.8734520
  H        0.8053530    -0.9949090     0.8734780
units angstrom
no_reorient  #important for SAPT in psi4, default
symmetry c1  #important for SAPT in psi4, default
}

set PROPERTIES_ORIGIN ["COM"]
properties('MP2/aug-cc-pvtz', properties = ['dipole'])
--------------------------------------------------------------------------

    Molecular point group: c1
  Charge       = 0
  Multiplicity = 1
  Basis Set: AUG-CC-PVTZ
    Blend: AUG-CC-PVTZ
  Basis Set: (AUG-CC-PVTZ AUX)
    Blend: AUG-CC-PVTZ-JKFIT

    Orbital Energies [Eh]
    ---------------------

    Doubly Occupied:

       1A   -490.042697     2A   -490.042588     3A    -65.182565
       4A    -65.182456     5A    -58.537776     6A    -58.537669
       7A    -58.536509     8A    -58.536399     9A    -58.536374
      10A    -58.536266    11A    -20.618234    12A    -20.617214
      13A    -11.429529    14A    -11.428370    15A    -11.297923
      16A    -11.297226    17A     -9.855202    18A     -9.855093
      19A     -7.466338    20A     -7.466238    21A     -7.460325
      22A     -7.460209    23A     -7.459768    24A     -7.459661
      25A     -3.209867    26A     -3.209769    27A     -3.206941
      28A     -3.206833    29A     -3.206178    30A     -3.206080
      31A     -3.198504    32A     -3.198486    33A     -3.198386
      34A     -3.198368    35A     -1.459779    36A     -1.458396
      37A     -1.140373    38A     -1.069787    39A     -1.038428
      40A     -0.967878    41A     -0.789686    42A     -0.786422
      43A     -0.713854    44A     -0.700222    45A     -0.685617
      46A     -0.653064    47A     -0.639088    48A     -0.622762
      49A     -0.574562    50A     -0.568624    51A     -0.538108
      52A     -0.461517    53A     -0.444347    54A     -0.439189
      55A     -0.437419    56A     -0.435739    57A     -0.432586

  @DF-RHF Final Energy: -5448.56451497619582

   => Energetics <=

    Nuclear Repulsion Energy =            771.3123212778712059
    One-Electron Energy =               -9115.8746957637158630
    Two-Electron Energy =                2895.9978595096490608
    Total Energy =                      -5448.5645149761949142
  Basis Set: (AUG-CC-PVTZ AUX)
    Blend: AUG-CC-PVTZ-RI
    Molecular point group: c1

    Geometry (in Angstrom), charge = 0, multiplicity = 1:

       Center              X                  Y                   Z               Mass
    ------------   -----------------  -----------------  -----------------  -----------------
         BR          -3.570809192530     0.236684617803     0.002265052051    78.918337600000
         BR           3.571953807470    -0.234243382197     0.002265052051    78.918337600000
         O           -1.705820192530    -1.854415382197     0.002269052051    15.994914619570
         O            1.706968807470     1.856860617803     0.002269052051    15.994914619570
         C           -0.689265192530     0.323346117803    -0.043425947949    12.000000000000
         C            0.678868807470    -0.345517382197     0.002278052051    12.000000000000
         C           -1.794991192530    -0.659170382197     0.002270052051    12.000000000000
         C            1.796136807470     0.661616617803     0.002270052051    12.000000000000
         H           -0.804776192530     0.996144617803    -0.871182947949     1.007825032230
         H           -0.804781192530     0.996132617803     0.875748052051     1.007825032230
         H            0.805919807470    -0.993697382197    -0.871183947949     1.007825032230
         H            0.805925807470    -0.993687382197     0.875746052051     1.007825032230

  Basis Set: AUG-CC-PVTZ
    Blend: AUG-CC-PVTZ
  Basis Set: (AUG-CC-PVTZ AUX)
    Blend: AUG-CC-PVTZ-JKFIT
	 Reference Energy          =   -5448.5645149761958237 [Eh]
	 Singles Energy            =      -0.0000000000000000 [Eh]
	 Same-Spin Energy          =      -0.4826155718143576 [Eh]
	 Opposite-Spin Energy      =      -1.3315523318945699 [Eh]
	 Correlation Energy        =      -1.8141679037089276 [Eh]
	 Total Energy              =   -5450.3786828799047726 [Eh]

	 ================> DF-SCS-MP2 Energies <==================
	-----------------------------------------------------------
	 SCS Same-Spin Scale       =       0.3333333333333333 [-]
	 SCS Opposite-Spin Scale   =       1.2000000000000000 [-]
	 SCS Same-Spin Energy      =      -0.1608718572714525 [Eh]
	 SCS Opposite-Spin Energy  =      -1.5978627982734839 [Eh]
	 SCS Correlation Energy    =      -1.7587346555449364 [Eh]
	 SCS Total Energy          =   -5450.3232496317405094 [Eh]
	-----------------------------------------------------------

  Dipole Moment: [D]
     X:     0.0332      Y:     0.0236      Z:    -0.0215     Total:     0.0460

*** Psi4 exiting successfully. Buy a developer a beer!
