                               Psi4 1.4a3.dev225

  ==> Input File <==

--------------------------------------------------------------------------
#psi4
#
memory 32 gb

molecule  {
0 1
 Br       -3.5713820     0.2354630    -0.0000030
 Br        3.5713810    -0.2354650    -0.0000030
  O       -1.7063930    -1.8556370     0.0000010
  O        1.7063960     1.8556390     0.0000010
  C       -0.6782960     0.3467420     0.0000100
  C        0.6782960    -0.3467390     0.0000100
  C       -1.7955640    -0.6603920     0.0000020
  C        1.8698407     0.7273500     0.0000015
  H       -0.8053490     0.9949230    -0.8734510
  H       -0.8053540     0.9949110     0.8734800
  H        0.8053470    -0.9949190    -0.8734520
  H        0.8053530    -0.9949090     0.8734780
units angstrom
no_reorient  #important for SAPT in psi4, default
symmetry c1  #important for SAPT in psi4, default
}

set PROPERTIES_ORIGIN ["COM"]
properties('MP2/aug-cc-pvtz', properties = ['dipole'])
--------------------------------------------------------------------------

    Molecular point group: c1
  Charge       = 0
  Multiplicity = 1
  Basis Set: AUG-CC-PVTZ
    Blend: AUG-CC-PVTZ
  Basis Set: (AUG-CC-PVTZ AUX)
    Blend: AUG-CC-PVTZ-JKFIT

    Orbital Energies [Eh]
    ---------------------

    Doubly Occupied:

       1A   -490.043440     2A   -490.039920     3A    -65.183543
       4A    -65.179813     5A    -58.538705     6A    -58.537485
       7A    -58.537341     8A    -58.535014     9A    -58.533762
      10A    -58.533627    11A    -20.620718    12A    -20.615338
      13A    -11.426519    14A    -11.420215    15A    -11.294020
      16A    -11.292957    17A     -9.856468    18A     -9.852471
      19A     -7.467590    20A     -7.463577    21A     -7.461660
      22A     -7.461072    23A     -7.457621    24A     -7.457066
      25A     -3.211087    26A     -3.208160    27A     -3.207362
      28A     -3.207085    29A     -3.204187    30A     -3.203426
      31A     -3.199885    32A     -3.199865    33A     -3.195830
      34A     -3.195811    35A     -1.502174    36A     -1.456209
      37A     -1.125762    38A     -1.066446    39A     -1.038603
      40A     -0.949112    41A     -0.788853    42A     -0.782623
      43A     -0.715827    44A     -0.695583    45A     -0.683063
      46A     -0.658560    47A     -0.643559    48A     -0.631237
      49A     -0.580434    50A     -0.572334    51A     -0.543273
      52A     -0.454731    53A     -0.442218    54A     -0.441803
      55A     -0.435765    56A     -0.434831    57A     -0.425078

  @DF-RHF Final Energy: -5448.56401458213259

   => Energetics <=

    Nuclear Repulsion Energy =            771.3557406143186199
    One-Electron Energy =               -9116.0180732945682394
    Two-Electron Energy =                2896.0983180981165788
    Total Energy =                      -5448.5640145821325859
  Basis Set: (AUG-CC-PVTZ AUX)
    Blend: AUG-CC-PVTZ-RI
    Molecular point group: c1

    Geometry (in Angstrom), charge = 0, multiplicity = 1:

       Center              X                  Y                   Z               Mass
    ------------   -----------------  -----------------  -----------------  -----------------
         BR          -3.575067167177     0.232141163016    -0.000002569624    78.918337600000
         BR           3.567695832823    -0.238786836984    -0.000002569624    78.918337600000
         O           -1.710078167177    -1.858958836984     0.000001430376    15.994914619570
         O            1.702710832823     1.852317163016     0.000001430376    15.994914619570
         C           -0.681981167177     0.343420163016     0.000010430376    12.000000000000
         C            0.674610832823    -0.350060836984     0.000010430376    12.000000000000
         C           -1.799249167177    -0.663713836984     0.000002430376    12.000000000000
         C            1.866155532823     0.724028163016     0.000001930376    12.000000000000
         H           -0.809034167177     0.991601163016    -0.873450569624     1.007825032230
         H           -0.809039167177     0.991589163016     0.873480430376     1.007825032230
         H            0.801661832823    -0.998240836984    -0.873451569624     1.007825032230
         H            0.801667832823    -0.998230836984     0.873478430376     1.007825032230

  Basis Set: AUG-CC-PVTZ
    Blend: AUG-CC-PVTZ
  Basis Set: (AUG-CC-PVTZ AUX)
    Blend: AUG-CC-PVTZ-JKFIT
	 Reference Energy          =   -5448.5640145821325859 [Eh]
	 Singles Energy            =      -0.0000000000000000 [Eh]
	 Same-Spin Energy          =      -0.4805273034128549 [Eh]
	 Opposite-Spin Energy      =      -1.3273706317277250 [Eh]
	 Correlation Energy        =      -1.8078979351405797 [Eh]
	 Total Energy              =   -5450.3719125172729036 [Eh]

	 ================> DF-SCS-MP2 Energies <==================
	-----------------------------------------------------------
	 SCS Same-Spin Scale       =       0.3333333333333333 [-]
	 SCS Opposite-Spin Scale   =       1.2000000000000000 [-]
	 SCS Same-Spin Energy      =      -0.1601757678042849 [Eh]
	 SCS Opposite-Spin Energy  =      -1.5928447580732699 [Eh]
	 SCS Correlation Energy    =      -1.7530205258775549 [Eh]
	 SCS Total Energy          =   -5450.3170351080098044 [Eh]
	-----------------------------------------------------------

  Dipole Moment: [D]
     X:     0.4215      Y:     0.2650      Z:     0.0000     Total:     0.4979

*** Psi4 exiting successfully. Buy a developer a beer!
