                               Psi4 1.4a3.dev225

  ==> Input File <==

--------------------------------------------------------------------------
#psi4
#
memory 32 gb

molecule  {
0 1
 Br       -3.5713820     0.2354630    -0.0000030
 Br        3.5713810    -0.2354650    -0.0000030
  O       -1.7063930    -1.8556370     0.0000010
  O        1.7063960     1.8556390     0.0000010
  C       -0.6782960     0.3467420     0.0000100
  C        0.6782960    -0.3467390     0.0000100
  C       -1.7881242    -0.7601149     0.0000019
  C        1.7955640     0.6603950     0.0000020
  H       -0.8053490     0.9949230    -0.8734510
  H       -0.8053540     0.9949110     0.8734800
  H        0.8053470    -0.9949190    -0.8734520
  H        0.8053530    -0.9949090     0.8734780
units angstrom
no_reorient  #important for SAPT in psi4, default
symmetry c1  #important for SAPT in psi4, default
}

set PROPERTIES_ORIGIN ["COM"]
properties('MP2/aug-cc-pvtz', properties = ['dipole'])
--------------------------------------------------------------------------

    Molecular point group: c1
  Charge       = 0
  Multiplicity = 1
  Basis Set: AUG-CC-PVTZ
    Blend: AUG-CC-PVTZ
  Basis Set: (AUG-CC-PVTZ AUX)
    Blend: AUG-CC-PVTZ-JKFIT

    Orbital Energies [Eh]
    ---------------------

    Doubly Occupied:

       1A   -490.043335     2A   -490.022297     3A    -65.183218
       4A    -65.162391     5A    -58.538422     6A    -58.537165
       7A    -58.537030     8A    -58.517485     9A    -58.516382
      10A    -58.516262    11A    -20.636590    12A    -20.619538
      13A    -11.430528    14A    -11.422903    15A    -11.301800
      16A    -11.298982    17A     -9.855870    18A     -9.835106
      19A     -7.466984    20A     -7.461008    21A     -7.460453
      22A     -7.445773    23A     -7.440509    24A     -7.440040
      25A     -3.210499    26A     -3.207592    27A     -3.206831
      28A     -3.199208    29A     -3.199190    30A     -3.188969
      31A     -3.186470    32A     -3.185813    33A     -3.179134
      34A     -3.179118    35A     -1.546352    36A     -1.460285
      37A     -1.135620    38A     -1.059310    39A     -1.026779
      40A     -0.955641    41A     -0.800405    42A     -0.789691
      43A     -0.732816    44A     -0.708065    45A     -0.691719
      46A     -0.668587    47A     -0.652174    48A     -0.648761
      49A     -0.590419    50A     -0.581285    51A     -0.550423
      52A     -0.456882    53A     -0.439278    54A     -0.437841
      55A     -0.425903    56A     -0.425348    57A     -0.417380

  @DF-RHF Final Energy: -5448.55994233687397

   => Energetics <=

    Nuclear Repulsion Energy =            770.7895971109824131
    One-Electron Energy =               -9115.0313526930094667
    Two-Electron Energy =                2895.6818132451526253
    Total Energy =                      -5448.5599423368739735
  Basis Set: (AUG-CC-PVTZ AUX)
    Blend: AUG-CC-PVTZ-RI
    Molecular point group: c1

    Geometry (in Angstrom), charge = 0, multiplicity = 1:

       Center              X                  Y                   Z               Mass
    ------------   -----------------  -----------------  -----------------  -----------------
         BR          -3.571750992198     0.240411042103    -0.000002589470    78.918337600000
         BR           3.571012007802    -0.230516957897    -0.000002589470    78.918337600000
         O           -1.706761992198    -1.850688957897     0.000001410530    15.994914619570
         O            1.706027007802     1.860587042103     0.000001410530    15.994914619570
         C           -0.678664992198     0.351690042103     0.000010410530    12.000000000000
         C            0.677927007802    -0.341790957897     0.000010410530    12.000000000000
         C           -1.788493192198    -0.755166857897     0.000002310530    12.000000000000
         C            1.795195007802     0.665343042103     0.000002410530    12.000000000000
         H           -0.805717992198     0.999871042103    -0.873450589470     1.007825032230
         H           -0.805722992198     0.999859042103     0.873480410530     1.007825032230
         H            0.804978007802    -0.989970957897    -0.873451589470     1.007825032230
         H            0.804984007802    -0.989960957897     0.873478410530     1.007825032230

  Basis Set: AUG-CC-PVTZ
    Blend: AUG-CC-PVTZ
  Basis Set: (AUG-CC-PVTZ AUX)
    Blend: AUG-CC-PVTZ-JKFIT
	 Reference Energy          =   -5448.5599423368739735 [Eh]
	 Singles Energy            =      -0.0000000000000000 [Eh]
	 Same-Spin Energy          =      -0.4794617062025463 [Eh]
	 Opposite-Spin Energy      =      -1.3246843274414937 [Eh]
	 Correlation Energy        =      -1.8041460336440400 [Eh]
	 Total Energy              =   -5450.3640883705184024 [Eh]

	 ================> DF-SCS-MP2 Energies <==================
	-----------------------------------------------------------
	 SCS Same-Spin Scale       =       0.3333333333333333 [-]
	 SCS Opposite-Spin Scale   =       1.2000000000000000 [-]
	 SCS Same-Spin Energy      =      -0.1598205687341821 [Eh]
	 SCS Opposite-Spin Energy  =      -1.5896211929297923 [Eh]
	 SCS Correlation Energy    =      -1.7494417616639744 [Eh]
	 SCS Total Energy          =   -5450.3093840985375209 [Eh]
	-----------------------------------------------------------

  Dipole Moment: [D]
     X:     0.5829      Y:    -0.6940      Z:     0.0000     Total:     0.9064

*** Psi4 exiting successfully. Buy a developer a beer!
