                               Psi4 1.4a3.dev225

  ==> Input File <==

--------------------------------------------------------------------------
#psi4
#
memory 32 gb

molecule  {
0 1
 Br       -3.5713820     0.2354630    -0.0000030
 Br        3.5713810    -0.2354650    -0.0000030
  O       -1.7063930    -1.8556370     0.0000010
  O        1.7063960     1.8556390     0.0000010
  C       -0.6782960     0.3467420     0.0000100
  C        0.6782960    -0.3467390     0.0000100
  C       -1.7955640    -0.6603920     0.0000020
  C        1.7806849     0.8598408     0.0000018
  H       -0.8053490     0.9949230    -0.8734510
  H       -0.8053540     0.9949110     0.8734800
  H        0.8053470    -0.9949190    -0.8734520
  H        0.8053530    -0.9949090     0.8734780
units angstrom
no_reorient  #important for SAPT in psi4, default
symmetry c1  #important for SAPT in psi4, default
}

set PROPERTIES_ORIGIN ["COM"]
properties('MP2/aug-cc-pvtz', properties = ['dipole'])
--------------------------------------------------------------------------

    Molecular point group: c1
  Charge       = 0
  Multiplicity = 1
  Basis Set: AUG-CC-PVTZ
    Blend: AUG-CC-PVTZ
  Basis Set: (AUG-CC-PVTZ AUX)
    Blend: AUG-CC-PVTZ-JKFIT

    Orbital Energies [Eh]
    ---------------------

    Doubly Occupied:

       1A   -490.045151     2A   -489.999126     3A    -65.185036
       4A    -65.139499     5A    -58.540239     6A    -58.538982
       7A    -58.538847     8A    -58.494450     9A    -58.493548
      10A    -58.493441    11A    -20.656689    12A    -20.621694
      13A    -11.432689    14A    -11.413836    15A    -11.307987
      16A    -11.301936    17A     -9.857690    18A     -9.812362
      19A     -7.468800    20A     -7.462828    21A     -7.462276
      22A     -7.422490    23A     -7.418105    24A     -7.417711
      25A     -3.212314    26A     -3.209407    27A     -3.208651
      28A     -3.201033    29A     -3.201015    30A     -3.165321
      31A     -3.163302    32A     -3.162733    33A     -3.157243
      34A     -3.157228    35A     -1.643318    36A     -1.462247
      37A     -1.134592    38A     -1.055110    39A     -1.009451
      40A     -0.947254    41A     -0.824364    42A     -0.796640
      43A     -0.763679    44A     -0.743147    45A     -0.707011
      46A     -0.685870    47A     -0.676456    48A     -0.653462
      49A     -0.596858    50A     -0.585626    51A     -0.553149
      52A     -0.457242    53A     -0.441045    54A     -0.439092
      55A     -0.409108    56A     -0.408841    57A     -0.394743

  @DF-RHF Final Energy: -5448.49355472063689

   => Energetics <=

    Nuclear Repulsion Energy =            770.8914830041582036
    One-Electron Energy =               -9115.2661449806746532
    Two-Electron Energy =                2895.8811072558801243
    Total Energy =                      -5448.4935547206368938
  Basis Set: (AUG-CC-PVTZ AUX)
    Blend: AUG-CC-PVTZ-RI
    Molecular point group: c1

    Geometry (in Angstrom), charge = 0, multiplicity = 1:

       Center              X                  Y                   Z               Mass
    ------------   -----------------  -----------------  -----------------  -----------------
         BR          -3.570643619209     0.225567508703    -0.000002584509    78.918337600000
         BR           3.572119380791    -0.245360491297    -0.000002584509    78.918337600000
         O           -1.705654619209    -1.865532491297     0.000001415491    15.994914619570
         O            1.707134380791     1.845743508703     0.000001415491    15.994914619570
         C           -0.677557619209     0.336846508703     0.000010415491    12.000000000000
         C            0.679034380791    -0.356634491297     0.000010415491    12.000000000000
         C           -1.794825619209    -0.670287491297     0.000002415491    12.000000000000
         C            1.781423280791     0.849945308703     0.000002215491    12.000000000000
         H           -0.804610619209     0.985027508703    -0.873450584509     1.007825032230
         H           -0.804615619209     0.985015508703     0.873480415491     1.007825032230
         H            0.806085380791    -1.004814491297    -0.873451584509     1.007825032230
         H            0.806091380791    -1.004804491297     0.873478415491     1.007825032230

  Basis Set: AUG-CC-PVTZ
    Blend: AUG-CC-PVTZ
  Basis Set: (AUG-CC-PVTZ AUX)
    Blend: AUG-CC-PVTZ-JKFIT
	 Reference Energy          =   -5448.4935547206368938 [Eh]
	 Singles Energy            =      -0.0000000000000000 [Eh]
	 Same-Spin Energy          =      -0.4763453726000131 [Eh]
	 Opposite-Spin Energy      =      -1.3179129479842862 [Eh]
	 Correlation Energy        =      -1.7942583205842992 [Eh]
	 Total Energy              =   -5450.2878130412209430 [Eh]

	 ================> DF-SCS-MP2 Energies <==================
	-----------------------------------------------------------
	 SCS Same-Spin Scale       =       0.3333333333333333 [-]
	 SCS Opposite-Spin Scale   =       1.2000000000000000 [-]
	 SCS Same-Spin Energy      =      -0.1587817908666710 [Eh]
	 SCS Opposite-Spin Energy  =      -1.5814955375811433 [Eh]
	 SCS Correlation Energy    =      -1.7402773284478144 [Eh]
	 SCS Total Energy          =   -5450.2338320490844126 [Eh]
	-----------------------------------------------------------

  Dipole Moment: [D]
     X:    -1.2401      Y:     1.4581      Z:     0.0000     Total:     1.9141

*** Psi4 exiting successfully. Buy a developer a beer!
