                               Psi4 1.4a3.dev225

  ==> Input File <==

--------------------------------------------------------------------------
#psi4
#
memory 32 gb

molecule  {
0 1
 Br       -3.5713820     0.2354630    -0.0000030
 Br        3.5713810    -0.2354650    -0.0000030
  O       -1.7063930    -1.8556370     0.0000010
  O        1.7063960     1.8556390     0.0000010
  C       -0.6782960     0.3467420     0.0000100
  C        0.6782960    -0.3467390     0.0000100
  C       -1.8327024    -0.6938695     0.0000017
  C        1.7955640     0.6603950     0.0000020
  H       -0.8053490     0.9949230    -0.8734510
  H       -0.8053540     0.9949110     0.8734800
  H        0.8053470    -0.9949190    -0.8734520
  H        0.8053530    -0.9949090     0.8734780
units angstrom
no_reorient  #important for SAPT in psi4, default
symmetry c1  #important for SAPT in psi4, default
}

set PROPERTIES_ORIGIN ["COM"]
properties('MP2/aug-cc-pvtz', properties = ['dipole'])
--------------------------------------------------------------------------

    Molecular point group: c1
  Charge       = 0
  Multiplicity = 1
  Basis Set: AUG-CC-PVTZ
    Blend: AUG-CC-PVTZ
  Basis Set: (AUG-CC-PVTZ AUX)
    Blend: AUG-CC-PVTZ-JKFIT

    Orbital Energies [Eh]
    ---------------------

    Doubly Occupied:

       1A   -490.042764     2A   -490.041089     3A    -65.182758
       4A    -65.180974     5A    -58.537941     6A    -58.536705
       7A    -58.536565     8A    -58.536178     9A    -58.534921
      10A    -58.534786    11A    -20.619476    12A    -20.616748
      13A    -11.427857    14A    -11.424639    15A    -11.296141
      16A    -11.295108    17A     -9.855546    18A     -9.853625
      19A     -7.466661    20A     -7.464740    21A     -7.460718
      22A     -7.460145    23A     -7.458768    24A     -7.458211
      25A     -3.210165    26A     -3.208254    27A     -3.207252
      28A     -3.206470    29A     -3.205348    30A     -3.204586
      31A     -3.198934    32A     -3.198915    33A     -3.196968
      34A     -3.196949    35A     -1.480669    36A     -1.457641
      37A     -1.131926    38A     -1.066886    39A     -1.038772
      40A     -0.957503    41A     -0.788210    42A     -0.784638
      43A     -0.714205    44A     -0.698686    45A     -0.683181
      46A     -0.654146    47A     -0.642228    48A     -0.625397
      49A     -0.576556    50A     -0.574108    51A     -0.544836
      52A     -0.457577    53A     -0.441693    54A     -0.440110
      55A     -0.436743    56A     -0.435978    57A     -0.429657

  @DF-RHF Final Energy: -5448.56881566389802

   => Energetics <=

    Nuclear Repulsion Energy =            771.1994359304246700
    One-Electron Energy =               -9115.7000103029004094
    Two-Electron Energy =                2895.9317587085779451
    Total Energy =                      -5448.5688156638980217
  Basis Set: (AUG-CC-PVTZ AUX)
    Blend: AUG-CC-PVTZ-RI
    Molecular point group: c1

    Geometry (in Angstrom), charge = 0, multiplicity = 1:

       Center              X                  Y                   Z               Mass
    ------------   -----------------  -----------------  -----------------  -----------------
         BR          -3.569539203329     0.237124214947    -0.000002579547    78.918337600000
         BR           3.573223796671    -0.233803785053    -0.000002579547    78.918337600000
         O           -1.704550203329    -1.853975785053     0.000001420453    15.994914619570
         O            1.708238796671     1.857300214947     0.000001420453    15.994914619570
         C           -0.676453203329     0.348403214947     0.000010420453    12.000000000000
         C            0.680138796671    -0.345077785053     0.000010420453    12.000000000000
         C           -1.830859603329    -0.692208285053     0.000002120453    12.000000000000
         C            1.797406796671     0.662056214947     0.000002420453    12.000000000000
         H           -0.803506203329     0.996584214947    -0.873450579547     1.007825032230
         H           -0.803511203329     0.996572214947     0.873480420453     1.007825032230
         H            0.807189796671    -0.993257785053    -0.873451579547     1.007825032230
         H            0.807195796671    -0.993247785053     0.873478420453     1.007825032230

  Basis Set: AUG-CC-PVTZ
    Blend: AUG-CC-PVTZ
  Basis Set: (AUG-CC-PVTZ AUX)
    Blend: AUG-CC-PVTZ-JKFIT
	 Reference Energy          =   -5448.5688156638980217 [Eh]
	 Singles Energy            =      -0.0000000000000000 [Eh]
	 Same-Spin Energy          =      -0.4813288462955381 [Eh]
	 Opposite-Spin Energy      =      -1.3290302266285987 [Eh]
	 Correlation Energy        =      -1.8103590729241368 [Eh]
	 Total Energy              =   -5450.3791747368222786 [Eh]

	 ================> DF-SCS-MP2 Energies <==================
	-----------------------------------------------------------
	 SCS Same-Spin Scale       =       0.3333333333333333 [-]
	 SCS Opposite-Spin Scale   =       1.2000000000000000 [-]
	 SCS Same-Spin Energy      =      -0.1604429487651793 [Eh]
	 SCS Opposite-Spin Energy  =      -1.5948362719543183 [Eh]
	 SCS Correlation Energy    =      -1.7552792207194976 [Eh]
	 SCS Total Energy          =   -5450.3240948846178071 [Eh]
	-----------------------------------------------------------

  Dipole Moment: [D]
     X:    -0.2083      Y:    -0.1294      Z:     0.0000     Total:     0.2452

*** Psi4 exiting successfully. Buy a developer a beer!
