                               Psi4 1.4a3.dev225

  ==> Input File <==

--------------------------------------------------------------------------
#psi4
#
memory 32 gb

molecule  {
0 1
 Br       -3.5713820     0.2354630    -0.0000030
 Br        3.5713810    -0.2354650    -0.0000030
  O       -1.7063930    -1.8556370     0.0000010
  O        1.7063960     1.8556390     0.0000010
  C       -0.6719043     0.3587358     0.0228655
  C        0.6782960    -0.3467390     0.0000100
  C       -1.7955640    -0.6603920     0.0000020
  C        1.7955640     0.6603950     0.0000020
  H       -0.8053490     0.9949230    -0.8734510
  H       -0.8053540     0.9949110     0.8734800
  H        0.8053470    -0.9949190    -0.8734520
  H        0.8053530    -0.9949090     0.8734780
units angstrom
no_reorient  #important for SAPT in psi4, default
symmetry c1  #important for SAPT in psi4, default
}

set PROPERTIES_ORIGIN ["COM"]
properties('MP2/aug-cc-pvtz', properties = ['dipole'])
--------------------------------------------------------------------------

    Molecular point group: c1
  Charge       = 0
  Multiplicity = 1
  Basis Set: AUG-CC-PVTZ
    Blend: AUG-CC-PVTZ
  Basis Set: (AUG-CC-PVTZ AUX)
    Blend: AUG-CC-PVTZ-JKFIT

    Orbital Energies [Eh]
    ---------------------

    Doubly Occupied:

       1A   -490.042065     2A   -490.042048     3A    -65.181946
       4A    -65.181930     5A    -58.537150     6A    -58.537134
       7A    -58.535893     8A    -58.535877     9A    -58.535757
      10A    -58.535741    11A    -20.618502    12A    -20.618123
      13A    -11.429560    14A    -11.429031    15A    -11.297848
      16A    -11.297219    17A     -9.854595    18A     -9.854579
      19A     -7.465708    20A     -7.465695    21A     -7.459737
      22A     -7.459719    23A     -7.459175    24A     -7.459161
      25A     -3.209223    26A     -3.209211    27A     -3.206321
      28A     -3.206304    29A     -3.205551    30A     -3.205540
      31A     -3.197935    32A     -3.197916    33A     -3.197916
      34A     -3.197898    35A     -1.459741    36A     -1.458386
      37A     -1.138851    38A     -1.067889    39A     -1.038132
      40A     -0.964915    41A     -0.787789    42A     -0.787256
      43A     -0.712371    44A     -0.703136    45A     -0.683538
      46A     -0.649690    47A     -0.639167    48A     -0.622813
      49A     -0.577736    50A     -0.571012    51A     -0.546417
      52A     -0.459959    53A     -0.442359    54A     -0.438812
      55A     -0.437131    56A     -0.435445    57A     -0.431584

  @DF-RHF Final Energy: -5448.56691602438059

   => Energetics <=

    Nuclear Repulsion Energy =            770.9165217979831368
    One-Electron Energy =               -9115.1226059143718885
    Two-Electron Energy =                2895.6391680920082763
    Total Energy =                      -5448.5669160243814986
  Basis Set: (AUG-CC-PVTZ AUX)
    Blend: AUG-CC-PVTZ-RI
    Molecular point group: c1

    Geometry (in Angstrom), charge = 0, multiplicity = 1:

       Center              X                  Y                   Z               Mass
    ------------   -----------------  -----------------  -----------------  -----------------
         BR          -3.571698989741     0.234868114090    -0.001136591329    78.918337600000
         BR           3.571064010259    -0.236059885910    -0.001136591329    78.918337600000
         O           -1.706709989741    -1.856231885910    -0.001132591329    15.994914619570
         O            1.706079010259     1.855044114090    -0.001132591329    15.994914619570
         C           -0.672221289741     0.358140914090     0.021731908671    12.000000000000
         C            0.677979010259    -0.347333885910    -0.001123591329    12.000000000000
         C           -1.795880989741    -0.660986885910    -0.001131591329    12.000000000000
         C            1.795247010259     0.659800114090    -0.001131591329    12.000000000000
         H           -0.805665989741     0.994328114090    -0.874584591329     1.007825032230
         H           -0.805670989741     0.994316114090     0.872346408671     1.007825032230
         H            0.805030010259    -0.995513885910    -0.874585591329     1.007825032230
         H            0.805036010259    -0.995503885910     0.872344408671     1.007825032230

  Basis Set: AUG-CC-PVTZ
    Blend: AUG-CC-PVTZ
  Basis Set: (AUG-CC-PVTZ AUX)
    Blend: AUG-CC-PVTZ-JKFIT
	 Reference Energy          =   -5448.5669160243805891 [Eh]
	 Singles Energy            =      -0.0000000000000000 [Eh]
	 Same-Spin Energy          =      -0.4822943951177732 [Eh]
	 Opposite-Spin Energy      =      -1.3310711101081067 [Eh]
	 Correlation Energy        =      -1.8133655052258799 [Eh]
	 Total Energy              =   -5450.3802815296066910 [Eh]

	 ================> DF-SCS-MP2 Energies <==================
	-----------------------------------------------------------
	 SCS Same-Spin Scale       =       0.3333333333333333 [-]
	 SCS Opposite-Spin Scale   =       1.2000000000000000 [-]
	 SCS Same-Spin Energy      =      -0.1607647983725911 [Eh]
	 SCS Opposite-Spin Energy  =      -1.5972853321297280 [Eh]
	 SCS Correlation Energy    =      -1.7580501305023191 [Eh]
	 SCS Total Energy          =   -5450.3249661548825316 [Eh]
	-----------------------------------------------------------

  Dipole Moment: [D]
     X:    -0.0134      Y:    -0.0115      Z:     0.0107     Total:     0.0206

*** Psi4 exiting successfully. Buy a developer a beer!
