                               Psi4 1.4a3.dev225

  ==> Input File <==

--------------------------------------------------------------------------
#psi4
#
memory 32 gb

molecule  {
0 1
 Br       -3.5713820     0.2354630    -0.0000030
 Br        3.5713810    -0.2354650    -0.0000030
  O       -1.7063930    -1.8556370     0.0000010
  O        1.7063960     1.8556390     0.0000010
  C       -0.6782960     0.3467420     0.0000100
  C        0.6782960    -0.3467390     0.0000100
  C       -1.7955640    -0.6603920     0.0000020
  C        1.8030036     0.5606721     0.0000021
  H       -0.8053490     0.9949230    -0.8734510
  H       -0.8053540     0.9949110     0.8734800
  H        0.8053470    -0.9949190    -0.8734520
  H        0.8053530    -0.9949090     0.8734780
units angstrom
no_reorient  #important for SAPT in psi4, default
symmetry c1  #important for SAPT in psi4, default
}

set PROPERTIES_ORIGIN ["COM"]
properties('MP2/aug-cc-pvtz', properties = ['dipole'])
--------------------------------------------------------------------------

    Molecular point group: c1
  Charge       = 0
  Multiplicity = 1
  Basis Set: AUG-CC-PVTZ
    Blend: AUG-CC-PVTZ
  Basis Set: (AUG-CC-PVTZ AUX)
    Blend: AUG-CC-PVTZ-JKFIT

    Orbital Energies [Eh]
    ---------------------

    Doubly Occupied:

       1A   -490.058277     2A   -490.041837     3A    -65.198027
       4A    -65.181706     5A    -58.553306     6A    -58.551945
       7A    -58.551789     8A    -58.536916     9A    -58.535650
      10A    -58.535515    11A    -20.617445    12A    -20.601365
      13A    -11.433100    14A    -11.428570    15A    -11.297114
      16A    -11.294540    17A     -9.870700    18A     -9.854343
      19A     -7.482170    20A     -7.475663    21A     -7.474991
      22A     -7.465478    23A     -7.459469    24A     -7.458909
      25A     -3.225953    26A     -3.222724    27A     -3.221821
      28A     -3.213520    29A     -3.213497    30A     -3.209005
      31A     -3.206082    32A     -3.205316    33A     -3.197648
      34A     -3.197630    35A     -1.458573    36A     -1.385962
      37A     -1.145561    38A     -1.080250    39A     -1.045366
      40A     -0.976730    41A     -0.788169    42A     -0.781270
      43A     -0.702574    44A     -0.702069    45A     -0.677856
      46A     -0.638299    47A     -0.626506    48A     -0.616916
      49A     -0.565221    50A     -0.557264    51A     -0.523141
      52A     -0.469871    53A     -0.449397    54A     -0.444415
      55A     -0.440937    56A     -0.437506    57A     -0.434307

  @DF-RHF Final Energy: -5448.54250655430860

   => Energetics <=

    Nuclear Repulsion Energy =            771.5757557496255004
    One-Electron Energy =               -9116.1961651382280252
    Two-Electron Energy =                2896.0779028342944912
    Total Energy =                      -5448.5425065543076926
  Basis Set: (AUG-CC-PVTZ AUX)
    Blend: AUG-CC-PVTZ-RI
    Molecular point group: c1

    Geometry (in Angstrom), charge = 0, multiplicity = 1:

       Center              X                  Y                   Z               Mass
    ------------   -----------------  -----------------  -----------------  -----------------
         BR          -3.571750982275     0.240411042103    -0.000002599393    78.918337600000
         BR           3.571012017725    -0.230516957897    -0.000002599393    78.918337600000
         O           -1.706761982275    -1.850688957897     0.000001400607    15.994914619570
         O            1.706027017725     1.860587042103     0.000001400607    15.994914619570
         C           -0.678664982275     0.351690042103     0.000010400607    12.000000000000
         C            0.677927017725    -0.341790957897     0.000010400607    12.000000000000
         C           -1.795932982275    -0.655443957897     0.000002400607    12.000000000000
         C            1.802634617725     0.565620142103     0.000002500607    12.000000000000
         H           -0.805717982275     0.999871042103    -0.873450599393     1.007825032230
         H           -0.805722982275     0.999859042103     0.873480400607     1.007825032230
         H            0.804978017725    -0.989970957897    -0.873451599393     1.007825032230
         H            0.804984017725    -0.989960957897     0.873478400607     1.007825032230

  Basis Set: AUG-CC-PVTZ
    Blend: AUG-CC-PVTZ
  Basis Set: (AUG-CC-PVTZ AUX)
    Blend: AUG-CC-PVTZ-JKFIT
	 Reference Energy          =   -5448.5425065543086021 [Eh]
	 Singles Energy            =      -0.0000000000000000 [Eh]
	 Same-Spin Energy          =      -0.4855130123192137 [Eh]
	 Opposite-Spin Energy      =      -1.3380288319101705 [Eh]
	 Correlation Energy        =      -1.8235418442293843 [Eh]
	 Total Energy              =   -5450.3660483985377141 [Eh]

	 ================> DF-SCS-MP2 Energies <==================
	-----------------------------------------------------------
	 SCS Same-Spin Scale       =       0.3333333333333333 [-]
	 SCS Opposite-Spin Scale   =       1.2000000000000000 [-]
	 SCS Same-Spin Energy      =      -0.1618376707730712 [Eh]
	 SCS Opposite-Spin Energy  =      -1.6056345982922047 [Eh]
	 SCS Correlation Energy    =      -1.7674722690652760 [Eh]
	 SCS Total Energy          =   -5450.3099788233739673 [Eh]
	-----------------------------------------------------------

  Dipole Moment: [D]
     X:     0.4763      Y:    -0.5727      Z:     0.0000     Total:     0.7449

*** Psi4 exiting successfully. Buy a developer a beer!
