                               Psi4 1.4a3.dev225

  ==> Input File <==

--------------------------------------------------------------------------
#psi4
#
memory 32 gb

molecule  {
0 1
 Br       -3.5713820     0.2354630    -0.0000030
 Br        3.5713810    -0.2354650    -0.0000030
  O       -1.7063930    -1.8556370     0.0000010
  O        1.7063960     1.8556390     0.0000010
  C       -0.6782960     0.3467420     0.0000100
  C        0.6782960    -0.3467390     0.0000100
  C       -1.7955640    -0.6603920     0.0000020
  C        1.7757574     0.6809993     0.0440452
  H       -0.8053490     0.9949230    -0.8734510
  H       -0.8053540     0.9949110     0.8734800
  H        0.8053470    -0.9949190    -0.8734520
  H        0.8053530    -0.9949090     0.8734780
units angstrom
no_reorient  #important for SAPT in psi4, default
symmetry c1  #important for SAPT in psi4, default
}

set PROPERTIES_ORIGIN ["COM"]
properties('MP2/aug-cc-pvtz', properties = ['dipole'])
--------------------------------------------------------------------------

    Molecular point group: c1
  Charge       = 0
  Multiplicity = 1
  Basis Set: AUG-CC-PVTZ
    Blend: AUG-CC-PVTZ
  Basis Set: (AUG-CC-PVTZ AUX)
    Blend: AUG-CC-PVTZ-JKFIT

    Orbital Energies [Eh]
    ---------------------

    Doubly Occupied:

       1A   -490.043076     2A   -490.035380     3A    -65.182953
       4A    -65.175270     5A    -58.538159     6A    -58.536898
       7A    -58.536763     8A    -58.530454     9A    -58.529229
      10A    -58.529102    11A    -20.624054    12A    -20.619178
      13A    -11.430158    14A    -11.429728    15A    -11.299546
      16A    -11.298703    17A     -9.855598    18A     -9.847865
      19A     -7.466720    20A     -7.460730    21A     -7.460173
      22A     -7.458847    23A     -7.453061    24A     -7.452546
      25A     -3.210241    26A     -3.207327    27A     -3.206563
      28A     -3.202267    29A     -3.199486    30A     -3.198921
      31A     -3.198903    32A     -3.198774    33A     -3.191380
      34A     -3.191363    35A     -1.478079    36A     -1.460041
      37A     -1.141216    38A     -1.066072    39A     -1.034128
      40A     -0.965566    41A     -0.791025    42A     -0.788891
      43A     -0.717978    44A     -0.704886    45A     -0.686619
      46A     -0.655226    47A     -0.641912    48A     -0.627675
      49A     -0.578738    50A     -0.576370    51A     -0.548274
      52A     -0.459430    53A     -0.440695    54A     -0.439032
      55A     -0.434115    56A     -0.432897    57A     -0.428507

  @DF-RHF Final Energy: -5448.56818003264834

   => Energetics <=

    Nuclear Repulsion Energy =            770.8201522180523853
    One-Electron Energy =               -9114.9830914978501823
    Two-Electron Energy =                2895.5947592471502503
    Total Energy =                      -5448.5681800326483426
  Basis Set: (AUG-CC-PVTZ AUX)
    Blend: AUG-CC-PVTZ-RI
    Molecular point group: c1

    Geometry (in Angstrom), charge = 0, multiplicity = 1:

       Center              X                  Y                   Z               Mass
    ------------   -----------------  -----------------  -----------------  -----------------
         BR          -3.570399136712     0.234440896121    -0.002187838778    78.918337600000
         BR           3.572363863288    -0.236487103879    -0.002187838778    78.918337600000
         O           -1.705410136712    -1.856659103879    -0.002183838778    15.994914619570
         O            1.707378863288     1.854616896121    -0.002183838778    15.994914619570
         C           -0.677313136712     0.345719896121    -0.002174838778    12.000000000000
         C            0.679278863288    -0.347761103879    -0.002174838778    12.000000000000
         C           -1.794581136712    -0.661414103879    -0.002182838778    12.000000000000
         C            1.776740263288     0.679977196121     0.041860361222    12.000000000000
         H           -0.804366136712     0.993900896121    -0.875635838778     1.007825032230
         H           -0.804371136712     0.993888896121     0.871295161222     1.007825032230
         H            0.806329863288    -0.995941103879    -0.875636838778     1.007825032230
         H            0.806335863288    -0.995931103879     0.871293161222     1.007825032230

  Basis Set: AUG-CC-PVTZ
    Blend: AUG-CC-PVTZ
  Basis Set: (AUG-CC-PVTZ AUX)
    Blend: AUG-CC-PVTZ-JKFIT
	 Reference Energy          =   -5448.5681800326483426 [Eh]
	 Singles Energy            =      -0.0000000000000000 [Eh]
	 Same-Spin Energy          =      -0.4818859387855267 [Eh]
	 Opposite-Spin Energy      =      -1.3300010500980151 [Eh]
	 Correlation Energy        =      -1.8118869888835418 [Eh]
	 Total Energy              =   -5450.3800670215314312 [Eh]

	 ================> DF-SCS-MP2 Energies <==================
	-----------------------------------------------------------
	 SCS Same-Spin Scale       =       0.3333333333333333 [-]
	 SCS Opposite-Spin Scale   =       1.2000000000000000 [-]
	 SCS Same-Spin Energy      =      -0.1606286462618422 [Eh]
	 SCS Opposite-Spin Energy  =      -1.5960012601176181 [Eh]
	 SCS Correlation Energy    =      -1.7566299063794604 [Eh]
	 SCS Total Energy          =   -5450.3248099390275456 [Eh]
	-----------------------------------------------------------

  Dipole Moment: [D]
     X:    -0.2931      Y:     0.1780      Z:     0.0252     Total:     0.3438

*** Psi4 exiting successfully. Buy a developer a beer!
