                               Psi4 1.4a3.dev225

  ==> Input File <==

--------------------------------------------------------------------------
#psi4
#
memory 32 gb

molecule  {
0 1
 Br       -3.5713820     0.2354630    -0.0000030
 Br        3.5713810    -0.2354650    -0.0000030
  O       -1.7063930    -1.8556370     0.0000010
  O        1.7063960     1.8556390     0.0000010
  C       -0.6782960     0.3467420     0.0000100
  C        0.6782960    -0.3467390     0.0000100
  C       -1.8104436    -0.4609463     0.0000022
  C        1.7955640     0.6603950     0.0000020
  H       -0.8053490     0.9949230    -0.8734510
  H       -0.8053540     0.9949110     0.8734800
  H        0.8053470    -0.9949190    -0.8734520
  H        0.8053530    -0.9949090     0.8734780
units angstrom
no_reorient  #important for SAPT in psi4, default
symmetry c1  #important for SAPT in psi4, default
}

set PROPERTIES_ORIGIN ["COM"]
properties('MP2/aug-cc-pvtz', properties = ['dipole'])
--------------------------------------------------------------------------

    Molecular point group: c1
  Charge       = 0
  Multiplicity = 1
  Basis Set: AUG-CC-PVTZ
    Blend: AUG-CC-PVTZ
  Basis Set: (AUG-CC-PVTZ AUX)
    Blend: AUG-CC-PVTZ-JKFIT

    Orbital Energies [Eh]
    ---------------------

    Doubly Occupied:

       1A   -490.070968     2A   -490.041986     3A    -65.210670
       4A    -65.181844     5A    -58.565984     6A    -58.564576
       7A    -58.564391     8A    -58.537059     9A    -58.535787
      10A    -58.535651    11A    -20.617363    12A    -20.584593
      13A    -11.435289    14A    -11.428591    15A    -11.297776
      16A    -11.293183    17A     -9.883454    18A     -9.854472
      19A     -7.495172    20A     -7.488340    21A     -7.487512
      22A     -7.465621    23A     -7.459586    24A     -7.459025
      25A     -3.239160    26A     -3.235714    27A     -3.234628
      28A     -3.225944    29A     -3.225913    30A     -3.209157
      31A     -3.206222    32A     -3.205454    33A     -3.197751
      34A     -3.197733    35A     -1.458660    36A     -1.327753
      37A     -1.153200    38A     -1.091230    39A     -1.051630
      40A     -0.987445    41A     -0.789759    42A     -0.778249
      43A     -0.705405    44A     -0.699892    45A     -0.672608
      46A     -0.632012    47A     -0.618343    48A     -0.617672
      49A     -0.556013    50A     -0.548357    51A     -0.501509
      52A     -0.476457    53A     -0.451435    54A     -0.441835
      55A     -0.439660    56A     -0.437559    57A     -0.434592

  @DF-RHF Final Energy: -5448.49848997065510

   => Energetics <=

    Nuclear Repulsion Energy =            772.2573974960145051
    One-Electron Energy =               -9117.2960970325220842
    Two-Electron Energy =                2896.5402095658523649
    Total Energy =                      -5448.4984899706560100
  Basis Set: (AUG-CC-PVTZ AUX)
    Blend: AUG-CC-PVTZ-RI
    Molecular point group: c1

    Geometry (in Angstrom), charge = 0, multiplicity = 1:

       Center              X                  Y                   Z               Mass
    ------------   -----------------  -----------------  -----------------  -----------------
         BR          -3.570643594401     0.225567513665    -0.000002604355    78.918337600000
         BR           3.572119405599    -0.245360486335    -0.000002604355    78.918337600000
         O           -1.705654594401    -1.865532486335     0.000001395645    15.994914619570
         O            1.707134405599     1.845743513665     0.000001395645    15.994914619570
         C           -0.677557594401     0.336846513665     0.000010395645    12.000000000000
         C            0.679034405599    -0.356634486335     0.000010395645    12.000000000000
         C           -1.809705194401    -0.470841786335     0.000002595645    12.000000000000
         C            1.796302405599     0.650499513665     0.000002395645    12.000000000000
         H           -0.804610594401     0.985027513665    -0.873450604355     1.007825032230
         H           -0.804615594401     0.985015513665     0.873480395645     1.007825032230
         H            0.806085405599    -1.004814486335    -0.873451604355     1.007825032230
         H            0.806091405599    -1.004804486335     0.873478395645     1.007825032230

  Basis Set: AUG-CC-PVTZ
    Blend: AUG-CC-PVTZ
  Basis Set: (AUG-CC-PVTZ AUX)
    Blend: AUG-CC-PVTZ-JKFIT
	 Reference Energy          =   -5448.4984899706551005 [Eh]
	 Singles Energy            =      -0.0000000000000000 [Eh]
	 Same-Spin Energy          =      -0.4890499125352468 [Eh]
	 Opposite-Spin Energy      =      -1.3453130151839252 [Eh]
	 Correlation Energy        =      -1.8343629277191720 [Eh]
	 Total Energy              =   -5450.3328528983738579 [Eh]

	 ================> DF-SCS-MP2 Energies <==================
	-----------------------------------------------------------
	 SCS Same-Spin Scale       =       0.3333333333333333 [-]
	 SCS Opposite-Spin Scale   =       1.2000000000000000 [-]
	 SCS Same-Spin Energy      =      -0.1630166375117489 [Eh]
	 SCS Opposite-Spin Energy  =      -1.6143756182207103 [Eh]
	 SCS Correlation Energy    =      -1.7773922557324593 [Eh]
	 SCS Total Energy          =   -5450.2758822263876937 [Eh]
	-----------------------------------------------------------

  Dipole Moment: [D]
     X:    -0.8305      Y:     0.9982      Z:     0.0000     Total:     1.2985

*** Psi4 exiting successfully. Buy a developer a beer!
