                               Psi4 1.4a3.dev225

  ==> Input File <==

--------------------------------------------------------------------------
#psi4
#
memory 32 gb

molecule  {
0 1
 Br       -3.5713820     0.2354630    -0.0000030
 Br        3.5713810    -0.2354650    -0.0000030
  O       -1.7063930    -1.8556370     0.0000010
  O        1.7063960     1.8556390     0.0000010
  C       -0.6782960     0.3467420     0.0000100
  C        0.6782960    -0.3467390     0.0000100
  C       -1.7955640    -0.6603920     0.0000020
  C        1.7918442     0.7102564     0.0000020
  H       -0.8053490     0.9949230    -0.8734510
  H       -0.8053540     0.9949110     0.8734800
  H        0.8053470    -0.9949190    -0.8734520
  H        0.8053530    -0.9949090     0.8734780
units angstrom
no_reorient  #important for SAPT in psi4, default
symmetry c1  #important for SAPT in psi4, default
}

set PROPERTIES_ORIGIN ["COM"]
properties('MP2/aug-cc-pvtz', properties = ['dipole'])
--------------------------------------------------------------------------

    Molecular point group: c1
  Charge       = 0
  Multiplicity = 1
  Basis Set: AUG-CC-PVTZ
    Blend: AUG-CC-PVTZ
  Basis Set: (AUG-CC-PVTZ AUX)
    Blend: AUG-CC-PVTZ-JKFIT

    Orbital Energies [Eh]
    ---------------------

    Doubly Occupied:

       1A   -490.042700     2A   -490.032755     3A    -65.182581
       4A    -65.172730     5A    -58.537786     6A    -58.536527
       7A    -58.536392     8A    -58.527885     9A    -58.526696
      10A    -58.526570    11A    -20.627096    12A    -20.618742
      13A    -11.429750    14A    -11.426379    15A    -11.299454
      16A    -11.297977    17A     -9.855230    18A     -9.845398
      19A     -7.466348    20A     -7.460367    21A     -7.459810
      22A     -7.456306    23A     -7.450655    24A     -7.450145
      25A     -3.209865    26A     -3.206955    27A     -3.206193
      28A     -3.199671    29A     -3.198563    30A     -3.198545
      31A     -3.196954    32A     -3.196246    33A     -3.189052
      34A     -3.189035    35A     -1.501101    36A     -1.459580
      37A     -1.137112    38A     -1.063338    39A     -1.033269
      40A     -0.960580    41A     -0.792664    42A     -0.788284
      43A     -0.721743    44A     -0.703931    45A     -0.687149
      46A     -0.659500    47A     -0.644837    48A     -0.633546
      49A     -0.582560    50A     -0.578656    51A     -0.548663
      52A     -0.457897    53A     -0.438785    54A     -0.438694
      55A     -0.432670    56A     -0.432232    57A     -0.426089

  @DF-RHF Final Energy: -5448.56907070551006

   => Energetics <=

    Nuclear Repulsion Energy =            770.8842844240692784
    One-Electron Energy =               -9115.1462309652761178
    Two-Electron Energy =                2895.6928758356953040
    Total Energy =                      -5448.5690707055109669
  Basis Set: (AUG-CC-PVTZ AUX)
    Blend: AUG-CC-PVTZ-RI
    Molecular point group: c1

    Geometry (in Angstrom), charge = 0, multiplicity = 1:

       Center              X                  Y                   Z               Mass
    ------------   -----------------  -----------------  -----------------  -----------------
         BR          -3.571197298261     0.232989277884    -0.000002594432    78.918337600000
         BR           3.571565701739    -0.237938722116    -0.000002594432    78.918337600000
         O           -1.706208298261    -1.858110722116     0.000001405568    15.994914619570
         O            1.706580701739     1.853165277884     0.000001405568    15.994914619570
         C           -0.678111298261     0.344268277884     0.000010405568    12.000000000000
         C            0.678480701739    -0.349212722116     0.000010405568    12.000000000000
         C           -1.795379298261    -0.662865722116     0.000002405568    12.000000000000
         C            1.792028901739     0.707782677884     0.000002405568    12.000000000000
         H           -0.805164298261     0.992449277884    -0.873450594432     1.007825032230
         H           -0.805169298261     0.992437277884     0.873480405568     1.007825032230
         H            0.805531701739    -0.997392722116    -0.873451594432     1.007825032230
         H            0.805537701739    -0.997382722116     0.873478405568     1.007825032230

  Basis Set: AUG-CC-PVTZ
    Blend: AUG-CC-PVTZ
  Basis Set: (AUG-CC-PVTZ AUX)
    Blend: AUG-CC-PVTZ-JKFIT
	 Reference Energy          =   -5448.5690707055100575 [Eh]
	 Singles Energy            =      -0.0000000000000000 [Eh]
	 Same-Spin Energy          =      -0.4809121535644698 [Eh]
	 Opposite-Spin Energy      =      -1.3279021993593421 [Eh]
	 Correlation Energy        =      -1.8088143529238119 [Eh]
	 Total Energy              =   -5450.3778850584340034 [Eh]

	 ================> DF-SCS-MP2 Energies <==================
	-----------------------------------------------------------
	 SCS Same-Spin Scale       =       0.3333333333333333 [-]
	 SCS Opposite-Spin Scale   =       1.2000000000000000 [-]
	 SCS Same-Spin Energy      =      -0.1603040511881566 [Eh]
	 SCS Opposite-Spin Energy  =      -1.5934826392312105 [Eh]
	 SCS Correlation Energy    =      -1.7537866904193671 [Eh]
	 SCS Total Energy          =   -5450.3228573959295318 [Eh]
	-----------------------------------------------------------

  Dipole Moment: [D]
     X:    -0.2802      Y:     0.3350      Z:     0.0000     Total:     0.4368

*** Psi4 exiting successfully. Buy a developer a beer!
