                               Psi4 1.4a3.dev225

  ==> Input File <==

--------------------------------------------------------------------------
#psi4
#
memory 32 gb

molecule  {
0 1
 Br       -3.5713820     0.2354630    -0.0000030
 Br        3.5713810    -0.2354650    -0.0000030
  O       -1.7063930    -1.8556370     0.0000010
  O        1.7063960     1.8556390     0.0000010
  C       -0.6782960     0.3467420     0.0000100
  C        0.6782960    -0.3467390     0.0000100
  C       -1.7955640    -0.6603920     0.0000020
  C        1.9741285     0.5703132     0.0000015
  H       -0.8053490     0.9949230    -0.8734510
  H       -0.8053540     0.9949110     0.8734800
  H        0.8053470    -0.9949190    -0.8734520
  H        0.8053530    -0.9949090     0.8734780
units angstrom
no_reorient  #important for SAPT in psi4, default
symmetry c1  #important for SAPT in psi4, default
}

set PROPERTIES_ORIGIN ["COM"]
properties('MP2/aug-cc-pvtz', properties = ['dipole'])
--------------------------------------------------------------------------

    Molecular point group: c1
  Charge       = 0
  Multiplicity = 1
  Basis Set: AUG-CC-PVTZ
    Blend: AUG-CC-PVTZ
  Basis Set: (AUG-CC-PVTZ AUX)
    Blend: AUG-CC-PVTZ-JKFIT

    Orbital Energies [Eh]
    ---------------------

    Doubly Occupied:

       1A   -490.078920     2A   -490.037033     3A    -65.219497
       4A    -65.176919     5A    -58.574622     6A    -58.573428
       7A    -58.573199     8A    -58.532124     9A    -58.530867
      10A    -58.530733    11A    -20.611401    12A    -20.589571
      13A    -11.426703    14A    -11.422967    15A    -11.290398
      16A    -11.288322    17A     -9.893465    18A     -9.849569
      19A     -7.505243    20A     -7.498658    21A     -7.497644
      22A     -7.460690    23A     -7.454713    24A     -7.454157
      25A     -3.249207    26A     -3.245656    27A     -3.244348
      28A     -3.236378    29A     -3.236333    30A     -3.204204
      31A     -3.201296    32A     -3.200534    33A     -3.192910
      34A     -3.192892    35A     -1.452584    36A     -1.368542
      37A     -1.133000    38A     -1.105949    39A     -1.040709
      40A     -0.952118    41A     -0.783831    42A     -0.770574
      43A     -0.694342    44A     -0.686477    45A     -0.665352
      46A     -0.635362    47A     -0.622813    48A     -0.604743
      49A     -0.559996    50A     -0.552739    51A     -0.523956
      52A     -0.465759    53A     -0.454801    54A     -0.452849
      55A     -0.440322    56A     -0.432895    57A     -0.429632

  @DF-RHF Final Energy: -5448.52569364995634

   => Energetics <=

    Nuclear Repulsion Energy =            773.1948784590975947
    One-Electron Energy =               -9119.2332441662583733
    Two-Electron Energy =                2897.5126720572043268
    Total Energy =                      -5448.5256936499572475
  Basis Set: (AUG-CC-PVTZ AUX)
    Blend: AUG-CC-PVTZ-RI
    Molecular point group: c1

    Geometry (in Angstrom), charge = 0, multiplicity = 1:

       Center              X                  Y                   Z               Mass
    ------------   -----------------  -----------------  -----------------  -----------------
         BR          -3.580241503404     0.239932689956    -0.000002569624    78.918337600000
         BR           3.562521496596    -0.230995310044    -0.000002569624    78.918337600000
         O           -1.715252503404    -1.851167310044     0.000001430376    15.994914619570
         O            1.697536496596     1.860108689956     0.000001430376    15.994914619570
         C           -0.687155503404     0.351211689956     0.000010430376    12.000000000000
         C            0.669436496596    -0.342269310044     0.000010430376    12.000000000000
         C           -1.804423503404    -0.655922310044     0.000002430376    12.000000000000
         C            1.965268996596     0.574782889956     0.000001930376    12.000000000000
         H           -0.814208503404     0.999392689956    -0.873450569624     1.007825032230
         H           -0.814213503404     0.999380689956     0.873480430376     1.007825032230
         H            0.796487496596    -0.990449310044    -0.873451569624     1.007825032230
         H            0.796493496596    -0.990439310044     0.873478430376     1.007825032230

  Basis Set: AUG-CC-PVTZ
    Blend: AUG-CC-PVTZ
  Basis Set: (AUG-CC-PVTZ AUX)
    Blend: AUG-CC-PVTZ-JKFIT
	 Reference Energy          =   -5448.5256936499563380 [Eh]
	 Singles Energy            =      -0.0000000000000000 [Eh]
	 Same-Spin Energy          =      -0.4860908847377021 [Eh]
	 Opposite-Spin Energy      =      -1.3391921579164363 [Eh]
	 Correlation Energy        =      -1.8252830426541384 [Eh]
	 Total Energy              =   -5450.3509766926108568 [Eh]

	 ================> DF-SCS-MP2 Energies <==================
	-----------------------------------------------------------
	 SCS Same-Spin Scale       =       0.3333333333333333 [-]
	 SCS Opposite-Spin Scale   =       1.2000000000000000 [-]
	 SCS Same-Spin Energy      =      -0.1620302949125673 [Eh]
	 SCS Opposite-Spin Energy  =      -1.6070305894997234 [Eh]
	 SCS Correlation Energy    =      -1.7690608844122908 [Eh]
	 SCS Total Energy          =   -5450.2947545343686215 [Eh]
	-----------------------------------------------------------

  Dipole Moment: [D]
     X:     1.8897      Y:    -0.8308      Z:     0.0000     Total:     2.0643

*** Psi4 exiting successfully. Buy a developer a beer!
