                               Psi4 1.4a3.dev225

  ==> Input File <==

--------------------------------------------------------------------------
#psi4
#
memory 32 gb

molecule  {
0 1
 Br       -3.5713820     0.2354630    -0.0000030
 Br        3.5713810    -0.2354650    -0.0000030
  O       -1.7063930    -1.8556370     0.0000010
  O        1.7063960     1.8556390     0.0000010
  C       -0.6502698     0.3934134     0.0913623
  C        0.6782960    -0.3467390     0.0000100
  C       -1.7955640    -0.6603920     0.0000020
  C        1.7955640     0.6603950     0.0000020
  H       -0.8053490     0.9949230    -0.8734510
  H       -0.8053540     0.9949110     0.8734800
  H        0.8053470    -0.9949190    -0.8734520
  H        0.8053530    -0.9949090     0.8734780
units angstrom
no_reorient  #important for SAPT in psi4, default
symmetry c1  #important for SAPT in psi4, default
}

set PROPERTIES_ORIGIN ["COM"]
properties('MP2/aug-cc-pvtz', properties = ['dipole'])
--------------------------------------------------------------------------

    Molecular point group: c1
  Charge       = 0
  Multiplicity = 1
  Basis Set: AUG-CC-PVTZ
    Blend: AUG-CC-PVTZ
  Basis Set: (AUG-CC-PVTZ AUX)
    Blend: AUG-CC-PVTZ-JKFIT

    Orbital Energies [Eh]
    ---------------------

    Doubly Occupied:

       1A   -490.041573     2A   -490.041495     3A    -65.181468
       4A    -65.181385     5A    -58.536667     6A    -58.536582
       7A    -58.535418     8A    -58.535334     9A    -58.535282
      10A    -58.535195    11A    -20.619284    12A    -20.618237
      13A    -11.430641    14A    -11.428758    15A    -11.299041
      16A    -11.298387    17A     -9.854128    18A     -9.854042
      19A     -7.465225    20A     -7.465132    21A     -7.459284
      22A     -7.459200    23A     -7.458723    24A     -7.458625
      25A     -3.208730    26A     -3.208637    27A     -3.205840
      28A     -3.205758    29A     -3.205074    30A     -3.204975
      31A     -3.197497    32A     -3.197478    33A     -3.197410
      34A     -3.197391    35A     -1.459785    36A     -1.458284
      37A     -1.138002    38A     -1.066046    39A     -1.037964
      40A     -0.963069    41A     -0.791088    42A     -0.786317
      43A     -0.713597    44A     -0.703588    45A     -0.682389
      46A     -0.646210    47A     -0.639908    48A     -0.623843
      49A     -0.588116    50A     -0.570586    51A     -0.543380
      52A     -0.458396    53A     -0.440479    54A     -0.438407
      55A     -0.436858    56A     -0.434956    57A     -0.429869

  @DF-RHF Final Energy: -5448.55498457332214

   => Energetics <=

    Nuclear Repulsion Energy =            770.4664574198083073
    One-Electron Energy =               -9114.2248255094000342
    Two-Electron Energy =                2895.2033835162692412
    Total Energy =                      -5448.5549845733221446
  Basis Set: (AUG-CC-PVTZ AUX)
    Blend: AUG-CC-PVTZ-RI
    Molecular point group: c1

    Geometry (in Angstrom), charge = 0, multiplicity = 1:

       Center              X                  Y                   Z               Mass
    ------------   -----------------  -----------------  -----------------  -----------------
         BR          -3.572772405588     0.233147552702    -0.004535123791    78.918337600000
         BR           3.569990594412    -0.237780447298    -0.004535123791    78.918337600000
         O           -1.707783405588    -1.857952447298    -0.004531123791    15.994914619570
         O            1.705005594412     1.853323552702    -0.004531123791    15.994914619570
         C           -0.651660205588     0.391097952702     0.086830176209    12.000000000000
         C            0.676905594412    -0.349054447298    -0.004522123791    12.000000000000
         C           -1.796954405588    -0.662707447298    -0.004530123791    12.000000000000
         C            1.794173594412     0.658079552702    -0.004530123791    12.000000000000
         H           -0.806739405588     0.992607552702    -0.877983123791     1.007825032230
         H           -0.806744405588     0.992595552702     0.868947876209     1.007825032230
         H            0.803956594412    -0.997234447298    -0.877984123791     1.007825032230
         H            0.803962594412    -0.997224447298     0.868945876209     1.007825032230

  Basis Set: AUG-CC-PVTZ
    Blend: AUG-CC-PVTZ
  Basis Set: (AUG-CC-PVTZ AUX)
    Blend: AUG-CC-PVTZ-JKFIT
	 Reference Energy          =   -5448.5549845733221446 [Eh]
	 Singles Energy            =      -0.0000000000000000 [Eh]
	 Same-Spin Energy          =      -0.4822829718768131 [Eh]
	 Opposite-Spin Energy      =      -1.3313755186527685 [Eh]
	 Correlation Energy        =      -1.8136584905295816 [Eh]
	 Total Energy              =   -5450.3686430638517777 [Eh]

	 ================> DF-SCS-MP2 Energies <==================
	-----------------------------------------------------------
	 SCS Same-Spin Scale       =       0.3333333333333333 [-]
	 SCS Opposite-Spin Scale   =       1.2000000000000000 [-]
	 SCS Same-Spin Energy      =      -0.1607609906256044 [Eh]
	 SCS Opposite-Spin Energy  =      -1.5976506223833222 [Eh]
	 SCS Correlation Energy    =      -1.7584116130089267 [Eh]
	 SCS Total Energy          =   -5450.3133961863313743 [Eh]
	-----------------------------------------------------------

  Dipole Moment: [D]
     X:    -0.0413      Y:    -0.0463      Z:     0.0415     Total:     0.0746

*** Psi4 exiting successfully. Buy a developer a beer!
