                               Psi4 1.4a3.dev225

  ==> Input File <==

--------------------------------------------------------------------------
#psi4
#
memory 32 gb

molecule  {
0 1
 Br       -3.5713820     0.2354630    -0.0000030
 Br        3.5713810    -0.2354650    -0.0000030
  O       -1.7063930    -1.8556370     0.0000010
  O        1.7063960     1.8556390     0.0000010
  C       -0.6782960     0.3467420     0.0000100
  C        0.6782960    -0.3467390     0.0000100
  C       -1.7955640    -0.6603920     0.0000020
  C        1.7509229     0.6829154     0.0000021
  H       -0.8053490     0.9949230    -0.8734510
  H       -0.8053540     0.9949110     0.8734800
  H        0.8053470    -0.9949190    -0.8734520
  H        0.8053530    -0.9949090     0.8734780
units angstrom
no_reorient  #important for SAPT in psi4, default
symmetry c1  #important for SAPT in psi4, default
}

set PROPERTIES_ORIGIN ["COM"]
properties('MP2/aug-cc-pvtz', properties = ['dipole'])
--------------------------------------------------------------------------

    Molecular point group: c1
  Charge       = 0
  Multiplicity = 1
  Basis Set: AUG-CC-PVTZ
    Blend: AUG-CC-PVTZ
  Basis Set: (AUG-CC-PVTZ AUX)
    Blend: AUG-CC-PVTZ-JKFIT

    Orbital Energies [Eh]
    ---------------------

    Doubly Occupied:

       1A   -490.044066     2A   -490.030575     3A    -65.183939
       4A    -65.170454     5A    -58.539147     6A    -58.537884
       7A    -58.537748     8A    -58.525624     9A    -58.524423
      10A    -58.524302    11A    -20.627386    12A    -20.620386
      13A    -11.431602    14A    -11.431313    15A    -11.301235
      16A    -11.300471    17A     -9.856581    18A     -9.842993
      19A     -7.467707    20A     -7.461710    21A     -7.461152
      22A     -7.453877    23A     -7.448233    24A     -7.447744
      25A     -3.211231    26A     -3.208313    27A     -3.207549
      28A     -3.199897    29A     -3.199879    30A     -3.197234
      31A     -3.194545    32A     -3.193864    33A     -3.186637
      34A     -3.186621    35A     -1.483476    36A     -1.461228
      37A     -1.145595    38A     -1.066552    39A     -1.030673
      40A     -0.967889    41A     -0.793717    42A     -0.790360
      43A     -0.721168    44A     -0.708078    45A     -0.688867
      46A     -0.657371    47A     -0.642788    48A     -0.630510
      49A     -0.581095    50A     -0.578705    51A     -0.550437
      52A     -0.459703    53A     -0.440457    54A     -0.439921
      55A     -0.432643    56A     -0.429525    57A     -0.425386

  @DF-RHF Final Energy: -5448.56791212243479

   => Energetics <=

    Nuclear Repulsion Energy =            770.6956344641085934
    One-Electron Energy =               -9114.7621658911575651
    Two-Electron Energy =                2895.4986193046142944
    Total Energy =                      -5448.5679121224338814
  Basis Set: (AUG-CC-PVTZ AUX)
    Blend: AUG-CC-PVTZ-RI
    Molecular point group: c1

    Geometry (in Angstrom), charge = 0, multiplicity = 1:

       Center              X                  Y                   Z               Mass
    ------------   -----------------  -----------------  -----------------  -----------------
         BR          -3.569166949888     0.234345827037    -0.000002599393    78.918337600000
         BR           3.573596050112    -0.236582172963    -0.000002599393    78.918337600000
         O           -1.704177949888    -1.856754172963     0.000001400607    15.994914619570
         O            1.708611050112     1.854521827037     0.000001400607    15.994914619570
         C           -0.676080949888     0.345624827037     0.000010400607    12.000000000000
         C            0.680511050112    -0.347856172963     0.000010400607    12.000000000000
         C           -1.793348949888    -0.661509172963     0.000002400607    12.000000000000
         C            1.753137950112     0.681798227037     0.000002500607    12.000000000000
         H           -0.803133949888     0.993805827037    -0.873450599393     1.007825032230
         H           -0.803138949888     0.993793827037     0.873480400607     1.007825032230
         H            0.807562050112    -0.996036172963    -0.873451599393     1.007825032230
         H            0.807568050112    -0.996026172963     0.873478400607     1.007825032230

  Basis Set: AUG-CC-PVTZ
    Blend: AUG-CC-PVTZ
  Basis Set: (AUG-CC-PVTZ AUX)
    Blend: AUG-CC-PVTZ-JKFIT
	 Reference Energy          =   -5448.5679121224347909 [Eh]
	 Singles Energy            =      -0.0000000000000000 [Eh]
	 Same-Spin Energy          =      -0.4819488207209415 [Eh]
	 Opposite-Spin Energy      =      -1.3299026276920445 [Eh]
	 Correlation Energy        =      -1.8118514484129860 [Eh]
	 Total Energy              =   -5450.3797635708478992 [Eh]

	 ================> DF-SCS-MP2 Energies <==================
	-----------------------------------------------------------
	 SCS Same-Spin Scale       =       0.3333333333333333 [-]
	 SCS Opposite-Spin Scale   =       1.2000000000000000 [-]
	 SCS Same-Spin Energy      =      -0.1606496069069805 [Eh]
	 SCS Opposite-Spin Energy  =      -1.5958831532304534 [Eh]
	 SCS Correlation Energy    =      -1.7565327601374339 [Eh]
	 SCS Total Energy          =   -5450.3244448825726067 [Eh]
	-----------------------------------------------------------

  Dipole Moment: [D]
     X:    -0.5574      Y:     0.2472      Z:     0.0000     Total:     0.6098

*** Psi4 exiting successfully. Buy a developer a beer!
