                               Psi4 1.4a3.dev225

  ==> Input File <==

--------------------------------------------------------------------------
#psi4
#
memory 32 gb

molecule  {
0 1
 Br       -3.5713820     0.2354630    -0.0000030
 Br        3.5713810    -0.2354650    -0.0000030
  O       -1.7063930    -1.8556370     0.0000010
  O        1.7063960     1.8556390     0.0000010
  C       -0.6782960     0.3467420     0.0000100
  C        0.6782960    -0.3467390     0.0000100
  C       -1.7940760    -0.6803366     0.0000020
  C        1.7955640     0.6603950     0.0000020
  H       -0.8053490     0.9949230    -0.8734510
  H       -0.8053540     0.9949110     0.8734800
  H        0.8053470    -0.9949190    -0.8734520
  H        0.8053530    -0.9949090     0.8734780
units angstrom
no_reorient  #important for SAPT in psi4, default
symmetry c1  #important for SAPT in psi4, default
}

set PROPERTIES_ORIGIN ["COM"]
properties('MP2/aug-cc-pvtz', properties = ['dipole'])
--------------------------------------------------------------------------

    Molecular point group: c1
  Charge       = 0
  Multiplicity = 1
  Basis Set: AUG-CC-PVTZ
    Blend: AUG-CC-PVTZ
  Basis Set: (AUG-CC-PVTZ AUX)
    Blend: AUG-CC-PVTZ-JKFIT

    Orbital Energies [Eh]
    ---------------------

    Doubly Occupied:

       1A   -490.042406     2A   -490.038570     3A    -65.182285
       4A    -65.178484     5A    -58.537491     6A    -58.536231
       7A    -58.536096     8A    -58.533671     9A    -58.532437
      10A    -58.532306    11A    -20.621657    12A    -20.618356
      13A    -11.429380    14A    -11.428131    15A    -11.298301
      16A    -11.297481    17A     -9.854931    18A     -9.851135
      19A     -7.466052    20A     -7.462175    21A     -7.460067
      22A     -7.459510    23A     -7.456316    24A     -7.455778
      25A     -3.209571    26A     -3.206659    27A     -3.205896
      28A     -3.205635    29A     -3.202798    30A     -3.202057
      31A     -3.198260    32A     -3.198242    33A     -3.194586
      34A     -3.194568    35A     -1.475487    36A     -1.459234
      37A     -1.138338    38A     -1.066340    39A     -1.036399
      40A     -0.963696    41A     -0.789490    42A     -0.787573
      43A     -0.716021    44A     -0.702800    45A     -0.685299
      46A     -0.654064    47A     -0.641611    48A     -0.626077
      49A     -0.576775    50A     -0.575637    51A     -0.546950
      52A     -0.459218    53A     -0.441092    54A     -0.438552
      55A     -0.435661    56A     -0.434726    57A     -0.430033

  @DF-RHF Final Energy: -5448.56925050855807

   => Energetics <=

    Nuclear Repulsion Energy =            770.9787137492949114
    One-Electron Energy =               -9115.2787449355346325
    Two-Electron Energy =                2895.7307806776816506
    Total Energy =                      -5448.5692505085580706
  Basis Set: (AUG-CC-PVTZ AUX)
    Blend: AUG-CC-PVTZ-RI
    Molecular point group: c1

    Geometry (in Angstrom), charge = 0, multiplicity = 1:

       Center              X                  Y                   Z               Mass
    ------------   -----------------  -----------------  -----------------  -----------------
         BR          -3.571455688103     0.236452767522    -0.000002594432    78.918337600000
         BR           3.571307311897    -0.234475232478    -0.000002594432    78.918337600000
         O           -1.706466688103    -1.854647232478     0.000001405568    15.994914619570
         O            1.706322311897     1.856628767522     0.000001405568    15.994914619570
         C           -0.678369688103     0.347731767522     0.000010405568    12.000000000000
         C            0.678222311897    -0.345749232478     0.000010405568    12.000000000000
         C           -1.794149688103    -0.679346832478     0.000002405568    12.000000000000
         C            1.795490311897     0.661384767522     0.000002405568    12.000000000000
         H           -0.805422688103     0.995912767522    -0.873450594432     1.007825032230
         H           -0.805427688103     0.995900767522     0.873480405568     1.007825032230
         H            0.805273311897    -0.993929232478    -0.873451594432     1.007825032230
         H            0.805279311897    -0.993919232478     0.873478405568     1.007825032230

  Basis Set: AUG-CC-PVTZ
    Blend: AUG-CC-PVTZ
  Basis Set: (AUG-CC-PVTZ AUX)
    Blend: AUG-CC-PVTZ-JKFIT
	 Reference Energy          =   -5448.5692505085580706 [Eh]
	 Singles Energy            =      -0.0000000000000000 [Eh]
	 Same-Spin Energy          =      -0.4817811120354629 [Eh]
	 Opposite-Spin Energy      =      -1.3298404695656358 [Eh]
	 Correlation Energy        =      -1.8116215816010988 [Eh]
	 Total Energy              =   -5450.3808720901588458 [Eh]

	 ================> DF-SCS-MP2 Energies <==================
	-----------------------------------------------------------
	 SCS Same-Spin Scale       =       0.3333333333333333 [-]
	 SCS Opposite-Spin Scale   =       1.2000000000000000 [-]
	 SCS Same-Spin Energy      =      -0.1605937040118210 [Eh]
	 SCS Opposite-Spin Energy  =      -1.5958085634787629 [Eh]
	 SCS Correlation Energy    =      -1.7564022674905839 [Eh]
	 SCS Total Energy          =   -5450.3256527760486279 [Eh]
	-----------------------------------------------------------

  Dipole Moment: [D]
     X:     0.1091      Y:    -0.1307      Z:     0.0000     Total:     0.1702

*** Psi4 exiting successfully. Buy a developer a beer!
