                               Psi4 1.4a3.dev225

  ==> Input File <==

--------------------------------------------------------------------------
#psi4
#
memory 32 gb

molecule  {
0 1
 Br       -3.5713820     0.2354630    -0.0000030
 Br        3.5713810    -0.2354650    -0.0000030
  O       -1.7063930    -1.8556370     0.0000010
  O        1.7063960     1.8556390     0.0000010
  C       -0.6997131     0.2966920    -0.0913423
  C        0.6782960    -0.3467390     0.0000100
  C       -1.7955640    -0.6603920     0.0000020
  C        1.7955640     0.6603950     0.0000020
  H       -0.8053490     0.9949230    -0.8734510
  H       -0.8053540     0.9949110     0.8734800
  H        0.8053470    -0.9949190    -0.8734520
  H        0.8053530    -0.9949090     0.8734780
units angstrom
no_reorient  #important for SAPT in psi4, default
symmetry c1  #important for SAPT in psi4, default
}

set PROPERTIES_ORIGIN ["COM"]
properties('MP2/aug-cc-pvtz', properties = ['dipole'])
--------------------------------------------------------------------------

    Molecular point group: c1
  Charge       = 0
  Multiplicity = 1
  Basis Set: AUG-CC-PVTZ
    Blend: AUG-CC-PVTZ
  Basis Set: (AUG-CC-PVTZ AUX)
    Blend: AUG-CC-PVTZ-JKFIT

    Orbital Energies [Eh]
    ---------------------

    Doubly Occupied:

       1A   -490.043221     2A   -490.042898     3A    -65.183079
       4A    -65.182754     5A    -58.538295     6A    -58.537974
       7A    -58.537021     8A    -58.536886     9A    -58.536693
      10A    -58.536562    11A    -20.618433    12A    -20.616020
      13A    -11.429985    14A    -11.427544    15A    -11.298824
      16A    -11.297705    17A     -9.855709    18A     -9.855380
      19A     -7.466859    20A     -7.466551    21A     -7.460819
      22A     -7.460475    23A     -7.460263    24A     -7.459937
      25A     -3.210395    26A     -3.210095    27A     -3.207457
      28A     -3.207132    29A     -3.206694    30A     -3.206392
      31A     -3.198986    32A     -3.198968    33A     -3.198634
      34A     -3.198617    35A     -1.459797    36A     -1.458380
      37A     -1.141661    38A     -1.071011    39A     -1.038689
      40A     -0.970105    41A     -0.791364    42A     -0.787143
      43A     -0.715434    44A     -0.697867    45A     -0.687165
      46A     -0.655120    47A     -0.639182    48A     -0.623077
      49A     -0.575554    50A     -0.567465    51A     -0.526468
      52A     -0.462477    53A     -0.445610    54A     -0.439456
      55A     -0.437641    56A     -0.435888    57A     -0.432898

  @DF-RHF Final Energy: -5448.55648225618825

   => Energetics <=

    Nuclear Repulsion Energy =            771.5356898840875601
    One-Electron Energy =               -9116.2789231829210621
    Two-Electron Energy =                2896.1867510426459376
    Total Energy =                      -5448.5564822561882465
  Basis Set: (AUG-CC-PVTZ AUX)
    Blend: AUG-CC-PVTZ-RI
    Molecular point group: c1

    Geometry (in Angstrom), charge = 0, multiplicity = 1:

       Center              X                  Y                   Z               Mass
    ------------   -----------------  -----------------  -----------------  -----------------
         BR          -3.570319230256     0.237946474953     0.004529934928    78.918337600000
         BR           3.572443769744    -0.232981525047     0.004529934928    78.918337600000
         O           -1.705330230256    -1.853153525047     0.004533934928    15.994914619570
         O            1.707458769744     1.858122474953     0.004533934928    15.994914619570
         C           -0.698650330256     0.299175474953    -0.086809365072    12.000000000000
         C            0.679358769744    -0.344255525047     0.004542934928    12.000000000000
         C           -1.794501230256    -0.657908525047     0.004534934928    12.000000000000
         C            1.796626769744     0.662878474953     0.004534934928    12.000000000000
         H           -0.804286230256     0.997406474953    -0.868918065072     1.007825032230
         H           -0.804291230256     0.997394474953     0.878012934928     1.007825032230
         H            0.806409769744    -0.992435525047    -0.868919065072     1.007825032230
         H            0.806415769744    -0.992425525047     0.878010934928     1.007825032230

  Basis Set: AUG-CC-PVTZ
    Blend: AUG-CC-PVTZ
  Basis Set: (AUG-CC-PVTZ AUX)
    Blend: AUG-CC-PVTZ-JKFIT
	 Reference Energy          =   -5448.5564822561882465 [Eh]
	 Singles Energy            =      -0.0000000000000000 [Eh]
	 Same-Spin Energy          =      -0.4829887976518986 [Eh]
	 Opposite-Spin Energy      =      -1.3322632662798832 [Eh]
	 Correlation Energy        =      -1.8152520639317817 [Eh]
	 Total Energy              =   -5450.3717343201196854 [Eh]

	 ================> DF-SCS-MP2 Energies <==================
	-----------------------------------------------------------
	 SCS Same-Spin Scale       =       0.3333333333333333 [-]
	 SCS Opposite-Spin Scale   =       1.2000000000000000 [-]
	 SCS Same-Spin Energy      =      -0.1609962658839662 [Eh]
	 SCS Opposite-Spin Energy  =      -1.5987159195358598 [Eh]
	 SCS Correlation Energy    =      -1.7597121854198259 [Eh]
	 SCS Total Energy          =   -5450.3161944416078768 [Eh]
	-----------------------------------------------------------

  Dipole Moment: [D]
     X:     0.0755      Y:     0.0486      Z:    -0.0431     Total:     0.0996

*** Psi4 exiting successfully. Buy a developer a beer!
