                               Psi4 1.4a3.dev225

  ==> Input File <==

--------------------------------------------------------------------------
#psi4
#
memory 32 gb

molecule  {
0 1
 Br       -3.5713820     0.2354630    -0.0000030
 Br        3.5713810    -0.2354650    -0.0000030
  O       -1.7063930    -1.8556370     0.0000010
  O        1.7063960     1.8556390     0.0000010
  C       -0.6782960     0.3467420     0.0000100
  C        0.6782960    -0.3467390     0.0000100
  C       -1.7955640    -0.6603920     0.0000020
  C        1.8467282     0.5913278    -0.1319129
  H       -0.8053490     0.9949230    -0.8734510
  H       -0.8053540     0.9949110     0.8734800
  H        0.8053470    -0.9949190    -0.8734520
  H        0.8053530    -0.9949090     0.8734780
units angstrom
no_reorient  #important for SAPT in psi4, default
symmetry c1  #important for SAPT in psi4, default
}

set PROPERTIES_ORIGIN ["COM"]
properties('MP2/aug-cc-pvtz', properties = ['dipole'])
--------------------------------------------------------------------------

    Molecular point group: c1
  Charge       = 0
  Multiplicity = 1
  Basis Set: AUG-CC-PVTZ
    Blend: AUG-CC-PVTZ
  Basis Set: (AUG-CC-PVTZ AUX)
    Blend: AUG-CC-PVTZ-JKFIT

    Orbital Energies [Eh]
    ---------------------

    Doubly Occupied:

       1A   -490.060582     2A   -490.040328     3A    -65.200461
       4A    -65.180206     5A    -58.555721     6A    -58.554372
       7A    -58.554214     8A    -58.535413     9A    -58.534153
      10A    -58.534018    11A    -20.615632    12A    -20.603792
      13A    -11.431299    14A    -11.426833    15A    -11.294513
      16A    -11.293885    17A     -9.873313    18A     -9.852851
      19A     -7.484823    20A     -7.478290    21A     -7.477600
      22A     -7.463976    23A     -7.457986    24A     -7.457428
      25A     -3.228617    26A     -3.225342    27A     -3.224421
      28A     -3.216135    29A     -3.216112    30A     -3.207496
      31A     -3.204582    32A     -3.203818    33A     -3.196176
      34A     -3.196158    35A     -1.456726    36A     -1.397924
      37A     -1.135533    38A     -1.081597    39A     -1.044117
      40A     -0.966798    41A     -0.786491    42A     -0.778939
      43A     -0.701197    44A     -0.696745    45A     -0.675120
      46A     -0.636412    47A     -0.630003    48A     -0.612535
      49A     -0.566091    50A     -0.556668    51A     -0.528586
      52A     -0.465676    53A     -0.451124    54A     -0.446299
      55A     -0.441688    56A     -0.436104    57A     -0.432753

  @DF-RHF Final Energy: -5448.54444366285315

   => Energetics <=

    Nuclear Repulsion Energy =            771.4459548169587606
    One-Electron Energy =               -9115.9694572802618495
    Two-Electron Energy =                2895.9790588004516394
    Total Energy =                      -5448.5444436628522453
  Basis Set: (AUG-CC-PVTZ AUX)
    Blend: AUG-CC-PVTZ-RI
    Molecular point group: c1

    Geometry (in Angstrom), charge = 0, multiplicity = 1:

       Center              X                  Y                   Z               Mass
    ------------   -----------------  -----------------  -----------------  -----------------
         BR          -3.573920418986     0.238890031025     0.006542486066    78.918337600000
         BR           3.568842581014    -0.232037968975     0.006542486066    78.918337600000
         O           -1.708931418986    -1.852209968975     0.006546486066    15.994914619570
         O            1.703857581014     1.859066031025     0.006546486066    15.994914619570
         C           -0.680834418986     0.350169031025     0.006555486066    12.000000000000
         C            0.675757581014    -0.343311968975     0.006555486066    12.000000000000
         C           -1.798102418986    -0.656964968975     0.006547486066    12.000000000000
         C            1.844189781014     0.594754831025    -0.125367413934    12.000000000000
         H           -0.807887418986     0.998350031025    -0.866905513934     1.007825032230
         H           -0.807892418986     0.998338031025     0.880025486066     1.007825032230
         H            0.802808581014    -0.991491968975    -0.866906513934     1.007825032230
         H            0.802814581014    -0.991481968975     0.880023486066     1.007825032230

  Basis Set: AUG-CC-PVTZ
    Blend: AUG-CC-PVTZ
  Basis Set: (AUG-CC-PVTZ AUX)
    Blend: AUG-CC-PVTZ-JKFIT
	 Reference Energy          =   -5448.5444436628531548 [Eh]
	 Singles Energy            =      -0.0000000000000000 [Eh]
	 Same-Spin Energy          =      -0.4847412042312497 [Eh]
	 Opposite-Spin Energy      =      -1.3370103844110213 [Eh]
	 Correlation Energy        =      -1.8217515886422708 [Eh]
	 Total Energy              =   -5450.3661952514958102 [Eh]

	 ================> DF-SCS-MP2 Energies <==================
	-----------------------------------------------------------
	 SCS Same-Spin Scale       =       0.3333333333333333 [-]
	 SCS Opposite-Spin Scale   =       1.2000000000000000 [-]
	 SCS Same-Spin Energy      =      -0.1615804014104165 [Eh]
	 SCS Opposite-Spin Energy  =      -1.6044124612932256 [Eh]
	 SCS Correlation Energy    =      -1.7659928627036421 [Eh]
	 SCS Total Energy          =   -5450.3104365255567245 [Eh]
	-----------------------------------------------------------

  Dipole Moment: [D]
     X:     0.7690      Y:    -0.4783      Z:    -0.0391     Total:     0.9065

*** Psi4 exiting successfully. Buy a developer a beer!
