                               Psi4 1.4a3.dev225

  ==> Input File <==

--------------------------------------------------------------------------
#psi4
#
memory 32 gb

molecule  {
0 1
 Br       -3.5713820     0.2354630    -0.0000030
 Br        3.5713810    -0.2354650    -0.0000030
  O       -1.7063930    -1.8556370     0.0000010
  O        1.7063960     1.8556390     0.0000010
  C       -0.6782960     0.3467420     0.0000100
  C        0.6782960    -0.3467390     0.0000100
  C       -1.7955640    -0.6603920     0.0000020
  C        1.7858294     0.6708521     0.0220269
  H       -0.8053490     0.9949230    -0.8734510
  H       -0.8053540     0.9949110     0.8734800
  H        0.8053470    -0.9949190    -0.8734520
  H        0.8053530    -0.9949090     0.8734780
units angstrom
no_reorient  #important for SAPT in psi4, default
symmetry c1  #important for SAPT in psi4, default
}

set PROPERTIES_ORIGIN ["COM"]
properties('MP2/aug-cc-pvtz', properties = ['dipole'])
--------------------------------------------------------------------------

    Molecular point group: c1
  Charge       = 0
  Multiplicity = 1
  Basis Set: AUG-CC-PVTZ
    Blend: AUG-CC-PVTZ
  Basis Set: (AUG-CC-PVTZ AUX)
    Blend: AUG-CC-PVTZ-JKFIT

    Orbital Energies [Eh]
    ---------------------

    Doubly Occupied:

       1A   -490.042649     2A   -490.038849     3A    -65.182526
       4A    -65.178732     5A    -58.537733     6A    -58.536472
       7A    -58.536337     8A    -58.533927     9A    -58.532684
      10A    -58.532553    11A    -20.621027    12A    -20.618643
      13A    -11.429652    14A    -11.429358    15A    -11.298564
      16A    -11.297891    17A     -9.855171    18A     -9.851350
      19A     -7.466294    20A     -7.462403    21A     -7.460305
      22A     -7.459747    23A     -7.456515    24A     -7.455979
      25A     -3.209814    26A     -3.206901    27A     -3.206137
      28A     -3.205874    29A     -3.203026    30A     -3.202288
      31A     -3.198496    32A     -3.198478    33A     -3.194770
      34A     -3.194752    35A     -1.468763    36A     -1.459508
      37A     -1.140214    38A     -1.067143    39A     -1.036314
      40A     -0.965698    41A     -0.789348    42A     -0.788019
      43A     -0.715241    44A     -0.703586    45A     -0.685428
      46A     -0.653075    47A     -0.640512    48A     -0.625082
      49A     -0.576945    50A     -0.573652    51A     -0.546830
      52A     -0.459884    53A     -0.441767    54A     -0.438733
      55A     -0.435565    56A     -0.434676    57A     -0.430493

  @DF-RHF Final Energy: -5448.56828497883726

   => Energetics <=

    Nuclear Repulsion Energy =            770.9447662828439434
    One-Electron Energy =               -9115.2013491050875018
    Two-Electron Energy =                2895.6882978434059623
    Total Energy =                      -5448.5682849788372550
  Basis Set: (AUG-CC-PVTZ AUX)
    Blend: AUG-CC-PVTZ-RI
    Molecular point group: c1

    Geometry (in Angstrom), charge = 0, multiplicity = 1:

       Center              X                  Y                   Z               Mass
    ------------   -----------------  -----------------  -----------------  -----------------
         BR          -3.570898868363     0.234944358890    -0.001095380337    78.918337600000
         BR           3.571864131637    -0.235983641110    -0.001095380337    78.918337600000
         O           -1.705909868363    -1.856155641110    -0.001091380337    15.994914619570
         O            1.706879131637     1.855120358890    -0.001091380337    15.994914619570
         C           -0.677812868363     0.346223358890    -0.001082380337    12.000000000000
         C            0.678779131637    -0.347257641110    -0.001082380337    12.000000000000
         C           -1.795080868363    -0.660910641110    -0.001090380337    12.000000000000
         C            1.786312531637     0.670333458890     0.020934519663    12.000000000000
         H           -0.804865868363     0.994404358890    -0.874543380337     1.007825032230
         H           -0.804870868363     0.994392358890     0.872387619663     1.007825032230
         H            0.805830131637    -0.995437641110    -0.874544380337     1.007825032230
         H            0.805836131637    -0.995427641110     0.872385619663     1.007825032230

  Basis Set: AUG-CC-PVTZ
    Blend: AUG-CC-PVTZ
  Basis Set: (AUG-CC-PVTZ AUX)
    Blend: AUG-CC-PVTZ-JKFIT
	 Reference Energy          =   -5448.5682849788372550 [Eh]
	 Singles Energy            =      -0.0000000000000000 [Eh]
	 Same-Spin Energy          =      -0.4821087166693192 [Eh]
	 Opposite-Spin Energy      =      -1.3305269546601128 [Eh]
	 Correlation Energy        =      -1.8126356713294320 [Eh]
	 Total Energy              =   -5450.3809206501664448 [Eh]

	 ================> DF-SCS-MP2 Energies <==================
	-----------------------------------------------------------
	 SCS Same-Spin Scale       =       0.3333333333333333 [-]
	 SCS Opposite-Spin Scale   =       1.2000000000000000 [-]
	 SCS Same-Spin Energy      =      -0.1607029055564397 [Eh]
	 SCS Opposite-Spin Energy  =      -1.5966323455921354 [Eh]
	 SCS Correlation Energy    =      -1.7573352511485751 [Eh]
	 SCS Total Energy          =   -5450.3256202299862707 [Eh]
	-----------------------------------------------------------

  Dipole Moment: [D]
     X:    -0.1448      Y:     0.0885      Z:     0.0119     Total:     0.1701

*** Psi4 exiting successfully. Buy a developer a beer!
