                               Psi4 1.4a3.dev225

  ==> Input File <==

--------------------------------------------------------------------------
#psi4
#
memory 32 gb

molecule  {
0 1
 Br       -3.5713820     0.2354630    -0.0000030
 Br        3.5713810    -0.2354650    -0.0000030
  O       -1.7063930    -1.8556370     0.0000010
  O        1.7063960     1.8556390     0.0000010
  C       -0.6782960     0.3467420     0.0000100
  C        0.6782960    -0.3467390     0.0000100
  C       -1.7806844    -0.8598377     0.0000018
  C        1.7955640     0.6603950     0.0000020
  H       -0.8053490     0.9949230    -0.8734510
  H       -0.8053540     0.9949110     0.8734800
  H        0.8053470    -0.9949190    -0.8734520
  H        0.8053530    -0.9949090     0.8734780
units angstrom
no_reorient  #important for SAPT in psi4, default
symmetry c1  #important for SAPT in psi4, default
}

set PROPERTIES_ORIGIN ["COM"]
properties('MP2/aug-cc-pvtz', properties = ['dipole'])
--------------------------------------------------------------------------

    Molecular point group: c1
  Charge       = 0
  Multiplicity = 1
  Basis Set: AUG-CC-PVTZ
    Blend: AUG-CC-PVTZ
  Basis Set: (AUG-CC-PVTZ AUX)
    Blend: AUG-CC-PVTZ-JKFIT

    Orbital Energies [Eh]
    ---------------------

    Doubly Occupied:

       1A   -490.045151     2A   -489.999127     3A    -65.185035
       4A    -65.139499     5A    -58.540238     6A    -58.538981
       7A    -58.538847     8A    -58.494450     9A    -58.493548
      10A    -58.493442    11A    -20.656689    12A    -20.621695
      13A    -11.432689    14A    -11.413836    15A    -11.307987
      16A    -11.301936    17A     -9.857690    18A     -9.812363
      19A     -7.468800    20A     -7.462827    21A     -7.462276
      22A     -7.422491    23A     -7.418106    24A     -7.417712
      25A     -3.212314    26A     -3.209407    27A     -3.208650
      28A     -3.201033    29A     -3.201014    30A     -3.165322
      31A     -3.163303    32A     -3.162733    33A     -3.157244
      34A     -3.157229    35A     -1.643316    36A     -1.462248
      37A     -1.134592    38A     -1.055109    39A     -1.009451
      40A     -0.947254    41A     -0.824364    42A     -0.796640
      43A     -0.763678    44A     -0.743146    45A     -0.707010
      46A     -0.685870    47A     -0.676456    48A     -0.653462
      49A     -0.596858    50A     -0.585626    51A     -0.553149
      52A     -0.457242    53A     -0.441044    54A     -0.439092
      55A     -0.409109    56A     -0.408841    57A     -0.394744

  @DF-RHF Final Energy: -5448.49355622761504

   => Energetics <=

    Nuclear Repulsion Energy =            770.8914777961902018
    One-Electron Energy =               -9115.2661370907844685
    Two-Electron Energy =                2895.8811030669785396
    Total Energy =                      -5448.4935562276150449
  Basis Set: (AUG-CC-PVTZ AUX)
    Blend: AUG-CC-PVTZ-RI
    Molecular point group: c1

    Geometry (in Angstrom), charge = 0, multiplicity = 1:

       Center              X                  Y                   Z               Mass
    ------------   -----------------  -----------------  -----------------  -----------------
         BR          -3.572120124797     0.245358881608    -0.000002584509    78.918337600000
         BR           3.570642875203    -0.225569118392    -0.000002584509    78.918337600000
         O           -1.707131124797    -1.845741118392     0.000001415491    15.994914619570
         O            1.705657875203     1.865534881608     0.000001415491    15.994914619570
         C           -0.679034124797     0.356637881608     0.000010415491    12.000000000000
         C            0.677557875203    -0.336843118392     0.000010415491    12.000000000000
         C           -1.781422524797    -0.849941818392     0.000002215491    12.000000000000
         C            1.794825875203     0.670290881608     0.000002415491    12.000000000000
         H           -0.806087124797     1.004818881608    -0.873450584509     1.007825032230
         H           -0.806092124797     1.004806881608     0.873480415491     1.007825032230
         H            0.804608875203    -0.985023118392    -0.873451584509     1.007825032230
         H            0.804614875203    -0.985013118392     0.873478415491     1.007825032230

  Basis Set: AUG-CC-PVTZ
    Blend: AUG-CC-PVTZ
  Basis Set: (AUG-CC-PVTZ AUX)
    Blend: AUG-CC-PVTZ-JKFIT
	 Reference Energy          =   -5448.4935562276150449 [Eh]
	 Singles Energy            =      -0.0000000000000000 [Eh]
	 Same-Spin Energy          =      -0.4763453900062365 [Eh]
	 Opposite-Spin Energy      =      -1.3179129795757363 [Eh]
	 Correlation Energy        =      -1.7942583695819727 [Eh]
	 Total Energy              =   -5450.2878145971972117 [Eh]

	 ================> DF-SCS-MP2 Energies <==================
	-----------------------------------------------------------
	 SCS Same-Spin Scale       =       0.3333333333333333 [-]
	 SCS Opposite-Spin Scale   =       1.2000000000000000 [-]
	 SCS Same-Spin Energy      =      -0.1587817966687455 [Eh]
	 SCS Opposite-Spin Energy  =      -1.5814955754908835 [Eh]
	 SCS Correlation Energy    =      -1.7402773721596290 [Eh]
	 SCS Total Energy          =   -5450.2338335997746981 [Eh]
	-----------------------------------------------------------

  Dipole Moment: [D]
     X:     1.2401      Y:    -1.4581      Z:     0.0000     Total:     1.9141

*** Psi4 exiting successfully. Buy a developer a beer!
