                               Psi4 1.4a3.dev225

  ==> Input File <==

--------------------------------------------------------------------------
#psi4
#
memory 32 gb

molecule  {
0 1
 Br       -3.5713820     0.2354630    -0.0000030
 Br        3.5713810    -0.2354650    -0.0000030
  O       -1.7063930    -1.8556370     0.0000010
  O        1.7063960     1.8556390     0.0000010
  C       -0.6782960     0.3467420     0.0000100
  C        0.6782960    -0.3467390     0.0000100
  C       -1.7955640    -0.6603920     0.0000020
  C        1.8140093     0.6385637    -0.0440412
  H       -0.8053490     0.9949230    -0.8734510
  H       -0.8053540     0.9949110     0.8734800
  H        0.8053470    -0.9949190    -0.8734520
  H        0.8053530    -0.9949090     0.8734780
units angstrom
no_reorient  #important for SAPT in psi4, default
symmetry c1  #important for SAPT in psi4, default
}

set PROPERTIES_ORIGIN ["COM"]
properties('MP2/aug-cc-pvtz', properties = ['dipole'])
--------------------------------------------------------------------------

    Molecular point group: c1
  Charge       = 0
  Multiplicity = 1
  Basis Set: AUG-CC-PVTZ
    Blend: AUG-CC-PVTZ
  Basis Set: (AUG-CC-PVTZ AUX)
    Blend: AUG-CC-PVTZ-JKFIT

    Orbital Energies [Eh]
    ---------------------

    Doubly Occupied:

       1A   -490.048779     2A   -490.041511     3A    -65.188651
       4A    -65.181389     5A    -58.543878     6A    -58.542585
       7A    -58.542441     8A    -58.536596     9A    -58.535335
      10A    -58.535200    11A    -20.617196    12A    -20.612772
      13A    -11.429310    14A    -11.428290    15A    -11.296373
      16A    -11.295688    17A     -9.861357    18A     -9.854035
      19A     -7.472616    20A     -7.466434    21A     -7.465832
      22A     -7.465158    23A     -7.459170    24A     -7.458612
      25A     -3.216232    26A     -3.213192    27A     -3.212375
      28A     -3.208677    29A     -3.205765    30A     -3.205000
      31A     -3.204502    32A     -3.204482    33A     -3.197361
      34A     -3.197343    35A     -1.458213    36A     -1.439074
      37A     -1.137700    38A     -1.072161    39A     -1.041128
      40A     -0.966073    41A     -0.787345    42A     -0.783645
      43A     -0.707946    44A     -0.700180    45A     -0.681372
      46A     -0.646181    47A     -0.636192    48A     -0.618584
      49A     -0.572304    50A     -0.564812    51A     -0.540953
      52A     -0.462072    53A     -0.445737    54A     -0.442123
      55A     -0.437957    56A     -0.437207    57A     -0.433088

  @DF-RHF Final Energy: -5448.56347745256971

   => Energetics <=

    Nuclear Repulsion Energy =            771.2367446191649378
    One-Electron Energy =               -9115.6880738761519751
    Two-Electron Energy =                2895.8878518044157317
    Total Energy =                      -5448.5634774525706234
  Basis Set: (AUG-CC-PVTZ AUX)
    Blend: AUG-CC-PVTZ-RI
    Molecular point group: c1

    Geometry (in Angstrom), charge = 0, multiplicity = 1:

       Center              X                  Y                   Z               Mass
    ------------   -----------------  -----------------  -----------------  -----------------
         BR          -3.572297040320     0.236546377898     0.002182649914    78.918337600000
         BR           3.570465959680    -0.234381622102     0.002182649914    78.918337600000
         O           -1.707308040320    -1.854553622102     0.002186649914    15.994914619570
         O            1.705480959680     1.856722377898     0.002186649914    15.994914619570
         C           -0.679211040320     0.347825377898     0.002195649914    12.000000000000
         C            0.677380959680    -0.345655622102     0.002195649914    12.000000000000
         C           -1.796479040320    -0.659308622102     0.002187649914    12.000000000000
         C            1.813094259680     0.639647077898    -0.041855550086    12.000000000000
         H           -0.806264040320     0.996006377898    -0.871265350086     1.007825032230
         H           -0.806269040320     0.995994377898     0.875665649914     1.007825032230
         H            0.804431959680    -0.993835622102    -0.871266350086     1.007825032230
         H            0.804437959680    -0.993825622102     0.875663649914     1.007825032230

  Basis Set: AUG-CC-PVTZ
    Blend: AUG-CC-PVTZ
  Basis Set: (AUG-CC-PVTZ AUX)
    Blend: AUG-CC-PVTZ-JKFIT
	 Reference Energy          =   -5448.5634774525697139 [Eh]
	 Singles Energy            =      -0.0000000000000000 [Eh]
	 Same-Spin Energy          =      -0.4830009579046572 [Eh]
	 Opposite-Spin Energy      =      -1.3326910368412004 [Eh]
	 Correlation Energy        =      -1.8156919947458576 [Eh]
	 Total Energy              =   -5450.3791694473156895 [Eh]

	 ================> DF-SCS-MP2 Energies <==================
	-----------------------------------------------------------
	 SCS Same-Spin Scale       =       0.3333333333333333 [-]
	 SCS Opposite-Spin Scale   =       1.2000000000000000 [-]
	 SCS Same-Spin Energy      =      -0.1610003193015524 [Eh]
	 SCS Opposite-Spin Energy  =      -1.5992292442094405 [Eh]
	 SCS Correlation Energy    =      -1.7602295635109928 [Eh]
	 SCS Total Energy          =   -5450.3237070160803341 [Eh]
	-----------------------------------------------------------

  Dipole Moment: [D]
     X:     0.2769      Y:    -0.1717      Z:    -0.0195     Total:     0.3264

*** Psi4 exiting successfully. Buy a developer a beer!
