                               Psi4 1.4a3.dev225

  ==> Input File <==

--------------------------------------------------------------------------
#psi4
#
memory 32 gb

molecule  {
0 1
 Br       -3.5713820     0.2354630    -0.0000030
 Br        3.5713810    -0.2354650    -0.0000030
  O       -1.7063930    -1.8556370     0.0000010
  O        1.7063960     1.8556390     0.0000010
  C       -0.6782960     0.3467420     0.0000100
  C        0.6782960    -0.3467390     0.0000100
  C       -1.8698407    -0.7273470     0.0000015
  C        1.7955640     0.6603950     0.0000020
  H       -0.8053490     0.9949230    -0.8734510
  H       -0.8053540     0.9949110     0.8734800
  H        0.8053470    -0.9949190    -0.8734520
  H        0.8053530    -0.9949090     0.8734780
units angstrom
no_reorient  #important for SAPT in psi4, default
symmetry c1  #important for SAPT in psi4, default
}

set PROPERTIES_ORIGIN ["COM"]
properties('MP2/aug-cc-pvtz', properties = ['dipole'])
--------------------------------------------------------------------------

    Molecular point group: c1
  Charge       = 0
  Multiplicity = 1
  Basis Set: AUG-CC-PVTZ
    Blend: AUG-CC-PVTZ
  Basis Set: (AUG-CC-PVTZ AUX)
    Blend: AUG-CC-PVTZ-JKFIT

    Orbital Energies [Eh]
    ---------------------

    Doubly Occupied:

       1A   -490.043440     2A   -490.039920     3A    -65.183543
       4A    -65.179812     5A    -58.538706     6A    -58.537485
       7A    -58.537342     8A    -58.535014     9A    -58.533762
      10A    -58.533627    11A    -20.620717    12A    -20.615338
      13A    -11.426519    14A    -11.420215    15A    -11.294020
      16A    -11.292957    17A     -9.856468    18A     -9.852470
      19A     -7.467590    20A     -7.463577    21A     -7.461660
      22A     -7.461072    23A     -7.457621    24A     -7.457065
      25A     -3.211087    26A     -3.208160    27A     -3.207362
      28A     -3.207085    29A     -3.204187    30A     -3.203426
      31A     -3.199886    32A     -3.199866    33A     -3.195829
      34A     -3.195811    35A     -1.502173    36A     -1.456210
      37A     -1.125762    38A     -1.066447    39A     -1.038603
      40A     -0.949112    41A     -0.788853    42A     -0.782623
      43A     -0.715827    44A     -0.695583    45A     -0.683063
      46A     -0.658560    47A     -0.643559    48A     -0.631237
      49A     -0.580434    50A     -0.572334    51A     -0.543273
      52A     -0.454730    53A     -0.442218    54A     -0.441804
      55A     -0.435765    56A     -0.434831    57A     -0.425078

  @DF-RHF Final Energy: -5448.56401481337525

   => Energetics <=

    Nuclear Repulsion Energy =            771.3557426548331932
    One-Electron Energy =               -9116.0180771764280507
    Two-Electron Energy =                2896.0983197082209699
    Total Energy =                      -5448.5640148133752518
  Basis Set: (AUG-CC-PVTZ AUX)
    Blend: AUG-CC-PVTZ-RI
    Molecular point group: c1

    Geometry (in Angstrom), charge = 0, multiplicity = 1:

       Center              X                  Y                   Z               Mass
    ------------   -----------------  -----------------  -----------------  -----------------
         BR          -3.567696552021     0.238785232257    -0.000002569624    78.918337600000
         BR           3.575066447979    -0.232142767743    -0.000002569624    78.918337600000
         O           -1.702707552021    -1.852314767743     0.000001430376    15.994914619570
         O            1.710081447979     1.858961232257     0.000001430376    15.994914619570
         C           -0.674610552021     0.350064232257     0.000010430376    12.000000000000
         C            0.681981447979    -0.343416767743     0.000010430376    12.000000000000
         C           -1.866155252021    -0.724024767743     0.000001930376    12.000000000000
         C            1.799249447979     0.663717232257     0.000002430376    12.000000000000
         H           -0.801663552021     0.998245232257    -0.873450569624     1.007825032230
         H           -0.801668552021     0.998233232257     0.873480430376     1.007825032230
         H            0.809032447979    -0.991596767743    -0.873451569624     1.007825032230
         H            0.809038447979    -0.991586767743     0.873478430376     1.007825032230

  Basis Set: AUG-CC-PVTZ
    Blend: AUG-CC-PVTZ
  Basis Set: (AUG-CC-PVTZ AUX)
    Blend: AUG-CC-PVTZ-JKFIT
	 Reference Energy          =   -5448.5640148133752518 [Eh]
	 Singles Energy            =      -0.0000000000000000 [Eh]
	 Same-Spin Energy          =      -0.4805273110875040 [Eh]
	 Opposite-Spin Energy      =      -1.3273706455883021 [Eh]
	 Correlation Energy        =      -1.8078979566758062 [Eh]
	 Total Energy              =   -5450.3719127700514946 [Eh]

	 ================> DF-SCS-MP2 Energies <==================
	-----------------------------------------------------------
	 SCS Same-Spin Scale       =       0.3333333333333333 [-]
	 SCS Opposite-Spin Scale   =       1.2000000000000000 [-]
	 SCS Same-Spin Energy      =      -0.1601757703625013 [Eh]
	 SCS Opposite-Spin Energy  =      -1.5928447747059624 [Eh]
	 SCS Correlation Energy    =      -1.7530205450684637 [Eh]
	 SCS Total Energy          =   -5450.3170353584437180 [Eh]
	-----------------------------------------------------------

  Dipole Moment: [D]
     X:    -0.4216      Y:    -0.2650      Z:     0.0000     Total:     0.4979

*** Psi4 exiting successfully. Buy a developer a beer!
