                               Psi4 1.4a3.dev225

  ==> Input File <==

--------------------------------------------------------------------------
#psi4
#
memory 32 gb

molecule  {
0 1
 Br       -3.5713820     0.2354630    -0.0000030
 Br        3.5713810    -0.2354650    -0.0000030
  O       -1.7063930    -1.8556370     0.0000010
  O        1.7063960     1.8556390     0.0000010
  C       -0.6782960     0.3467420     0.0000100
  C        0.6782960    -0.3467390     0.0000100
  C       -1.7584256    -0.6269145     0.0000023
  C        1.7955640     0.6603950     0.0000020
  H       -0.8053490     0.9949230    -0.8734510
  H       -0.8053540     0.9949110     0.8734800
  H        0.8053470    -0.9949190    -0.8734520
  H        0.8053530    -0.9949090     0.8734780
units angstrom
no_reorient  #important for SAPT in psi4, default
symmetry c1  #important for SAPT in psi4, default
}

set PROPERTIES_ORIGIN ["COM"]
properties('MP2/aug-cc-pvtz', properties = ['dipole'])
--------------------------------------------------------------------------

    Molecular point group: c1
  Charge       = 0
  Multiplicity = 1
  Basis Set: AUG-CC-PVTZ
    Blend: AUG-CC-PVTZ
  Basis Set: (AUG-CC-PVTZ AUX)
    Blend: AUG-CC-PVTZ-JKFIT

    Orbital Energies [Eh]
    ---------------------

    Doubly Occupied:

       1A   -490.043445     2A   -490.041738     3A    -65.183315
       4A    -65.181494     5A    -58.538525     6A    -58.537259
       7A    -58.537124     8A    -58.536728     9A    -58.535436
      10A    -58.535306    11A    -20.619560    12A    -20.616467
      13A    -11.433537    14A    -11.430531    15A    -11.299810
      16A    -11.298141    17A     -9.855954    18A     -9.853995
      19A     -7.467085    20A     -7.465138    21A     -7.461080
      22A     -7.460521    23A     -7.459079    24A     -7.458537
      25A     -3.210611    26A     -3.208679    27A     -3.207690
      28A     -3.206925    29A     -3.205756    30A     -3.205011
      31A     -3.199262    32A     -3.199244    33A     -3.197235
      34A     -3.197218    35A     -1.460562    36A     -1.437537
      37A     -1.148236    38A     -1.071246    39A     -1.037063
      40A     -0.973781    41A     -0.789567    42A     -0.788446
      43A     -0.710933    44A     -0.706664    45A     -0.685599
      46A     -0.649637    47A     -0.634146    48A     -0.622624
      49A     -0.575651    50A     -0.565223    51A     -0.542645
      52A     -0.463011    53A     -0.444938    54A     -0.439404
      55A     -0.436040    56A     -0.435367    57A     -0.431973

  @DF-RHF Final Energy: -5448.55996776481607

   => Energetics <=

    Nuclear Repulsion Energy =            770.9325681154030008
    One-Electron Energy =               -9115.1096154511469649
    Two-Electron Energy =                2895.6170795709290360
    Total Energy =                      -5448.5599677648151555
  Basis Set: (AUG-CC-PVTZ AUX)
    Blend: AUG-CC-PVTZ-RI
    Molecular point group: c1

    Geometry (in Angstrom), charge = 0, multiplicity = 1:

       Center              X                  Y                   Z               Mass
    ------------   -----------------  -----------------  -----------------  -----------------
         BR          -3.573224515869     0.233802180326    -0.000002609317    78.918337600000
         BR           3.569538484131    -0.237125819674    -0.000002609317    78.918337600000
         O           -1.708235515869    -1.857297819674     0.000001390683    15.994914619570
         O            1.704553484131     1.853978180326     0.000001390683    15.994914619570
         C           -0.680138515869     0.345081180326     0.000010390683    12.000000000000
         C            0.676453484131    -0.348399819674     0.000010390683    12.000000000000
         C           -1.760268115869    -0.628575319674     0.000002690683    12.000000000000
         C            1.793721484131     0.658734180326     0.000002390683    12.000000000000
         H           -0.807191515869     0.993262180326    -0.873450609317     1.007825032230
         H           -0.807196515869     0.993250180326     0.873480390683     1.007825032230
         H            0.803504484131    -0.996579819674    -0.873451609317     1.007825032230
         H            0.803510484131    -0.996569819674     0.873478390683     1.007825032230

  Basis Set: AUG-CC-PVTZ
    Blend: AUG-CC-PVTZ
  Basis Set: (AUG-CC-PVTZ AUX)
    Blend: AUG-CC-PVTZ-JKFIT
	 Reference Energy          =   -5448.5599677648160650 [Eh]
	 Singles Energy            =      -0.0000000000000000 [Eh]
	 Same-Spin Energy          =      -0.4836470065462532 [Eh]
	 Opposite-Spin Energy      =      -1.3337171859812327 [Eh]
	 Correlation Energy        =      -1.8173641925274859 [Eh]
	 Total Energy              =   -5450.3773319573438130 [Eh]

	 ================> DF-SCS-MP2 Energies <==================
	-----------------------------------------------------------
	 SCS Same-Spin Scale       =       0.3333333333333333 [-]
	 SCS Opposite-Spin Scale   =       1.2000000000000000 [-]
	 SCS Same-Spin Energy      =      -0.1612156688487510 [Eh]
	 SCS Opposite-Spin Energy  =      -1.6004606231774792 [Eh]
	 SCS Correlation Energy    =      -1.7616762920262303 [Eh]
	 SCS Total Energy          =   -5450.3216440568421604 [Eh]
	-----------------------------------------------------------

  Dipole Moment: [D]
     X:     0.2114      Y:     0.1253      Z:     0.0000     Total:     0.2457

*** Psi4 exiting successfully. Buy a developer a beer!
