                               Psi4 1.4a3.dev225

  ==> Input File <==

--------------------------------------------------------------------------
#psi4
#
memory 32 gb

molecule  {
0 1
 Br       -3.5713820     0.2354630    -0.0000030
 Br        3.5713810    -0.2354650    -0.0000030
  O       -1.7063930    -1.8556370     0.0000010
  O        1.7063960     1.8556390     0.0000010
  C       -0.6782960     0.3467420     0.0000100
  C        0.6782960    -0.3467390     0.0000100
  C       -1.7807087    -0.6470010     0.0000021
  C        1.7955640     0.6603950     0.0000020
  H       -0.8053490     0.9949230    -0.8734510
  H       -0.8053540     0.9949110     0.8734800
  H        0.8053470    -0.9949190    -0.8734520
  H        0.8053530    -0.9949090     0.8734780
units angstrom
no_reorient  #important for SAPT in psi4, default
symmetry c1  #important for SAPT in psi4, default
}

set PROPERTIES_ORIGIN ["COM"]
properties('MP2/aug-cc-pvtz', properties = ['dipole'])
--------------------------------------------------------------------------

    Molecular point group: c1
  Charge       = 0
  Multiplicity = 1
  Basis Set: AUG-CC-PVTZ
    Blend: AUG-CC-PVTZ
  Basis Set: (AUG-CC-PVTZ AUX)
    Blend: AUG-CC-PVTZ-JKFIT

    Orbital Energies [Eh]
    ---------------------

    Doubly Occupied:

       1A   -490.042717     2A   -490.042050     3A    -65.182591
       4A    -65.181879     5A    -58.537799     6A    -58.537096
       7A    -58.536537     8A    -58.536401     9A    -58.535824
      10A    -58.535690    11A    -20.618697    12A    -20.617519
      13A    -11.430953    14A    -11.429707    15A    -11.298470
      16A    -11.297646    17A     -9.855234    18A     -9.854466
      19A     -7.466360    20A     -7.465596    21A     -7.460365
      22A     -7.459807    23A     -7.459582    24A     -7.459030
      25A     -3.209882    26A     -3.209124    27A     -3.206966
      28A     -3.206208    29A     -3.206202    30A     -3.205451
      31A     -3.198553    32A     -3.198535    33A     -3.197760
      34A     -3.197742    35A     -1.459706    36A     -1.450395
      37A     -1.142660    38A     -1.069493    39A     -1.037816
      40A     -0.969066    41A     -0.788655    42A     -0.787469
      43A     -0.711968    44A     -0.704008    45A     -0.684701
      46A     -0.650148    47A     -0.637244    48A     -0.622401
      49A     -0.575612    50A     -0.568240    51A     -0.544640
      52A     -0.461567    53A     -0.443797    54A     -0.438960
      55A     -0.436918    56A     -0.435289    57A     -0.432330

  @DF-RHF Final Energy: -5448.56529781997051

   => Energetics <=

    Nuclear Repulsion Energy =            771.0033427279470288
    One-Electron Energy =               -9115.2742285937274573
    Two-Electron Energy =                2895.7055880458101456
    Total Energy =                      -5448.5652978199705103
  Basis Set: (AUG-CC-PVTZ AUX)
    Blend: AUG-CC-PVTZ-RI
    Molecular point group: c1

    Geometry (in Angstrom), charge = 0, multiplicity = 1:

       Center              X                  Y                   Z               Mass
    ------------   -----------------  -----------------  -----------------  -----------------
         BR          -3.572118919130     0.234798790712    -0.000002599393    78.918337600000
         BR           3.570644080870    -0.236129209288    -0.000002599393    78.918337600000
         O           -1.707129919130    -1.856301209288     0.000001400607    15.994914619570
         O            1.705659080870     1.854974790712     0.000001400607    15.994914619570
         C           -0.679032919130     0.346077790712     0.000010400607    12.000000000000
         C            0.677559080870    -0.347403209288     0.000010400607    12.000000000000
         C           -1.781445619130    -0.647665209288     0.000002500607    12.000000000000
         C            1.794827080870     0.659730790712     0.000002400607    12.000000000000
         H           -0.806085919130     0.994258790712    -0.873450599393     1.007825032230
         H           -0.806090919130     0.994246790712     0.873480400607     1.007825032230
         H            0.804610080870    -0.995583209288    -0.873451599393     1.007825032230
         H            0.804616080870    -0.995573209288     0.873478400607     1.007825032230

  Basis Set: AUG-CC-PVTZ
    Blend: AUG-CC-PVTZ
  Basis Set: (AUG-CC-PVTZ AUX)
    Blend: AUG-CC-PVTZ-JKFIT
	 Reference Energy          =   -5448.5652978199705103 [Eh]
	 Singles Energy            =      -0.0000000000000000 [Eh]
	 Same-Spin Energy          =      -0.4828512058822681 [Eh]
	 Opposite-Spin Energy      =      -1.3321239087846213 [Eh]
	 Correlation Energy        =      -1.8149751146668893 [Eh]
	 Total Energy              =   -5450.3802729346371052 [Eh]

	 ================> DF-SCS-MP2 Energies <==================
	-----------------------------------------------------------
	 SCS Same-Spin Scale       =       0.3333333333333333 [-]
	 SCS Opposite-Spin Scale   =       1.2000000000000000 [-]
	 SCS Same-Spin Energy      =      -0.1609504019607560 [Eh]
	 SCS Opposite-Spin Energy  =      -1.5985486905415456 [Eh]
	 SCS Correlation Energy    =      -1.7594990925023015 [Eh]
	 SCS Total Energy          =   -5450.3247969124731753 [Eh]
	-----------------------------------------------------------

  Dipole Moment: [D]
     X:     0.0837      Y:     0.0505      Z:     0.0000     Total:     0.0978

*** Psi4 exiting successfully. Buy a developer a beer!
