                               Psi4 1.4a3.dev225

  ==> Input File <==

--------------------------------------------------------------------------
#psi4
#
memory 32 gb

molecule  {
0 1
 Br       -3.5713820     0.2354630    -0.0000030
 Br        3.5713810    -0.2354650    -0.0000030
  O       -1.7063930    -1.8556370     0.0000010
  O        1.7063960     1.8556390     0.0000010
  C       -0.6782960     0.3467420     0.0000100
  C        0.6782960    -0.3467390     0.0000100
  C       -1.7955640    -0.6603920     0.0000020
  C        1.7321588     0.7184278     0.1319170
  H       -0.8053490     0.9949230    -0.8734510
  H       -0.8053540     0.9949110     0.8734800
  H        0.8053470    -0.9949190    -0.8734520
  H        0.8053530    -0.9949090     0.8734780
units angstrom
no_reorient  #important for SAPT in psi4, default
symmetry c1  #important for SAPT in psi4, default
}

set PROPERTIES_ORIGIN ["COM"]
properties('MP2/aug-cc-pvtz', properties = ['dipole'])
--------------------------------------------------------------------------

    Molecular point group: c1
  Charge       = 0
  Multiplicity = 1
  Basis Set: AUG-CC-PVTZ
    Blend: AUG-CC-PVTZ
  Basis Set: (AUG-CC-PVTZ AUX)
    Blend: AUG-CC-PVTZ-JKFIT

    Orbital Energies [Eh]
    ---------------------

    Doubly Occupied:

       1A   -490.045006     2A   -490.021022     3A    -65.184880
       4A    -65.160955     5A    -58.540087     6A    -58.538824
       7A    -58.538689     8A    -58.516087     9A    -58.514938
      10A    -58.514830    11A    -20.637375    12A    -20.621554
      13A    -11.433190    14A    -11.432420    15A    -11.304818
      16A    -11.302197    17A     -9.857523    18A     -9.833478
      19A     -7.468647    20A     -7.462651    21A     -7.462094
      22A     -7.444175    23A     -7.438806    24A     -7.438373
      25A     -3.212171    26A     -3.209253    27A     -3.208490
      28A     -3.200840    29A     -3.200821    30A     -3.187393
      31A     -3.184877    32A     -3.184268    33A     -3.177388
      34A     -3.177374    35A     -1.511397    36A     -1.462323
      37A     -1.145985    38A     -1.064413    39A     -1.023556
      40A     -0.964657    41A     -0.799999    42A     -0.791976
      43A     -0.729351    44A     -0.710794    45A     -0.690961
      46A     -0.662913    47A     -0.647442    48A     -0.639299
      49A     -0.587813    50A     -0.583207    51A     -0.552891
      52A     -0.458966    53A     -0.440826    54A     -0.439728
      55A     -0.426888    56A     -0.421473    57A     -0.418578

  @DF-RHF Final Energy: -5448.56038640100360

   => Energetics <=

    Nuclear Repulsion Energy =            770.1757785796215785
    One-Electron Energy =               -9113.8104659948767221
    Two-Electron Energy =                2895.0743010142514322
    Total Energy =                      -5448.5603864010035977
  Basis Set: (AUG-CC-PVTZ AUX)
    Blend: AUG-CC-PVTZ-RI
    Molecular point group: c1

    Geometry (in Angstrom), charge = 0, multiplicity = 1:

       Center              X                  Y                   Z               Mass
    ------------   -----------------  -----------------  -----------------  -----------------
         BR          -3.568235951608     0.232583846270    -0.006547679892    78.918337600000
         BR           3.574527048392    -0.238344153730    -0.006547679892    78.918337600000
         O           -1.703246951608    -1.858516153730    -0.006543679892    15.994914619570
         O            1.709542048392     1.852759846270    -0.006543679892    15.994914619570
         C           -0.675149951608     0.343862846270    -0.006534679892    12.000000000000
         C            0.681442048392    -0.349618153730    -0.006534679892    12.000000000000
         C           -1.792417951608    -0.663271153730    -0.006542679892    12.000000000000
         C            1.735304848392     0.715548646270     0.125372320108    12.000000000000
         H           -0.802202951608     0.992043846270    -0.879995679892     1.007825032230
         H           -0.802207951608     0.992031846270     0.866935320108     1.007825032230
         H            0.808493048392    -0.997798153730    -0.879996679892     1.007825032230
         H            0.808499048392    -0.997788153730     0.866933320108     1.007825032230

  Basis Set: AUG-CC-PVTZ
    Blend: AUG-CC-PVTZ
  Basis Set: (AUG-CC-PVTZ AUX)
    Blend: AUG-CC-PVTZ-JKFIT
	 Reference Energy          =   -5448.5603864010035977 [Eh]
	 Singles Energy            =      -0.0000000000000000 [Eh]
	 Same-Spin Energy          =      -0.4813555832069201 [Eh]
	 Opposite-Spin Energy      =      -1.3288368974001261 [Eh]
	 Correlation Energy        =      -1.8101924806070462 [Eh]
	 Total Energy              =   -5450.3705788816105269 [Eh]

	 ================> DF-SCS-MP2 Energies <==================
	-----------------------------------------------------------
	 SCS Same-Spin Scale       =       0.3333333333333333 [-]
	 SCS Opposite-Spin Scale   =       1.2000000000000000 [-]
	 SCS Same-Spin Energy      =      -0.1604518610689734 [Eh]
	 SCS Opposite-Spin Energy  =      -1.5946042768801514 [Eh]
	 SCS Correlation Energy    =      -1.7550561379491247 [Eh]
	 SCS Total Energy          =   -5450.3154425389529933 [Eh]
	-----------------------------------------------------------

  Dipole Moment: [D]
     X:    -0.9109      Y:     0.5364      Z:     0.0888     Total:     1.0608

*** Psi4 exiting successfully. Buy a developer a beer!
