                               Psi4 1.4a3.dev225

  ==> Input File <==

--------------------------------------------------------------------------
#psi4
#
memory 32 gb

molecule  {
0 1
 Br       -3.5713820     0.2354630    -0.0000030
 Br        3.5713810    -0.2354650    -0.0000030
  O       -1.7063930    -1.8556370     0.0000010
  O        1.7063960     1.8556390     0.0000010
  C       -0.6782960     0.3467420     0.0000100
  C        0.6782960    -0.3467390     0.0000100
  C       -1.7955640    -0.6603920     0.0000020
  C        1.8310710     0.6155319    -0.0880307
  H       -0.8053490     0.9949230    -0.8734510
  H       -0.8053540     0.9949110     0.8734800
  H        0.8053470    -0.9949190    -0.8734520
  H        0.8053530    -0.9949090     0.8734780
units angstrom
no_reorient  #important for SAPT in psi4, default
symmetry c1  #important for SAPT in psi4, default
}

set PROPERTIES_ORIGIN ["COM"]
properties('MP2/aug-cc-pvtz', properties = ['dipole'])
--------------------------------------------------------------------------

    Molecular point group: c1
  Charge       = 0
  Multiplicity = 1
  Basis Set: AUG-CC-PVTZ
    Blend: AUG-CC-PVTZ
  Basis Set: (AUG-CC-PVTZ AUX)
    Blend: AUG-CC-PVTZ-JKFIT

    Orbital Energies [Eh]
    ---------------------

    Doubly Occupied:

       1A   -490.054910     2A   -490.040873     3A    -65.194782
       4A    -65.180751     5A    -58.550027     6A    -58.548704
       7A    -58.548553     8A    -58.535958     9A    -58.534698
      10A    -58.534563    11A    -20.616363    12A    -20.607988
      13A    -11.430053    14A    -11.427511    15A    -11.295311
      16A    -11.294621    17A     -9.867557    18A     -9.853396
      19A     -7.478946    20A     -7.472582    21A     -7.471936
      22A     -7.464520    23A     -7.458532    24A     -7.457974
      25A     -3.222654    26A     -3.219492    27A     -3.218624
      28A     -3.210535    29A     -3.210513    30A     -3.208040
      31A     -3.205127    32A     -3.204363    33A     -3.196723
      34A     -3.196705    35A     -1.457415    36A     -1.418563
      37A     -1.136446    38A     -1.076677    39A     -1.042990
      40A     -0.966386    41A     -0.786770    42A     -0.781035
      43A     -0.704130    44A     -0.698315    45A     -0.678289
      46A     -0.641311    47A     -0.633179    48A     -0.615262
      49A     -0.569259    50A     -0.560037    51A     -0.535281
      52A     -0.463930    53A     -0.448526    54A     -0.444775
      55A     -0.440238    56A     -0.436634    57A     -0.433039

  @DF-RHF Final Energy: -5448.55577562075177

   => Energetics <=

    Nuclear Repulsion Energy =            771.3662971441665377
    One-Electron Energy =               -9115.8793948403126706
    Two-Electron Energy =                2895.9573220753945861
    Total Energy =                      -5448.5557756207517741
  Basis Set: (AUG-CC-PVTZ AUX)
    Blend: AUG-CC-PVTZ-RI
    Molecular point group: c1

    Geometry (in Angstrom), charge = 0, multiplicity = 1:

       Center              X                  Y                   Z               Mass
    ------------   -----------------  -----------------  -----------------  -----------------
         BR          -3.573143572440     0.237689122084     0.004365229885    78.918337600000
         BR           3.569619427560    -0.233238877916     0.004365229885    78.918337600000
         O           -1.708154572440    -1.853410877916     0.004369229885    15.994914619570
         O            1.704634427560     1.857865122084     0.004369229885    15.994914619570
         C           -0.680057572440     0.348968122084     0.004378229885    12.000000000000
         C            0.676534427560    -0.344512877916     0.004378229885    12.000000000000
         C           -1.797325572440    -0.658165877916     0.004370229885    12.000000000000
         C            1.829309427560     0.617758022084    -0.083662470115    12.000000000000
         H           -0.807110572440     0.997149122084    -0.869082770115     1.007825032230
         H           -0.807115572440     0.997137122084     0.877848229885     1.007825032230
         H            0.803585427560    -0.992692877916    -0.869083770115     1.007825032230
         H            0.803591427560    -0.992682877916     0.877846229885     1.007825032230

  Basis Set: AUG-CC-PVTZ
    Blend: AUG-CC-PVTZ
  Basis Set: (AUG-CC-PVTZ AUX)
    Blend: AUG-CC-PVTZ-JKFIT
	 Reference Energy          =   -5448.5557756207517741 [Eh]
	 Singles Energy            =      -0.0000000000000000 [Eh]
	 Same-Spin Energy          =      -0.4837902065532087 [Eh]
	 Opposite-Spin Energy      =      -1.3346411570535688 [Eh]
	 Correlation Energy        =      -1.8184313636067775 [Eh]
	 Total Energy              =   -5450.3742069843583522 [Eh]

	 ================> DF-SCS-MP2 Energies <==================
	-----------------------------------------------------------
	 SCS Same-Spin Scale       =       0.3333333333333333 [-]
	 SCS Opposite-Spin Scale   =       1.2000000000000000 [-]
	 SCS Same-Spin Energy      =      -0.1612634021844029 [Eh]
	 SCS Opposite-Spin Energy  =      -1.6015693884642825 [Eh]
	 SCS Correlation Energy    =      -1.7628327906486854 [Eh]
	 SCS Total Energy          =   -5450.3186084114004188 [Eh]
	-----------------------------------------------------------

  Dipole Moment: [D]
     X:     0.5342      Y:    -0.3327      Z:    -0.0328     Total:     0.6302

*** Psi4 exiting successfully. Buy a developer a beer!
