                               Psi4 1.4a3.dev225

  ==> Input File <==

--------------------------------------------------------------------------
#psi4
#
memory 32 gb

molecule  {
0 1
 Br       -3.5713820     0.2354630    -0.0000030
 Br        3.5713810    -0.2354650    -0.0000030
  O       -1.7063930    -1.8556370     0.0000010
  O        1.7063960     1.8556390     0.0000010
  C       -0.6782960     0.3467420     0.0000100
  C        0.6782960    -0.3467390     0.0000100
  C       -1.7955640    -0.6603920     0.0000020
  C        1.7955640     0.6603950     0.0000020
  H       -0.8053490     0.9949230    -0.8734510
  H       -0.8053540     0.9949110     0.8734800
  H        0.8053470    -0.9949190    -0.8734520
  H        0.8053530    -0.9949090     0.8734780
units angstrom
no_reorient  #important for SAPT in psi4, default
symmetry c1  #important for SAPT in psi4, default
}

set PROPERTIES_ORIGIN ["COM"]
properties('MP2/aug-cc-pvtz', properties = ['dipole'])
--------------------------------------------------------------------------

    Molecular point group: c1
  Charge       = 0
  Multiplicity = 1
  Basis Set: AUG-CC-PVTZ
    Blend: AUG-CC-PVTZ
  Basis Set: (AUG-CC-PVTZ AUX)
    Blend: AUG-CC-PVTZ-JKFIT

    Orbital Energies [Eh]
    ---------------------

    Doubly Occupied:

       1A   -490.042246     2A   -490.042245     3A    -65.182123
       4A    -65.182123     5A    -58.537330     6A    -58.537329
       7A    -58.536069     8A    -58.536069     9A    -58.535934
      10A    -58.535933    11A    -20.618135    12A    -20.618135
      13A    -11.429173    14A    -11.429171    15A    -11.297727
      16A    -11.297099    17A     -9.854768    18A     -9.854768
      19A     -7.465891    20A     -7.465891    21A     -7.459903
      22A     -7.459902    23A     -7.459345    24A     -7.459345
      25A     -3.209411    26A     -3.209411    27A     -3.206498
      28A     -3.206498    29A     -3.205734    30A     -3.205734
      31A     -3.198094    32A     -3.198094    33A     -3.198076
      34A     -3.198075    35A     -1.459754    36A     -1.458393
      37A     -1.139293    38A     -1.068523    39A     -1.038217
      40A     -0.965820    41A     -0.788344    42A     -0.786683
      43A     -0.712631    44A     -0.702368    45A     -0.684162
      46A     -0.650846    47A     -0.639095    48A     -0.622699
      49A     -0.575347    50A     -0.570667    51A     -0.545173
      52A     -0.460486    53A     -0.443027    54A     -0.438938
      55A     -0.437221    56A     -0.435560    57A     -0.431987

  @DF-RHF Final Energy: -5448.56755767531376

   => Energetics <=

    Nuclear Repulsion Energy =            771.0555080897891003
    One-Electron Energy =               -9115.3911111185061600
    Two-Electron Energy =                2895.7680453534035223
    Total Energy =                      -5448.5675576753146743
  Basis Set: (AUG-CC-PVTZ AUX)
    Blend: AUG-CC-PVTZ-RI
    Molecular point group: c1

    Geometry (in Angstrom), charge = 0, multiplicity = 1:

       Center              X                  Y                   Z               Mass
    ------------   -----------------  -----------------  -----------------  -----------------
         BR          -3.571381859599     0.235463197636    -0.000002594432    78.918337600000
         BR           3.571381140401    -0.235464802364    -0.000002594432    78.918337600000
         O           -1.706392859599    -1.855636802364     0.000001405568    15.994914619570
         O            1.706396140401     1.855639197636     0.000001405568    15.994914619570
         C           -0.678295859599     0.346742197636     0.000010405568    12.000000000000
         C            0.678296140401    -0.346738802364     0.000010405568    12.000000000000
         C           -1.795563859599    -0.660391802364     0.000002405568    12.000000000000
         C            1.795564140401     0.660395197636     0.000002405568    12.000000000000
         H           -0.805348859599     0.994923197636    -0.873450594432     1.007825032230
         H           -0.805353859599     0.994911197636     0.873480405568     1.007825032230
         H            0.805347140401    -0.994918802364    -0.873451594432     1.007825032230
         H            0.805353140401    -0.994908802364     0.873478405568     1.007825032230

  Basis Set: AUG-CC-PVTZ
    Blend: AUG-CC-PVTZ
  Basis Set: (AUG-CC-PVTZ AUX)
    Blend: AUG-CC-PVTZ-JKFIT
	 Reference Energy          =   -5448.5675576753137648 [Eh]
	 Singles Energy            =      -0.0000000000000000 [Eh]
	 Same-Spin Energy          =      -0.4823683308460199 [Eh]
	 Opposite-Spin Energy      =      -1.3311493446846567 [Eh]
	 Correlation Energy        =      -1.8135176755306768 [Eh]
	 Total Energy              =   -5450.3810753508441849 [Eh]

	 ================> DF-SCS-MP2 Energies <==================
	-----------------------------------------------------------
	 SCS Same-Spin Scale       =       0.3333333333333333 [-]
	 SCS Opposite-Spin Scale   =       1.2000000000000000 [-]
	 SCS Same-Spin Energy      =      -0.1607894436153400 [Eh]
	 SCS Opposite-Spin Energy  =      -1.5973792136215881 [Eh]
	 SCS Correlation Energy    =      -1.7581686572369279 [Eh]
	 SCS Total Energy          =   -5450.3257263325504027 [Eh]
	-----------------------------------------------------------

  Dipole Moment: [D]
     X:    -0.0000      Y:     0.0000      Z:     0.0000     Total:     0.0000

*** Psi4 exiting successfully. Buy a developer a beer!
