                               Psi4 1.4a3.dev225

  ==> Input File <==

--------------------------------------------------------------------------
#psi4
#
memory 32 gb

molecule  {
0 1
 Br       -3.5713820     0.2354630    -0.0000030
 Br        3.5713810    -0.2354650    -0.0000030
  O       -1.7063930    -1.8556370     0.0000010
  O        1.7063960     1.8556390     0.0000010
  C       -0.6782960     0.3467420     0.0000100
  C        0.6782960    -0.3467390     0.0000100
  C       -1.7955640    -0.6603920     0.0000020
  C        1.8848462     0.6153541     0.0000017
  H       -0.8053490     0.9949230    -0.8734510
  H       -0.8053540     0.9949110     0.8734800
  H        0.8053470    -0.9949190    -0.8734520
  H        0.8053530    -0.9949090     0.8734780
units angstrom
no_reorient  #important for SAPT in psi4, default
symmetry c1  #important for SAPT in psi4, default
}

set PROPERTIES_ORIGIN ["COM"]
properties('MP2/aug-cc-pvtz', properties = ['dipole'])
--------------------------------------------------------------------------

    Molecular point group: c1
  Charge       = 0
  Multiplicity = 1
  Basis Set: AUG-CC-PVTZ
    Blend: AUG-CC-PVTZ
  Basis Set: (AUG-CC-PVTZ AUX)
    Blend: AUG-CC-PVTZ-JKFIT

    Orbital Energies [Eh]
    ---------------------

    Doubly Occupied:

       1A   -490.062395     2A   -490.039284     3A    -65.202466
       4A    -65.179167     5A    -58.557682     6A    -58.556390
       7A    -58.556217     8A    -58.534372     9A    -58.533115
      10A    -58.532980    11A    -20.614369    12A    -20.602667
      13A    -11.426918    14A    -11.425660    15A    -11.292704
      16A    -11.292028    17A     -9.875569    18A     -9.851816
      19A     -7.487070    20A     -7.480638    21A     -7.479895
      22A     -7.462936    23A     -7.456957    24A     -7.456400
      25A     -3.230852    26A     -3.227575    27A     -3.226589
      28A     -3.218521    29A     -3.218494    30A     -3.206451
      31A     -3.203543    32A     -3.202780    33A     -3.195153
      34A     -3.195135    35A     -1.455449    36A     -1.412239
      37A     -1.130178    38A     -1.086011    39A     -1.042961
      40A     -0.959557    41A     -0.785116    42A     -0.776642
      43A     -0.700845    44A     -0.693273    45A     -0.674449
      46A     -0.638608    47A     -0.633772    48A     -0.611588
      49A     -0.566337    50A     -0.558491    51A     -0.533075
      52A     -0.462056    53A     -0.453020    54A     -0.450411
      55A     -0.440880    56A     -0.435128    57A     -0.431644

  @DF-RHF Final Energy: -5448.55523858516972

   => Energetics <=

    Nuclear Repulsion Energy =            771.9641490272377951
    One-Electron Energy =               -9117.0057411471971136
    Two-Electron Energy =                2896.4863535347894867
    Total Energy =                      -5448.5552385851706276
  Basis Set: (AUG-CC-PVTZ AUX)
    Blend: AUG-CC-PVTZ-RI
    Molecular point group: c1

    Geometry (in Angstrom), charge = 0, multiplicity = 1:

       Center              X                  Y                   Z               Mass
    ------------   -----------------  -----------------  -----------------  -----------------
         BR          -3.575811679021     0.237697943796    -0.000002579547    78.918337600000
         BR           3.566951320979    -0.233230056204    -0.000002579547    78.918337600000
         O           -1.710822679021    -1.853402056204     0.000001420453    15.994914619570
         O            1.701966320979     1.857873943796     0.000001420453    15.994914619570
         C           -0.682725679021     0.348976943796     0.000010420453    12.000000000000
         C            0.673866320979    -0.344504056204     0.000010420453    12.000000000000
         C           -1.799993679021    -0.658157056204     0.000002420453    12.000000000000
         C            1.880416520979     0.617589043796     0.000002120453    12.000000000000
         H           -0.809778679021     0.997157943796    -0.873450579547     1.007825032230
         H           -0.809783679021     0.997145943796     0.873480420453     1.007825032230
         H            0.800917320979    -0.992684056204    -0.873451579547     1.007825032230
         H            0.800923320979    -0.992674056204     0.873478420453     1.007825032230

  Basis Set: AUG-CC-PVTZ
    Blend: AUG-CC-PVTZ
  Basis Set: (AUG-CC-PVTZ AUX)
    Blend: AUG-CC-PVTZ-JKFIT
	 Reference Energy          =   -5448.5552385851697181 [Eh]
	 Singles Energy            =      -0.0000000000000000 [Eh]
	 Same-Spin Energy          =      -0.4837394302236344 [Eh]
	 Opposite-Spin Energy      =      -1.3344179928032758 [Eh]
	 Correlation Energy        =      -1.8181574230269102 [Eh]
	 Total Energy              =   -5450.3733960081963232 [Eh]

	 ================> DF-SCS-MP2 Energies <==================
	-----------------------------------------------------------
	 SCS Same-Spin Scale       =       0.3333333333333333 [-]
	 SCS Opposite-Spin Scale   =       1.2000000000000000 [-]
	 SCS Same-Spin Energy      =      -0.1612464767412115 [Eh]
	 SCS Opposite-Spin Energy  =      -1.6013015913639308 [Eh]
	 SCS Correlation Energy    =      -1.7625480681051422 [Eh]
	 SCS Total Energy          =   -5450.3177866532751068 [Eh]
	-----------------------------------------------------------

  Dipole Moment: [D]
     X:     1.0144      Y:    -0.4498      Z:     0.0000     Total:     1.1097

*** Psi4 exiting successfully. Buy a developer a beer!
