                               Psi4 1.4a3.dev225

  ==> Input File <==

--------------------------------------------------------------------------
#psi4
#
memory 32 gb

molecule  {
0 1
 Br       -3.5713820     0.2354630    -0.0000030
 Br        3.5713810    -0.2354650    -0.0000030
  O       -1.7063930    -1.8556370     0.0000010
  O        1.7063960     1.8556390     0.0000010
  C       -0.6782960     0.3467420     0.0000100
  C        0.6782960    -0.3467390     0.0000100
  C       -1.7955640    -0.6603920     0.0000020
  C        1.6169995     0.7504768     0.0000025
  H       -0.8053490     0.9949230    -0.8734510
  H       -0.8053540     0.9949110     0.8734800
  H        0.8053470    -0.9949190    -0.8734520
  H        0.8053530    -0.9949090     0.8734780
units angstrom
no_reorient  #important for SAPT in psi4, default
symmetry c1  #important for SAPT in psi4, default
}

set PROPERTIES_ORIGIN ["COM"]
properties('MP2/aug-cc-pvtz', properties = ['dipole'])
--------------------------------------------------------------------------

    Molecular point group: c1
  Charge       = 0
  Multiplicity = 1
  Basis Set: AUG-CC-PVTZ
    Blend: AUG-CC-PVTZ
  Basis Set: (AUG-CC-PVTZ AUX)
    Blend: AUG-CC-PVTZ-JKFIT

    Orbital Energies [Eh]
    ---------------------

    Doubly Occupied:

       1A   -490.050988     2A   -489.989975     3A    -65.190839
       4A    -65.130136     5A    -58.546053     6A    -58.544777
       7A    -58.544642     8A    -58.485100     9A    -58.484222
      10A    -58.484129    11A    -20.662193    12A    -20.628681
      13A    -11.444867    14A    -11.439369    15A    -11.316696
      16A    -11.313042    17A     -9.863465    18A     -9.802705
      19A     -7.474611    20A     -7.468566    21A     -7.468010
      22A     -7.412686    23A     -7.408503    24A     -7.408158
      25A     -3.218151    26A     -3.215210    27A     -3.214448
      28A     -3.206733    29A     -3.206715    30A     -3.155450
      31A     -3.153580    32A     -3.153074    33A     -3.147753
      34A     -3.147740    35A     -1.558230    36A     -1.469244
      37A     -1.169765    38A     -1.073224    39A     -1.011373
      40A     -0.960923    41A     -0.819897    42A     -0.801543
      43A     -0.752850    44A     -0.731545    45A     -0.706180
      46A     -0.675263    47A     -0.663105    48A     -0.660263
      49A     -0.601937    50A     -0.600125    51A     -0.564552
      52A     -0.463375    53A     -0.446490    54A     -0.444737
      55A     -0.404891    56A     -0.398626    57A     -0.395323

  @DF-RHF Final Energy: -5448.55018266782190

   => Energetics <=

    Nuclear Repulsion Energy =            769.8691048345423269
    One-Electron Energy =               -9113.3291277085936599
    Two-Electron Energy =                2894.9098402062286368
    Total Energy =                      -5448.5501826678228099
  Basis Set: (AUG-CC-PVTZ AUX)
    Blend: AUG-CC-PVTZ-RI
    Molecular point group: c1

    Geometry (in Angstrom), charge = 0, multiplicity = 1:

       Center              X                  Y                   Z               Mass
    ------------   -----------------  -----------------  -----------------  -----------------
         BR          -3.562522215794     0.230993705317    -0.000002619240    78.918337600000
         BR           3.580240784206    -0.239934294683    -0.000002619240    78.918337600000
         O           -1.697533215794    -1.860106294683     0.000001380760    15.994914619570
         O            1.715255784206     1.851169705317     0.000001380760    15.994914619570
         C           -0.669436215794     0.342272705317     0.000010380760    12.000000000000
         C            0.687155784206    -0.351208294683     0.000010380760    12.000000000000
         C           -1.786704215794    -0.664861294683     0.000002380760    12.000000000000
         C            1.625859284206     0.746007505317     0.000002880760    12.000000000000
         H           -0.796489215794     0.990453705317    -0.873450619240     1.007825032230
         H           -0.796494215794     0.990441705317     0.873480380760     1.007825032230
         H            0.814206784206    -0.999388294683    -0.873451619240     1.007825032230
         H            0.814212784206    -0.999378294683     0.873478380760     1.007825032230

  Basis Set: AUG-CC-PVTZ
    Blend: AUG-CC-PVTZ
  Basis Set: (AUG-CC-PVTZ AUX)
    Blend: AUG-CC-PVTZ-JKFIT
	 Reference Energy          =   -5448.5501826678219004 [Eh]
	 Singles Energy            =      -0.0000000000000000 [Eh]
	 Same-Spin Energy          =      -0.4809594813763143 [Eh]
	 Opposite-Spin Energy      =      -1.3263343448756935 [Eh]
	 Correlation Energy        =      -1.8072938262520077 [Eh]
	 Total Energy              =   -5450.3574764940740351 [Eh]

	 ================> DF-SCS-MP2 Energies <==================
	-----------------------------------------------------------
	 SCS Same-Spin Scale       =       0.3333333333333333 [-]
	 SCS Opposite-Spin Scale   =       1.2000000000000000 [-]
	 SCS Same-Spin Energy      =      -0.1603198271254381 [Eh]
	 SCS Opposite-Spin Energy  =      -1.5916012138508322 [Eh]
	 SCS Correlation Energy    =      -1.7519210409762702 [Eh]
	 SCS Total Energy          =   -5450.3021037087983132 [Eh]
	-----------------------------------------------------------

  Dipole Moment: [D]
     X:    -2.4089      Y:     1.0478      Z:     0.0000     Total:     2.6269

*** Psi4 exiting successfully. Buy a developer a beer!
