                               Psi4 1.4a3.dev225

  ==> Input File <==

--------------------------------------------------------------------------
#psi4
#
memory 32 gb

molecule  {
0 1
 Br       -3.5713820     0.2354630    -0.0000030
 Br        3.5713810    -0.2354650    -0.0000030
  O       -1.7063930    -1.8556370     0.0000010
  O        1.7063960     1.8556390     0.0000010
  C       -0.6782960     0.3467420     0.0000100
  C        0.6782960    -0.3467390     0.0000100
  C       -1.7955640    -0.6603920     0.0000020
  C        1.8104193     0.6737860     0.0000019
  H       -0.8053490     0.9949230    -0.8734510
  H       -0.8053540     0.9949110     0.8734800
  H        0.8053470    -0.9949190    -0.8734520
  H        0.8053530    -0.9949090     0.8734780
units angstrom
no_reorient  #important for SAPT in psi4, default
symmetry c1  #important for SAPT in psi4, default
}

set PROPERTIES_ORIGIN ["COM"]
properties('MP2/aug-cc-pvtz', properties = ['dipole'])
--------------------------------------------------------------------------

    Molecular point group: c1
  Charge       = 0
  Multiplicity = 1
  Basis Set: AUG-CC-PVTZ
    Blend: AUG-CC-PVTZ
  Basis Set: (AUG-CC-PVTZ AUX)
    Blend: AUG-CC-PVTZ-JKFIT

    Orbital Energies [Eh]
    ---------------------

    Doubly Occupied:

       1A   -490.042443     2A   -490.041781     3A    -65.182368
       4A    -65.181661     5A    -58.537565     6A    -58.536867
       7A    -58.536315     8A    -58.536178     9A    -58.535608
      10A    -58.535473    11A    -20.618698    12A    -20.617579
      13A    -11.428644    14A    -11.427364    15A    -11.297109
      16A    -11.296355    17A     -9.855071    18A     -9.854309
      19A     -7.466188    20A     -7.465429    21A     -7.460222
      22A     -7.459658    23A     -7.459447    24A     -7.458890
      25A     -3.209701    26A     -3.208946    27A     -3.206790
      28A     -3.206036    29A     -3.206018    30A     -3.205273
      31A     -3.198425    32A     -3.198406    33A     -3.197642
      34A     -3.197623    35A     -1.467750    36A     -1.458460
      37A     -1.136178    38A     -1.067728    39A     -1.038520
      40A     -0.962519    41A     -0.788194    42A     -0.785864
      43A     -0.713271    44A     -0.700826    45A     -0.683694
      46A     -0.651907    47A     -0.640626    48A     -0.623418
      49A     -0.574935    50A     -0.573152    51A     -0.545260
      52A     -0.459343    53A     -0.442331    54A     -0.439263
      55A     -0.437173    56A     -0.435869    57A     -0.431286

  @DF-RHF Final Energy: -5448.56880494892539

   => Energetics <=

    Nuclear Repulsion Energy =            771.1110343326478187
    One-Electron Energy =               -9115.5123856238496955
    Two-Electron Energy =                2895.8325463422766006
    Total Energy =                      -5448.5688049489253899
  Basis Set: (AUG-CC-PVTZ AUX)
    Blend: AUG-CC-PVTZ-RI
    Molecular point group: c1

    Geometry (in Angstrom), charge = 0, multiplicity = 1:

       Center              X                  Y                   Z               Mass
    ------------   -----------------  -----------------  -----------------  -----------------
         BR          -3.572118919130     0.234798790712    -0.000002589470    78.918337600000
         BR           3.570644080870    -0.236129209288    -0.000002589470    78.918337600000
         O           -1.707129919130    -1.856301209288     0.000001410530    15.994914619570
         O            1.705659080870     1.854974790712     0.000001410530    15.994914619570
         C           -0.679032919130     0.346077790712     0.000010410530    12.000000000000
         C            0.677559080870    -0.347403209288     0.000010410530    12.000000000000
         C           -1.796300919130    -0.661056209288     0.000002410530    12.000000000000
         C            1.809682380870     0.673121790712     0.000002310530    12.000000000000
         H           -0.806085919130     0.994258790712    -0.873450589470     1.007825032230
         H           -0.806090919130     0.994246790712     0.873480410530     1.007825032230
         H            0.804610080870    -0.995583209288    -0.873451589470     1.007825032230
         H            0.804616080870    -0.995573209288     0.873478410530     1.007825032230

  Basis Set: AUG-CC-PVTZ
    Blend: AUG-CC-PVTZ
  Basis Set: (AUG-CC-PVTZ AUX)
    Blend: AUG-CC-PVTZ-JKFIT
	 Reference Energy          =   -5448.5688049489253899 [Eh]
	 Singles Energy            =      -0.0000000000000000 [Eh]
	 Same-Spin Energy          =      -0.4819237904936219 [Eh]
	 Opposite-Spin Energy      =      -1.3302468279735844 [Eh]
	 Correlation Energy        =      -1.8121706184672064 [Eh]
	 Total Energy              =   -5450.3809755673928521 [Eh]

	 ================> DF-SCS-MP2 Energies <==================
	-----------------------------------------------------------
	 SCS Same-Spin Scale       =       0.3333333333333333 [-]
	 SCS Opposite-Spin Scale   =       1.2000000000000000 [-]
	 SCS Same-Spin Energy      =      -0.1606412634978740 [Eh]
	 SCS Opposite-Spin Energy  =      -1.5962961935683013 [Eh]
	 SCS Correlation Energy    =      -1.7569374570661753 [Eh]
	 SCS Total Energy          =   -5450.3257424059911500 [Eh]
	-----------------------------------------------------------

  Dipole Moment: [D]
     X:     0.0832      Y:     0.0512      Z:     0.0000     Total:     0.0977

*** Psi4 exiting successfully. Buy a developer a beer!
