                               Psi4 1.4a3.dev225

  ==> Input File <==

--------------------------------------------------------------------------
#psi4
#
memory 32 gb

molecule  {
0 1
 Br       -3.5713820     0.2354630    -0.0000030
 Br        3.5713810    -0.2354650    -0.0000030
  O       -1.7063930    -1.8556370     0.0000010
  O        1.7063960     1.8556390     0.0000010
  C       -0.6782960     0.3467420     0.0000100
  C        0.6782960    -0.3467390     0.0000100
  C       -1.7955640    -0.6603920     0.0000020
  C        1.7546138     0.7003514     0.0880347
  H       -0.8053490     0.9949230    -0.8734510
  H       -0.8053540     0.9949110     0.8734800
  H        0.8053470    -0.9949190    -0.8734520
  H        0.8053530    -0.9949090     0.8734780
units angstrom
no_reorient  #important for SAPT in psi4, default
symmetry c1  #important for SAPT in psi4, default
}

set PROPERTIES_ORIGIN ["COM"]
properties('MP2/aug-cc-pvtz', properties = ['dipole'])
--------------------------------------------------------------------------

    Molecular point group: c1
  Charge       = 0
  Multiplicity = 1
  Basis Set: AUG-CC-PVTZ
    Blend: AUG-CC-PVTZ
  Basis Set: (AUG-CC-PVTZ AUX)
    Blend: AUG-CC-PVTZ-JKFIT

    Orbital Energies [Eh]
    ---------------------

    Doubly Occupied:

       1A   -490.043999     2A   -490.028272     3A    -65.183874
       4A    -65.168181     5A    -58.539081     6A    -58.537819
       7A    -58.537684     8A    -58.523339     9A    -58.522152
      10A    -58.522034    11A    -20.630487    12A    -20.620320
      13A    -11.431244    14A    -11.431051    15A    -11.301935
      16A    -11.300388    17A     -9.856518    18A     -9.840735
      19A     -7.467642    20A     -7.461649    21A     -7.461092
      22A     -7.451574    23A     -7.445996    24A     -7.445523
      25A     -3.211163    26A     -3.208248    27A     -3.207485
      28A     -3.199839    29A     -3.199821    30A     -3.194894
      31A     -3.192245    32A     -3.191585    33A     -3.184446
      34A     -3.184431    35A     -1.495636    36A     -1.461141
      37A     -1.143454    38A     -1.064784    39A     -1.029085
      40A     -0.965220    41A     -0.795239    42A     -0.790362
      43A     -0.723662    44A     -0.707713    45A     -0.688840
      46A     -0.659267    47A     -0.644673    48A     -0.633355
      49A     -0.583307    50A     -0.580267    51A     -0.550741
      52A     -0.458954    53A     -0.439870    54A     -0.439606
      55A     -0.431286    56A     -0.427456    57A     -0.423790

  @DF-RHF Final Energy: -5448.56565118489107

   => Energetics <=

    Nuclear Repulsion Energy =            770.5278573827313267
    One-Electron Energy =               -9114.4581090058345580
    Two-Electron Energy =                2895.3646004382121646
    Total Energy =                      -5448.5656511848919763
  Basis Set: (AUG-CC-PVTZ AUX)
    Blend: AUG-CC-PVTZ-RI
    Molecular point group: c1

    Geometry (in Angstrom), charge = 0, multiplicity = 1:

       Center              X                  Y                   Z               Mass
    ------------   -----------------  -----------------  -----------------  -----------------
         BR          -3.569350077326     0.233480723675    -0.004370418749    78.918337600000
         BR           3.573412922674    -0.237447276325    -0.004370418749    78.918337600000
         O           -1.704361077326    -1.857619276325    -0.004366418749    15.994914619570
         O            1.708427922674     1.853656723675    -0.004366418749    15.994914619570
         C           -0.676264077326     0.344759723675    -0.004357418749    12.000000000000
         C            0.680327922674    -0.348721276325    -0.004357418749    12.000000000000
         C           -1.793532077326    -0.662374276325    -0.004365418749    12.000000000000
         C            1.756645722674     0.698369123675     0.083667281251    12.000000000000
         H           -0.803317077326     0.992940723675    -0.877818418749     1.007825032230
         H           -0.803322077326     0.992928723675     0.869112581251     1.007825032230
         H            0.807378922674    -0.996901276325    -0.877819418749     1.007825032230
         H            0.807384922674    -0.996891276325     0.869110581251     1.007825032230

  Basis Set: AUG-CC-PVTZ
    Blend: AUG-CC-PVTZ
  Basis Set: (AUG-CC-PVTZ AUX)
    Blend: AUG-CC-PVTZ-JKFIT
	 Reference Energy          =   -5448.5656511848910668 [Eh]
	 Singles Energy            =      -0.0000000000000000 [Eh]
	 Same-Spin Energy          =      -0.4815489785647062 [Eh]
	 Opposite-Spin Energy      =      -1.3292327938531752 [Eh]
	 Correlation Energy        =      -1.8107817724178814 [Eh]
	 Total Energy              =   -5450.3764329573086798 [Eh]

	 ================> DF-SCS-MP2 Energies <==================
	-----------------------------------------------------------
	 SCS Same-Spin Scale       =       0.3333333333333333 [-]
	 SCS Opposite-Spin Scale   =       1.2000000000000000 [-]
	 SCS Same-Spin Energy      =      -0.1605163261882354 [Eh]
	 SCS Opposite-Spin Energy  =      -1.5950793526238101 [Eh]
	 SCS Correlation Energy    =      -1.7555956788120455 [Eh]
	 SCS Total Energy          =   -5450.3212468637029815 [Eh]
	-----------------------------------------------------------

  Dipole Moment: [D]
     X:    -0.5981      Y:     0.3580      Z:     0.0550     Total:     0.6993

*** Psi4 exiting successfully. Buy a developer a beer!
