                               Psi4 1.4a3.dev225

  ==> Input File <==

--------------------------------------------------------------------------
#psi4
#
memory 32 gb

molecule  {
0 1
 Br       -3.5713820     0.2354630    -0.0000030
 Br        3.5713810    -0.2354650    -0.0000030
  O       -1.7063930    -1.8556370     0.0000010
  O        1.7063960     1.8556390     0.0000010
  C       -0.6782960     0.3467420     0.0000100
  C        0.6782960    -0.3467390     0.0000100
  C       -1.7955640    -0.6603920     0.0000020
  C        1.7212873     0.5934400     0.0000025
  H       -0.8053490     0.9949230    -0.8734510
  H       -0.8053540     0.9949110     0.8734800
  H        0.8053470    -0.9949190    -0.8734520
  H        0.8053530    -0.9949090     0.8734780
units angstrom
no_reorient  #important for SAPT in psi4, default
symmetry c1  #important for SAPT in psi4, default
}

set PROPERTIES_ORIGIN ["COM"]
properties('MP2/aug-cc-pvtz', properties = ['dipole'])
--------------------------------------------------------------------------

    Molecular point group: c1
  Charge       = 0
  Multiplicity = 1
  Basis Set: AUG-CC-PVTZ
    Blend: AUG-CC-PVTZ
  Basis Set: (AUG-CC-PVTZ AUX)
    Blend: AUG-CC-PVTZ-JKFIT

    Orbital Energies [Eh]
    ---------------------

    Doubly Occupied:

       1A   -490.044745     2A   -490.041092     3A    -65.184606
       4A    -65.180727     5A    -58.539819     6A    -58.538549
       7A    -58.538413     8A    -58.535989     9A    -58.534662
      10A    -58.534536    11A    -20.621086    12A    -20.614255
      13A    -11.437470    14A    -11.431998    15A    -11.302343
      16A    -11.298525    17A     -9.857238    18A     -9.853086
      19A     -7.468378    20A     -7.464256    21A     -7.462354
      22A     -7.461794    23A     -7.458110    24A     -7.457584
      25A     -3.211911    26A     -3.208982    27A     -3.208215
      28A     -3.207821    29A     -3.204880    30A     -3.204156
      31A     -3.200526    32A     -3.200508    33A     -3.196225
      34A     -3.196209    35A     -1.462117    36A     -1.416277
      37A     -1.159088    38A     -1.074835    39A     -1.035527
      40A     -0.981047    41A     -0.792015    42A     -0.789808
      43A     -0.711686    44A     -0.709187    45A     -0.687156
      46A     -0.649631    47A     -0.629210    48A     -0.624374
      49A     -0.574341    50A     -0.562989    51A     -0.535527
      52A     -0.464799    53A     -0.446587    54A     -0.440489
      55A     -0.436377    56A     -0.434174    57A     -0.429839

  @DF-RHF Final Energy: -5448.54572343525342

   => Energetics <=

    Nuclear Repulsion Energy =            770.8389369446945238
    One-Electron Energy =               -9114.8730636698837770
    Two-Electron Energy =                2895.4884032899367412
    Total Energy =                      -5448.5457234352525120
  Basis Set: (AUG-CC-PVTZ AUX)
    Blend: AUG-CC-PVTZ-RI
    Molecular point group: c1

    Geometry (in Angstrom), charge = 0, multiplicity = 1:

       Center              X                  Y                   Z               Mass
    ------------   -----------------  -----------------  -----------------  -----------------
         BR          -3.567696552021     0.238785232257    -0.000002619240    78.918337600000
         BR           3.575066447979    -0.232142767743    -0.000002619240    78.918337600000
         O           -1.702707552021    -1.852314767743     0.000001380760    15.994914619570
         O            1.710081447979     1.858961232257     0.000001380760    15.994914619570
         C           -0.674610552021     0.350064232257     0.000010380760    12.000000000000
         C            0.681981447979    -0.343416767743     0.000010380760    12.000000000000
         C           -1.791878552021    -0.657069767743     0.000002380760    12.000000000000
         C            1.724972747979     0.596762232257     0.000002880760    12.000000000000
         H           -0.801663552021     0.998245232257    -0.873450619240     1.007825032230
         H           -0.801668552021     0.998233232257     0.873480380760     1.007825032230
         H            0.809032447979    -0.991596767743    -0.873451619240     1.007825032230
         H            0.809038447979    -0.991586767743     0.873478380760     1.007825032230

  Basis Set: AUG-CC-PVTZ
    Blend: AUG-CC-PVTZ
  Basis Set: (AUG-CC-PVTZ AUX)
    Blend: AUG-CC-PVTZ-JKFIT
	 Reference Energy          =   -5448.5457234352534215 [Eh]
	 Singles Energy            =      -0.0000000000000000 [Eh]
	 Same-Spin Energy          =      -0.4851599739229340 [Eh]
	 Opposite-Spin Energy      =      -1.3367000660032273 [Eh]
	 Correlation Energy        =      -1.8218600399261613 [Eh]
	 Total Energy              =   -5450.3675834751793445 [Eh]

	 ================> DF-SCS-MP2 Energies <==================
	-----------------------------------------------------------
	 SCS Same-Spin Scale       =       0.3333333333333333 [-]
	 SCS Opposite-Spin Scale   =       1.2000000000000000 [-]
	 SCS Same-Spin Energy      =      -0.1617199913076446 [Eh]
	 SCS Opposite-Spin Energy  =      -1.6040400792038727 [Eh]
	 SCS Correlation Energy    =      -1.7657600705115173 [Eh]
	 SCS Total Energy          =   -5450.3114835057649543 [Eh]
	-----------------------------------------------------------

  Dipole Moment: [D]
     X:    -0.4338      Y:    -0.2483      Z:     0.0000     Total:     0.4998

*** Psi4 exiting successfully. Buy a developer a beer!
