                               Psi4 1.4a3.dev225

  ==> Input File <==

--------------------------------------------------------------------------
#psi4
#
memory 32 gb

molecule  {
0 1
 Br       -3.5713820     0.2354630    -0.0000030
 Br        3.5713810    -0.2354650    -0.0000030
  O       -1.7063930    -1.8556370     0.0000010
  O        1.7063960     1.8556390     0.0000010
  C       -0.6782960     0.3467420     0.0000100
  C        0.6782960    -0.3467390     0.0000100
  C       -1.7955640    -0.6603920     0.0000020
  C        1.8049583     0.6496311    -0.0220229
  H       -0.8053490     0.9949230    -0.8734510
  H       -0.8053540     0.9949110     0.8734800
  H        0.8053470    -0.9949190    -0.8734520
  H        0.8053530    -0.9949090     0.8734780
units angstrom
no_reorient  #important for SAPT in psi4, default
symmetry c1  #important for SAPT in psi4, default
}

set PROPERTIES_ORIGIN ["COM"]
properties('MP2/aug-cc-pvtz', properties = ['dipole'])
--------------------------------------------------------------------------

    Molecular point group: c1
  Charge       = 0
  Multiplicity = 1
  Basis Set: AUG-CC-PVTZ
    Blend: AUG-CC-PVTZ
  Basis Set: (AUG-CC-PVTZ AUX)
    Blend: AUG-CC-PVTZ-JKFIT

    Orbital Energies [Eh]
    ---------------------

    Doubly Occupied:

       1A   -490.045558     2A   -490.041866     3A    -65.185432
       4A    -65.181744     5A    -58.540650     6A    -58.539372
       7A    -58.539233     8A    -58.536951     9A    -58.535690
      10A    -58.535555    11A    -20.617652    12A    -20.615382
      13A    -11.429160    14A    -11.428718    15A    -11.297006
      16A    -11.296356    17A     -9.858107    18A     -9.854389
      19A     -7.469298    20A     -7.465512    21A     -7.463212
      22A     -7.462632    23A     -7.459524    24A     -7.458967
      25A     -3.212867    26A     -3.209889    27A     -3.209099
      28A     -3.209032    29A     -3.206119    30A     -3.205355
      31A     -3.201341    32A     -3.201322    33A     -3.197716
      34A     -3.197697    35A     -1.458668    36A     -1.449132
      37A     -1.138454    38A     -1.070206    39A     -1.039819
      40A     -0.965943    41A     -0.787767    42A     -0.785134
      43A     -0.710189    44A     -0.701233    45A     -0.682810
      46A     -0.648545    47A     -0.637655    48A     -0.620534
      49A     -0.573815    50A     -0.567662    51A     -0.543235
      52A     -0.461224    53A     -0.444364    54A     -0.440428
      55A     -0.437442    56A     -0.436666    57A     -0.432800

  @DF-RHF Final Energy: -5448.56596363001336

   => Energetics <=

    Nuclear Repulsion Energy =            771.1527268725221802
    One-Electron Energy =               -9115.5531182858358079
    Two-Electron Energy =                2895.8344277833002707
    Total Energy =                      -5448.5659636300133570
  Basis Set: (AUG-CC-PVTZ AUX)
    Blend: AUG-CC-PVTZ-RI
    Molecular point group: c1

    Geometry (in Angstrom), charge = 0, multiplicity = 1:

       Center              X                  Y                   Z               Mass
    ------------   -----------------  -----------------  -----------------  -----------------
         BR          -3.571847966534     0.235997258550     0.001090191474    78.918337600000
         BR           3.570915033466    -0.234930741450     0.001090191474    78.918337600000
         O           -1.706858966534    -1.855102741450     0.001094191474    15.994914619570
         O            1.705930033466     1.856173258550     0.001094191474    15.994914619570
         C           -0.678761966534     0.347276258550     0.001103191474    12.000000000000
         C            0.677830033466    -0.346204741450     0.001103191474    12.000000000000
         C           -1.796029966534    -0.659857741450     0.001095191474    12.000000000000
         C            1.804492333466     0.650165358550    -0.020929708526    12.000000000000
         H           -0.805814966534     0.995457258550    -0.872357808526     1.007825032230
         H           -0.805819966534     0.995445258550     0.874573191474     1.007825032230
         H            0.804881033466    -0.994384741450    -0.872358808526     1.007825032230
         H            0.804887033466    -0.994374741450     0.874571191474     1.007825032230

  Basis Set: AUG-CC-PVTZ
    Blend: AUG-CC-PVTZ
  Basis Set: (AUG-CC-PVTZ AUX)
    Blend: AUG-CC-PVTZ-JKFIT
	 Reference Energy          =   -5448.5659636300133570 [Eh]
	 Singles Energy            =      -0.0000000000000000 [Eh]
	 Same-Spin Energy          =      -0.4826654759134609 [Eh]
	 Opposite-Spin Energy      =      -1.3318700543376516 [Eh]
	 Correlation Energy        =      -1.8145355302511126 [Eh]
	 Total Energy              =   -5450.3804991602646624 [Eh]

	 ================> DF-SCS-MP2 Energies <==================
	-----------------------------------------------------------
	 SCS Same-Spin Scale       =       0.3333333333333333 [-]
	 SCS Opposite-Spin Scale   =       1.2000000000000000 [-]
	 SCS Same-Spin Energy      =      -0.1608884919711536 [Eh]
	 SCS Opposite-Spin Energy  =      -1.5982440652051819 [Eh]
	 SCS Correlation Energy    =      -1.7591325571763354 [Eh]
	 SCS Total Energy          =   -5450.3250961871899563 [Eh]
	-----------------------------------------------------------

  Dipole Moment: [D]
     X:     0.1407      Y:    -0.0869      Z:    -0.0105     Total:     0.1657

*** Psi4 exiting successfully. Buy a developer a beer!
