                               Psi4 1.4a3.dev225

  ==> Input File <==

--------------------------------------------------------------------------
#psi4
#
memory 32 gb

molecule  {
0 1
 Br       -3.5713820     0.2354630    -0.0000030
 Br        3.5713810    -0.2354650    -0.0000030
  O       -1.7063930    -1.8556370     0.0000010
  O        1.7063960     1.8556390     0.0000010
  C       -0.6782960     0.3467420     0.0000100
  C        0.6782960    -0.3467390     0.0000100
  C       -1.6470105    -0.5264821     0.0000031
  C        1.7955640     0.6603950     0.0000020
  H       -0.8053490     0.9949230    -0.8734510
  H       -0.8053540     0.9949110     0.8734800
  H        0.8053470    -0.9949190    -0.8734520
  H        0.8053530    -0.9949090     0.8734780
units angstrom
no_reorient  #important for SAPT in psi4, default
symmetry c1  #important for SAPT in psi4, default
}

set PROPERTIES_ORIGIN ["COM"]
properties('MP2/aug-cc-pvtz', properties = ['dipole'])
--------------------------------------------------------------------------

    Molecular point group: c1
  Charge       = 0
  Multiplicity = 1
  Basis Set: AUG-CC-PVTZ
    Blend: AUG-CC-PVTZ
  Basis Set: (AUG-CC-PVTZ AUX)
    Blend: AUG-CC-PVTZ-JKFIT

    Orbital Energies [Eh]
    ---------------------

    Doubly Occupied:

       1A   -490.047861     2A   -490.038782     3A    -65.187701
       4A    -65.178191     5A    -58.542921     6A    -58.541638
       7A    -58.541502     8A    -58.533507     9A    -58.532109
      10A    -58.531993    11A    -20.624683    12A    -20.607403
      13A    -11.443069    14A    -11.435511    15A    -11.308550
      16A    -11.298531    17A     -9.860314    18A     -9.850287
      19A     -7.471478    20A     -7.465407    21A     -7.464845
      22A     -7.461515    23A     -7.455184    24A     -7.454690
      25A     -3.215028    26A     -3.212076    27A     -3.211307
      28A     -3.205121    29A     -3.203555    30A     -3.203537
      31A     -3.202143    32A     -3.201462    33A     -3.193220
      34A     -3.193205    35A     -1.465812    36A     -1.375464
      37A     -1.186836    38A     -1.083654    39A     -1.032450
      40A     -0.992059    41A     -0.798703    42A     -0.793466
      43A     -0.724581    44A     -0.707594    45A     -0.688806
      46A     -0.650522    47A     -0.631373    48A     -0.624834
      49A     -0.565465    50A     -0.564012    51A     -0.513070
      52A     -0.465988    53A     -0.448563    54A     -0.443287
      55A     -0.438865    56A     -0.429423    57A     -0.423202

  @DF-RHF Final Energy: -5448.49532453676966

   => Energetics <=

    Nuclear Repulsion Energy =            770.7720800280407047
    One-Electron Energy =               -9114.6020922709958541
    Two-Electron Energy =                2895.3346877061862870
    Total Energy =                      -5448.4953245367687487
  Basis Set: (AUG-CC-PVTZ AUX)
    Blend: AUG-CC-PVTZ-RI
    Molecular point group: c1

    Geometry (in Angstrom), charge = 0, multiplicity = 1:

       Center              X                  Y                   Z               Mass
    ------------   -----------------  -----------------  -----------------  -----------------
         BR          -3.578752479717     0.228819133357    -0.000002649009    78.918337600000
         BR           3.564010520283    -0.242108866643    -0.000002649009    78.918337600000
         O           -1.713763479717    -1.862280866643     0.000001350991    15.994914619570
         O            1.699025520283     1.848995133357     0.000001350991    15.994914619570
         C           -0.685666479717     0.340098133357     0.000010350991    12.000000000000
         C            0.670925520283    -0.353382866643     0.000010350991    12.000000000000
         C           -1.654380979717    -0.533125966643     0.000003450991    12.000000000000
         C            1.788193520283     0.653751133357     0.000002350991    12.000000000000
         H           -0.812719479717     0.988279133357    -0.873450649009     1.007825032230
         H           -0.812724479717     0.988267133357     0.873480350991     1.007825032230
         H            0.797976520283    -1.001562866643    -0.873451649009     1.007825032230
         H            0.797982520283    -1.001552866643     0.873478350991     1.007825032230

  Basis Set: AUG-CC-PVTZ
    Blend: AUG-CC-PVTZ
  Basis Set: (AUG-CC-PVTZ AUX)
    Blend: AUG-CC-PVTZ-JKFIT
	 Reference Energy          =   -5448.4953245367696582 [Eh]
	 Singles Energy            =      -0.0000000000000000 [Eh]
	 Same-Spin Energy          =      -0.4888155255669457 [Eh]
	 Opposite-Spin Energy      =      -1.3436097431578025 [Eh]
	 Correlation Energy        =      -1.8324252687247482 [Eh]
	 Total Energy              =   -5450.3277498054940224 [Eh]

	 ================> DF-SCS-MP2 Energies <==================
	-----------------------------------------------------------
	 SCS Same-Spin Scale       =       0.3333333333333333 [-]
	 SCS Opposite-Spin Scale   =       1.2000000000000000 [-]
	 SCS Same-Spin Energy      =      -0.1629385085223152 [Eh]
	 SCS Opposite-Spin Energy  =      -1.6123316917893629 [Eh]
	 SCS Correlation Energy    =      -1.7752702003116780 [Eh]
	 SCS Total Energy          =   -5450.2705947370814101 [Eh]
	-----------------------------------------------------------

  Dipole Moment: [D]
     X:     0.9382      Y:     0.4932      Z:     0.0000     Total:     1.0599

*** Psi4 exiting successfully. Buy a developer a beer!
