                               Psi4 1.4a3.dev225

  ==> Input File <==

--------------------------------------------------------------------------
#psi4
#
memory 32 gb

molecule  {
0 1
 Br       -3.5713820     0.2354630    -0.0000030
 Br        3.5713810    -0.2354650    -0.0000030
  O       -1.7063930    -1.8556370     0.0000010
  O        1.7063960     1.8556390     0.0000010
  C       -0.6782960     0.3467420     0.0000100
  C        0.6782960    -0.3467390     0.0000100
  C       -1.7955640    -0.6603920     0.0000020
  C        1.7062818     0.7054359     0.0000023
  H       -0.8053490     0.9949230    -0.8734510
  H       -0.8053540     0.9949110     0.8734800
  H        0.8053470    -0.9949190    -0.8734520
  H        0.8053530    -0.9949090     0.8734780
units angstrom
no_reorient  #important for SAPT in psi4, default
symmetry c1  #important for SAPT in psi4, default
}

set PROPERTIES_ORIGIN ["COM"]
properties('MP2/aug-cc-pvtz', properties = ['dipole'])
--------------------------------------------------------------------------

    Molecular point group: c1
  Charge       = 0
  Multiplicity = 1
  Basis Set: AUG-CC-PVTZ
    Blend: AUG-CC-PVTZ
  Basis Set: (AUG-CC-PVTZ AUX)
    Blend: AUG-CC-PVTZ-JKFIT

    Orbital Energies [Eh]
    ---------------------

    Doubly Occupied:

       1A   -490.046134     2A   -490.017862     3A    -65.186001
       4A    -65.157797     5A    -58.541211     6A    -58.539944
       7A    -58.539809     8A    -58.512912     9A    -58.511798
      10A    -58.511688    11A    -20.637836    12A    -20.622901
      13A    -11.435051    14A    -11.433732    15A    -11.305621
      16A    -11.304248    17A     -9.858639    18A     -9.830296
      19A     -7.469770    20A     -7.463761    21A     -7.463203
      22A     -7.440908    23A     -7.435685    24A     -7.435254
      25A     -3.213299    26A     -3.210375    27A     -3.209611
      28A     -3.201943    29A     -3.201924    30A     -3.184081
      31A     -3.181644    32A     -3.181032    33A     -3.174341
      34A     -3.174327    35A     -1.508301    36A     -1.463667
      37A     -1.152842    38A     -1.067584    39A     -1.022126
      40A     -0.968428    41A     -0.801475    42A     -0.793333
      43A     -0.731140    44A     -0.714750    45A     -0.693781
      46A     -0.663670    47A     -0.647680    48A     -0.640052
      49A     -0.587370    50A     -0.586962    51A     -0.555266
      52A     -0.460038    53A     -0.441876    54A     -0.440779
      55A     -0.425959    56A     -0.419990    57A     -0.416190

  @DF-RHF Final Energy: -5448.56484278891639

   => Energetics <=

    Nuclear Repulsion Energy =            770.3848409721230155
    One-Electron Energy =               -9114.2235738568215311
    Two-Electron Energy =                2895.2738900957824626
    Total Energy =                      -5448.5648427889154846
  Basis Set: (AUG-CC-PVTZ AUX)
    Blend: AUG-CC-PVTZ-RI
    Molecular point group: c1

    Geometry (in Angstrom), charge = 0, multiplicity = 1:

       Center              X                  Y                   Z               Mass
    ------------   -----------------  -----------------  -----------------  -----------------
         BR          -3.566952040177     0.233228451476    -0.000002609317    78.918337600000
         BR           3.575810959823    -0.237699548524    -0.000002609317    78.918337600000
         O           -1.701963040177    -1.857871548524     0.000001390683    15.994914619570
         O            1.710825959823     1.853404451476     0.000001390683    15.994914619570
         C           -0.673866040177     0.344507451476     0.000010390683    12.000000000000
         C            0.682725959823    -0.348973548524     0.000010390683    12.000000000000
         C           -1.791134040177    -0.662626548524     0.000002390683    12.000000000000
         C            1.710711759823     0.703201351476     0.000002690683    12.000000000000
         H           -0.800919040177     0.992688451476    -0.873450609317     1.007825032230
         H           -0.800924040177     0.992676451476     0.873480390683     1.007825032230
         H            0.809776959823    -0.997153548524    -0.873451609317     1.007825032230
         H            0.809782959823    -0.997143548524     0.873478390683     1.007825032230

  Basis Set: AUG-CC-PVTZ
    Blend: AUG-CC-PVTZ
  Basis Set: (AUG-CC-PVTZ AUX)
    Blend: AUG-CC-PVTZ-JKFIT
	 Reference Energy          =   -5448.5648427889163941 [Eh]
	 Singles Energy            =      -0.0000000000000000 [Eh]
	 Same-Spin Energy          =      -0.4816214432009791 [Eh]
	 Opposite-Spin Energy      =      -1.3287641649283455 [Eh]
	 Correlation Energy        =      -1.8103856081293246 [Eh]
	 Total Energy              =   -5450.3752283970461576 [Eh]

	 ================> DF-SCS-MP2 Energies <==================
	-----------------------------------------------------------
	 SCS Same-Spin Scale       =       0.3333333333333333 [-]
	 SCS Opposite-Spin Scale   =       1.2000000000000000 [-]
	 SCS Same-Spin Energy      =      -0.1605404810669930 [Eh]
	 SCS Opposite-Spin Energy  =      -1.5945169979140146 [Eh]
	 SCS Correlation Energy    =      -1.7550574789810076 [Eh]
	 SCS Total Energy          =   -5450.3199002678975376 [Eh]
	-----------------------------------------------------------

  Dipole Moment: [D]
     X:    -1.1452      Y:     0.5057      Z:     0.0000     Total:     1.2519

*** Psi4 exiting successfully. Buy a developer a beer!
