                               Psi4 1.4a3.dev225

  ==> Input File <==

--------------------------------------------------------------------------
#psi4
#
memory 32 gb

molecule  {
0 1
 Br       -3.5713820     0.2354630    -0.0000030
 Br        3.5713810    -0.2354650    -0.0000030
  O       -1.7063930    -1.8556370     0.0000010
  O        1.7063960     1.8556390     0.0000010
  C       -0.6842745     0.3345370    -0.0228455
  C        0.6782960    -0.3467390     0.0000100
  C       -1.7955640    -0.6603920     0.0000020
  C        1.7955640     0.6603950     0.0000020
  H       -0.8053490     0.9949230    -0.8734510
  H       -0.8053540     0.9949110     0.8734800
  H        0.8053470    -0.9949190    -0.8734520
  H        0.8053530    -0.9949090     0.8734780
units angstrom
no_reorient  #important for SAPT in psi4, default
symmetry c1  #important for SAPT in psi4, default
}

set PROPERTIES_ORIGIN ["COM"]
properties('MP2/aug-cc-pvtz', properties = ['dipole'])
--------------------------------------------------------------------------

    Molecular point group: c1
  Charge       = 0
  Multiplicity = 1
  Basis Set: AUG-CC-PVTZ
    Blend: AUG-CC-PVTZ
  Basis Set: (AUG-CC-PVTZ AUX)
    Blend: AUG-CC-PVTZ-JKFIT

    Orbital Energies [Eh]
    ---------------------

    Doubly Occupied:

       1A   -490.042462     2A   -490.042420     3A    -65.182334
       4A    -65.182293     5A    -58.537543     6A    -58.537503
       7A    -58.536279     8A    -58.536238     9A    -58.536144
      10A    -58.536104    11A    -20.618172    12A    -20.617707
      13A    -11.429338    14A    -11.428775    15A    -11.297746
      16A    -11.297108    17A     -9.854976    18A     -9.854935
      19A     -7.466105    20A     -7.466068    21A     -7.460105
      22A     -7.460060    23A     -7.459547    24A     -7.459507
      25A     -3.209629    26A     -3.209593    27A     -3.206710
      28A     -3.206669    29A     -3.205946    30A     -3.205911
      31A     -3.198290    32A     -3.198272    33A     -3.198245
      34A     -3.198227    35A     -1.459768    36A     -1.458396
      37A     -1.139802    38A     -1.069158    39A     -1.038315
      40A     -0.966817    41A     -0.788979    42A     -0.786409
      43A     -0.713159    44A     -0.701363    45A     -0.684863
      46A     -0.651973    47A     -0.639073    48A     -0.622688
      49A     -0.574473    50A     -0.569675    51A     -0.542381
      52A     -0.461008    53A     -0.443692    54A     -0.439063
      55A     -0.437316    56A     -0.435656    57A     -0.432321

  @DF-RHF Final Energy: -5448.56671868681678

   => Energetics <=

    Nuclear Repulsion Energy =            771.1877024885856144
    One-Electron Energy =               -9115.6422164586656436
    Two-Electron Energy =                2895.8877952832626761
    Total Energy =                      -5448.5667186868176941
  Basis Set: (AUG-CC-PVTZ AUX)
    Blend: AUG-CC-PVTZ-RI
    Molecular point group: c1

    Geometry (in Angstrom), charge = 0, multiplicity = 1:

       Center              X                  Y                   Z               Mass
    ------------   -----------------  -----------------  -----------------  -----------------
         BR          -3.571085230759     0.236068760067     0.001131402466    78.918337600000
         BR           3.571677769241    -0.234859239933     0.001131402466    78.918337600000
         O           -1.706096230759    -1.855031239933     0.001135402466    15.994914619570
         O            1.706692769241     1.856244760067     0.001135402466    15.994914619570
         C           -0.683977730759     0.335142760067    -0.021711097534    12.000000000000
         C            0.678592769241    -0.346133239933     0.001144402466    12.000000000000
         C           -1.795267230759    -0.659786239933     0.001136402466    12.000000000000
         C            1.795860769241     0.661000760067     0.001136402466    12.000000000000
         H           -0.805052230759     0.995528760067    -0.872316597534     1.007825032230
         H           -0.805057230759     0.995516760067     0.874614402466     1.007825032230
         H            0.805643769241    -0.994313239933    -0.872317597534     1.007825032230
         H            0.805649769241    -0.994303239933     0.874612402466     1.007825032230

  Basis Set: AUG-CC-PVTZ
    Blend: AUG-CC-PVTZ
  Basis Set: (AUG-CC-PVTZ AUX)
    Blend: AUG-CC-PVTZ-JKFIT
	 Reference Energy          =   -5448.5667186868167846 [Eh]
	 Singles Energy            =      -0.0000000000000000 [Eh]
	 Same-Spin Energy          =      -0.4824757161022057 [Eh]
	 Opposite-Spin Energy      =      -1.3313109085011898 [Eh]
	 Correlation Energy        =      -1.8137866246033956 [Eh]
	 Total Energy              =   -5450.3805053114201655 [Eh]

	 ================> DF-SCS-MP2 Energies <==================
	-----------------------------------------------------------
	 SCS Same-Spin Scale       =       0.3333333333333333 [-]
	 SCS Opposite-Spin Scale   =       1.2000000000000000 [-]
	 SCS Same-Spin Energy      =      -0.1608252387007352 [Eh]
	 SCS Opposite-Spin Energy  =      -1.5975730902014278 [Eh]
	 SCS Correlation Energy    =      -1.7583983289021630 [Eh]
	 SCS Total Energy          =   -5450.3251170157191154 [Eh]
	-----------------------------------------------------------

  Dipole Moment: [D]
     X:     0.0155      Y:     0.0117      Z:    -0.0107     Total:     0.0221

*** Psi4 exiting successfully. Buy a developer a beer!
