                               Psi4 1.4a3.dev225

  ==> Input File <==

--------------------------------------------------------------------------
#psi4
#
memory 32 gb

molecule  {
0 1
 Br       -3.5713820     0.2354630    -0.0000030
 Br        3.5713810    -0.2354650    -0.0000030
  O       -1.7063930    -1.8556370     0.0000010
  O        1.7063960     1.8556390     0.0000010
  C       -0.6782960     0.3467420     0.0000100
  C        0.6782960    -0.3467390     0.0000100
  C       -1.7955640    -0.6603920     0.0000020
  C        1.8402051     0.6378746     0.0000019
  H       -0.8053490     0.9949230    -0.8734510
  H       -0.8053540     0.9949110     0.8734800
  H        0.8053470    -0.9949190    -0.8734520
  H        0.8053530    -0.9949090     0.8734780
units angstrom
no_reorient  #important for SAPT in psi4, default
symmetry c1  #important for SAPT in psi4, default
}

set PROPERTIES_ORIGIN ["COM"]
properties('MP2/aug-cc-pvtz', properties = ['dipole'])
--------------------------------------------------------------------------

    Molecular point group: c1
  Charge       = 0
  Multiplicity = 1
  Basis Set: AUG-CC-PVTZ
    Blend: AUG-CC-PVTZ
  Basis Set: (AUG-CC-PVTZ AUX)
    Blend: AUG-CC-PVTZ-JKFIT

    Orbital Energies [Eh]
    ---------------------

    Doubly Occupied:

       1A   -490.052836     2A   -490.040660     3A    -65.192775
       4A    -65.180541     5A    -58.547997     6A    -58.546706
       7A    -58.546553     8A    -58.535746     9A    -58.534487
      10A    -58.534353    11A    -20.616137    12A    -20.609964
      13A    -11.427669    14A    -11.427296    15A    -11.294914
      16A    -11.294285    17A     -9.865604    18A     -9.853188
      19A     -7.476932    20A     -7.470681    21A     -7.470040
      22A     -7.464309    23A     -7.458327    24A     -7.457769
      25A     -3.220593    26A     -3.217485    27A     -3.216620
      28A     -3.208699    29A     -3.208677    30A     -3.207826
      31A     -3.204916    32A     -3.204152    33A     -3.196521
      34A     -3.196503    35A     -1.457166    36A     -1.435282
      37A     -1.134053    38A     -1.075299    39A     -1.042230
      40A     -0.962919    41A     -0.786430    42A     -0.781179
      43A     -0.705874    44A     -0.697477    45A     -0.679359
      46A     -0.644268    47A     -0.636433    48A     -0.616485
      49A     -0.570403    50A     -0.563737    51A     -0.539279
      52A     -0.461668    53A     -0.447407    54A     -0.445230
      55A     -0.439368    56A     -0.436448    57A     -0.432547

  @DF-RHF Final Energy: -5448.56342938312264

   => Energetics <=

    Nuclear Repulsion Energy =            771.4748630718435152
    One-Electron Energy =               -9116.1319804739432584
    Two-Electron Energy =                2896.0936880189769909
    Total Energy =                      -5448.5634293831226387
  Basis Set: (AUG-CC-PVTZ AUX)
    Blend: AUG-CC-PVTZ-RI
    Molecular point group: c1

    Geometry (in Angstrom), charge = 0, multiplicity = 1:

       Center              X                  Y                   Z               Mass
    ------------   -----------------  -----------------  -----------------  -----------------
         BR          -3.573596769310     0.236580568236    -0.000002589470    78.918337600000
         BR           3.569166230690    -0.234347431764    -0.000002589470    78.918337600000
         O           -1.708607769310    -1.854519431764     0.000001410530    15.994914619570
         O            1.704181230690     1.856756568236     0.000001410530    15.994914619570
         C           -0.680510769310     0.347859568236     0.000010410530    12.000000000000
         C            0.676081230690    -0.345621431764     0.000010410530    12.000000000000
         C           -1.797778769310    -0.659274431764     0.000002410530    12.000000000000
         C            1.837990330690     0.638992168236     0.000002310530    12.000000000000
         H           -0.807563769310     0.996040568236    -0.873450589470     1.007825032230
         H           -0.807568769310     0.996028568236     0.873480410530     1.007825032230
         H            0.803132230690    -0.993801431764    -0.873451589470     1.007825032230
         H            0.803138230690    -0.993791431764     0.873478410530     1.007825032230

  Basis Set: AUG-CC-PVTZ
    Blend: AUG-CC-PVTZ
  Basis Set: (AUG-CC-PVTZ AUX)
    Blend: AUG-CC-PVTZ-JKFIT
	 Reference Energy          =   -5448.5634293831226387 [Eh]
	 Singles Energy            =      -0.0000000000000000 [Eh]
	 Same-Spin Energy          =      -0.4829470602535780 [Eh]
	 Opposite-Spin Energy      =      -1.3326225575397324 [Eh]
	 Correlation Energy        =      -1.8155696177933103 [Eh]
	 Total Energy              =   -5450.3789990009163375 [Eh]

	 ================> DF-SCS-MP2 Energies <==================
	-----------------------------------------------------------
	 SCS Same-Spin Scale       =       0.3333333333333333 [-]
	 SCS Opposite-Spin Scale   =       1.2000000000000000 [-]
	 SCS Same-Spin Energy      =      -0.1609823534178593 [Eh]
	 SCS Opposite-Spin Energy  =      -1.5991470690476788 [Eh]
	 SCS Correlation Energy    =      -1.7601294224655382 [Eh]
	 SCS Total Energy          =   -5450.3235588055886183 [Eh]
	-----------------------------------------------------------

  Dipole Moment: [D]
     X:     0.5246      Y:    -0.2330      Z:     0.0000     Total:     0.5740

*** Psi4 exiting successfully. Buy a developer a beer!
