                               Psi4 1.4a3.dev225

  ==> Input File <==

--------------------------------------------------------------------------
#psi4
#
memory 32 gb

molecule  {
0 1
 Br       -3.5713820     0.2354630    -0.0000030
 Br        3.5713810    -0.2354650    -0.0000030
  O       -1.7063930    -1.8556370     0.0000010
  O        1.7063960     1.8556390     0.0000010
  C       -0.6782960     0.3467420     0.0000100
  C        0.6782960    -0.3467390     0.0000100
  C       -1.7955640    -0.6603920     0.0000020
  C        1.9441175     0.7943049     0.0000009
  H       -0.8053490     0.9949230    -0.8734510
  H       -0.8053540     0.9949110     0.8734800
  H        0.8053470    -0.9949190    -0.8734520
  H        0.8053530    -0.9949090     0.8734780
units angstrom
no_reorient  #important for SAPT in psi4, default
symmetry c1  #important for SAPT in psi4, default
}

set PROPERTIES_ORIGIN ["COM"]
properties('MP2/aug-cc-pvtz', properties = ['dipole'])
--------------------------------------------------------------------------

    Molecular point group: c1
  Charge       = 0
  Multiplicity = 1
  Basis Set: AUG-CC-PVTZ
    Blend: AUG-CC-PVTZ
  Basis Set: (AUG-CC-PVTZ AUX)
    Blend: AUG-CC-PVTZ-JKFIT

    Orbital Energies [Eh]
    ---------------------

    Doubly Occupied:

       1A   -490.045863     2A   -490.037323     3A    -65.186137
       4A    -65.177232     5A    -58.541277     6A    -58.540055
       7A    -58.539904     8A    -58.532427     9A    -58.531184
      10A    -58.531051    11A    -20.623814    12A    -20.612202
      13A    -11.423503    14A    -11.412825    15A    -11.288580
      16A    -11.286833    17A     -9.859306    18A     -9.849904
      19A     -7.470502    20A     -7.464474    21A     -7.463858
      22A     -7.460992    23A     -7.455071    24A     -7.454519
      25A     -3.214021    26A     -3.211011    27A     -3.210188
      28A     -3.204486    29A     -3.202661    30A     -3.202640
      31A     -3.201605    32A     -3.200848    33A     -3.193300
      34A     -3.193282    35A     -1.544472    36A     -1.453012
      37A     -1.115695    38A     -1.068876    39A     -1.036211
      40A     -0.932793    41A     -0.792644    42A     -0.778508
      43A     -0.720973    44A     -0.691918    45A     -0.686455
      46A     -0.663726    47A     -0.649204    48A     -0.644499
      49A     -0.581262    50A     -0.567755    51A     -0.538434
      52A     -0.450542    53A     -0.445824    54A     -0.445269
      55A     -0.433412    56A     -0.431542    57A     -0.408133

  @DF-RHF Final Energy: -5448.53744222441492

   => Energetics <=

    Nuclear Repulsion Energy =            771.6691401144763631
    One-Electron Energy =               -9116.6050902891565784
    Two-Electron Energy =                2896.3985079502654116
    Total Energy =                      -5448.5374422244149173
  Basis Set: (AUG-CC-PVTZ AUX)
    Blend: AUG-CC-PVTZ-RI
    Molecular point group: c1

    Geometry (in Angstrom), charge = 0, multiplicity = 1:

       Center              X                  Y                   Z               Mass
    ------------   -----------------  -----------------  -----------------  -----------------
         BR          -3.578752479717     0.228819133357    -0.000002539854    78.918337600000
         BR           3.564010520283    -0.242108866643    -0.000002539854    78.918337600000
         O           -1.713763479717    -1.862280866643     0.000001460146    15.994914619570
         O            1.699025520283     1.848995133357     0.000001460146    15.994914619570
         C           -0.685666479717     0.340098133357     0.000010460146    12.000000000000
         C            0.670925520283    -0.353382866643     0.000010460146    12.000000000000
         C           -1.802934479717    -0.667035866643     0.000002460146    12.000000000000
         C            1.936747020283     0.787661033357     0.000001360146    12.000000000000
         H           -0.812719479717     0.988279133357    -0.873450539854     1.007825032230
         H           -0.812724479717     0.988267133357     0.873480460146     1.007825032230
         H            0.797976520283    -1.001562866643    -0.873451539854     1.007825032230
         H            0.797982520283    -1.001552866643     0.873478460146     1.007825032230

  Basis Set: AUG-CC-PVTZ
    Blend: AUG-CC-PVTZ
  Basis Set: (AUG-CC-PVTZ AUX)
    Blend: AUG-CC-PVTZ-JKFIT
	 Reference Energy          =   -5448.5374422244149173 [Eh]
	 Singles Energy            =      -0.0000000000000000 [Eh]
	 Same-Spin Energy          =      -0.4796110333160076 [Eh]
	 Opposite-Spin Energy      =      -1.3254061085370203 [Eh]
	 Correlation Energy        =      -1.8050171418530279 [Eh]
	 Total Energy              =   -5450.3424593662675761 [Eh]

	 ================> DF-SCS-MP2 Energies <==================
	-----------------------------------------------------------
	 SCS Same-Spin Scale       =       0.3333333333333333 [-]
	 SCS Opposite-Spin Scale   =       1.2000000000000000 [-]
	 SCS Same-Spin Energy      =      -0.1598703444386692 [Eh]
	 SCS Opposite-Spin Energy  =      -1.5904873302444245 [Eh]
	 SCS Correlation Energy    =      -1.7503576746830936 [Eh]
	 SCS Total Energy          =   -5450.2877998990979904 [Eh]
	-----------------------------------------------------------

  Dipole Moment: [D]
     X:     0.8932      Y:     0.5628      Z:     0.0000     Total:     1.0558

*** Psi4 exiting successfully. Buy a developer a beer!
