                               Psi4 1.3.2 release

  ==> Input File <==

--------------------------------------------------------------------------
#psi4
#
memory 32 gb

molecule  {
0 1
  N       -1.7893040    -0.1617730    -0.0001110
  N       -0.2713240    -1.8496560    -0.0082220
  N       -0.2672930     1.7497910     0.0010540
  N        2.0532340     1.0361840    -0.0078740
  N        2.7268170    -1.1967150     0.0786200
  C       -0.5487760     0.4359060     0.0048010
  C        0.3666280    -0.6257540     0.0082110
  C       -1.5569310    -1.5157420    -0.0063070
  C        1.7257650    -0.2653140     0.0014880
  C       -3.0654680     0.5328540     0.0028660
  C        1.0578830     1.9506280    -0.0091420
  H       -2.3786350    -2.2235800    -0.0126570
  H       -3.1454970     1.1693440    -0.8801020
  H       -3.8626160    -0.2117770    -0.0066990
  H       -3.1511970     1.1523310     0.8973960
  H        1.4123067     3.0846444    -0.0132443
  H        3.6364610    -0.8630510    -0.2195510
  H        2.4794860    -2.1327440    -0.2212610
units angstrom
no_reorient  #important for SAPT in psi4, default
symmetry c1  #important for SAPT in psi4, default
}

set PROPERTIES_ORIGIN ["COM"]
properties('MP2/aug-cc-pvtz', properties = ['dipole'])
--------------------------------------------------------------------------

    Molecular point group: c1
  Charge       = 0
  Multiplicity = 1
  Basis Set: AUG-CC-PVTZ
    Blend: AUG-CC-PVTZ
  Basis Set: (AUG-CC-PVTZ AUX)
    Blend: AUG-CC-PVTZ-JKFIT

    Orbital Energies [Eh]
    ---------------------

    Doubly Occupied:

       1A    -15.633504     2A    -15.581488     3A    -15.567673
       4A    -15.561755     5A    -15.553466     6A    -11.335404
       7A    -11.322828     8A    -11.322533     9A    -11.313826
      10A    -11.288957    11A    -11.252244    12A     -1.368213
      13A     -1.296590    14A     -1.242645    15A     -1.197175
      16A     -1.152674    17A     -1.030274    18A     -0.986313
      19A     -0.889481    20A     -0.867097    21A     -0.802508
      22A     -0.753822    23A     -0.719254    24A     -0.680125
      25A     -0.671855    26A     -0.666660    27A     -0.623231
      28A     -0.606479    29A     -0.595051    30A     -0.586601
      31A     -0.568491    32A     -0.537223    33A     -0.496176
      34A     -0.489113    35A     -0.448843    36A     -0.414682
      37A     -0.409174    38A     -0.369013    39A     -0.308195

  @DF-RHF Final Energy:  -503.71729523387239

   => Energetics <=

    Nuclear Repulsion Energy =            593.7961264034429405
    One-Electron Energy =               -1862.0055742676070167
    Two-Electron Energy =                 764.4921526302916845
    Total Energy =                       -503.7172952338723917
  Basis Set: (AUG-CC-PVTZ AUX)
    Blend: AUG-CC-PVTZ-RI
    Molecular point group: c1

    Geometry (in Angstrom), charge = 0, multiplicity = 1:

       Center              X                  Y                   Z               Mass
    ------------   -----------------  -----------------  -----------------  -----------------
         N           -1.823098007205    -0.163210211551    -0.003143462715    14.003074004430
         N           -0.305118007205    -1.851093211551    -0.011254462715    14.003074004430
         N           -0.301087007205     1.748353788449    -0.001978462715    14.003074004430
         N            2.019439992795     1.034746788449    -0.010906462715    14.003074004430
         N            2.693022992795    -1.198152211551     0.075587537285    14.003074004430
         C           -0.582570007205     0.434468788449     0.001768537285    12.000000000000
         C            0.332833992795    -0.627191211551     0.005178537285    12.000000000000
         C           -1.590725007205    -1.517179211551    -0.009339462715    12.000000000000
         C            1.691970992795    -0.266751211551    -0.001544462715    12.000000000000
         C           -3.099262007205     0.531416788449    -0.000166462715    12.000000000000
         C            1.024088992795     1.949190788449    -0.012174462715    12.000000000000
         H           -2.412429007205    -2.225017211551    -0.015689462715     1.007825032230
         H           -3.179291007205     1.167906788449    -0.883134462715     1.007825032230
         H           -3.896410007205    -0.213214211551    -0.009731462715     1.007825032230
         H           -3.184991007205     1.150893788449     0.894363537285     1.007825032230
         H            1.378512692795     3.083207188449    -0.016276762715     1.007825032230
         H            3.602666992795    -0.864488211551    -0.222583462715     1.007825032230
         H            2.445691992795    -2.134181211551    -0.224293462715     1.007825032230

  Basis Set: AUG-CC-PVTZ
    Blend: AUG-CC-PVTZ
  Basis Set: (AUG-CC-PVTZ AUX)
    Blend: AUG-CC-PVTZ-JKFIT
	 Reference Energy          =    -503.7172952338723917 [Eh]
	 Singles Energy            =      -0.0000000000000000 [Eh]
	 Same-Spin Energy          =      -0.5495792212595184 [Eh]
	 Opposite-Spin Energy      =      -1.6340878611020457 [Eh]
	 Correlation Energy        =      -2.1836670823615640 [Eh]
	 Total Energy              =    -505.9009623162339722 [Eh]

	 ================> DF-SCS-MP2 Energies <==================
	-----------------------------------------------------------
	 SCS Same-Spin Scale       =       0.3333333333333333 [-]
	 SCS Opposite-Spin Scale   =       1.2000000000000000 [-]
	 SCS Same-Spin Energy      =      -0.1831930737531728 [Eh]
	 SCS Opposite-Spin Energy  =      -1.9609054333224547 [Eh]
	 SCS Correlation Energy    =      -2.1440985070756273 [Eh]
	 SCS Total Energy          =    -505.8613937409480172 [Eh]
	-----------------------------------------------------------

  Dipole Moment: [D]
     X:    -2.7455      Y:    -1.2067      Z:    -0.7884     Total:     3.1009

*** Psi4 exiting successfully. Buy a developer a beer!
