                               Psi4 1.3.2 release

  ==> Input File <==

--------------------------------------------------------------------------
#psi4
#
memory 32 gb

molecule  {
0 1
  N       -1.7893040    -0.1617730    -0.0001110
  N       -0.2713240    -1.8496560    -0.0082220
  N       -0.2672930     1.7497910     0.0010540
  N        2.0532340     1.0361840    -0.0078740
  N        2.7268170    -1.1967150     0.0786200
  C       -0.5487760     0.4359060     0.0048010
  C        0.3451689    -0.6148070     0.0083102
  C       -1.5509076    -1.4933578    -0.0060164
  C        1.7257650    -0.2653140     0.0014880
  C       -3.0654680     0.5328540     0.0028660
  C        1.0578830     1.9506280    -0.0091420
  H       -2.3786350    -2.2235800    -0.0126570
  H       -3.1454970     1.1693440    -0.8801020
  H       -3.8626160    -0.2117770    -0.0066990
  H       -3.1511970     1.1523310     0.8973960
  H        1.3824760     2.9891980    -0.0128990
  H        3.6364610    -0.8630510    -0.2195510
  H        2.4794860    -2.1327440    -0.2212610
units angstrom
no_reorient  #important for SAPT in psi4, default
symmetry c1  #important for SAPT in psi4, default
}

set PROPERTIES_ORIGIN ["COM"]
properties('MP2/aug-cc-pvtz', properties = ['dipole'])
--------------------------------------------------------------------------

    Molecular point group: c1
  Charge       = 0
  Multiplicity = 1
  Basis Set: AUG-CC-PVTZ
    Blend: AUG-CC-PVTZ
  Basis Set: (AUG-CC-PVTZ AUX)
    Blend: AUG-CC-PVTZ-JKFIT

    Orbital Energies [Eh]
    ---------------------

    Doubly Occupied:

       1A    -15.633251     2A    -15.582843     3A    -15.564928
       4A    -15.560286     5A    -15.552275     6A    -11.336737
       7A    -11.321352     8A    -11.310866     9A    -11.308742
      10A    -11.289579    11A    -11.251157    12A     -1.373942
      13A     -1.296774    14A     -1.242147    15A     -1.198616
      16A     -1.152324    17A     -1.031821    18A     -0.988097
      19A     -0.889500    20A     -0.871274    21A     -0.804199
      22A     -0.753950    23A     -0.723573    24A     -0.682166
      25A     -0.672630    26A     -0.669172    27A     -0.622462
      28A     -0.606730    29A     -0.594890    30A     -0.588161
      31A     -0.571353    32A     -0.538770    33A     -0.495195
      34A     -0.493670    35A     -0.452170    36A     -0.413805
      37A     -0.408847    38A     -0.370572    39A     -0.307374

  @DF-RHF Final Energy:  -503.72393363096626

   => Energetics <=

    Nuclear Repulsion Energy =            595.0650104065050527
    One-Electron Energy =               -1864.5254896355277197
    Two-Electron Energy =                 765.7365455980564093
    Total Energy =                       -503.7239336309662576
  Basis Set: (AUG-CC-PVTZ AUX)
    Blend: AUG-CC-PVTZ-RI
    Molecular point group: c1

    Geometry (in Angstrom), charge = 0, multiplicity = 1:

       Center              X                  Y                   Z               Mass
    ------------   -----------------  -----------------  -----------------  -----------------
         N           -1.821653770830    -0.165248051713    -0.003177175717    14.003074004430
         N           -0.303673770830    -1.853131051713    -0.011288175717    14.003074004430
         N           -0.299642770830     1.746315948287    -0.002012175717    14.003074004430
         N            2.020884229170     1.032708948287    -0.010940175717    14.003074004430
         N            2.694467229170    -1.200190051713     0.075553824283    14.003074004430
         C           -0.581125770830     0.432430948287     0.001734824283    12.000000000000
         C            0.312819129170    -0.618282051713     0.005244024283    12.000000000000
         C           -1.583257370830    -1.496832851713    -0.009082575717    12.000000000000
         C            1.693415229170    -0.268789051713    -0.001578175717    12.000000000000
         C           -3.097817770830     0.529378948287    -0.000200175717    12.000000000000
         C            1.025533229170     1.947152948287    -0.012208175717    12.000000000000
         H           -2.410984770830    -2.227055051713    -0.015723175717     1.007825032230
         H           -3.177846770830     1.165868948287    -0.883168175717     1.007825032230
         H           -3.894965770830    -0.215252051713    -0.009765175717     1.007825032230
         H           -3.183546770830     1.148855948287     0.894329824283     1.007825032230
         H            1.350126229170     2.985722948287    -0.015965175717     1.007825032230
         H            3.604111229170    -0.866526051713    -0.222617175717     1.007825032230
         H            2.447136229170    -2.136219051713    -0.224327175717     1.007825032230

  Basis Set: AUG-CC-PVTZ
    Blend: AUG-CC-PVTZ
  Basis Set: (AUG-CC-PVTZ AUX)
    Blend: AUG-CC-PVTZ-JKFIT
	 Reference Energy          =    -503.7239336309662576 [Eh]
	 Singles Energy            =      -0.0000000000000000 [Eh]
	 Same-Spin Energy          =      -0.5491795627037005 [Eh]
	 Opposite-Spin Energy      =      -1.6328512112006015 [Eh]
	 Correlation Energy        =      -2.1820307739043021 [Eh]
	 Total Energy              =    -505.9059644048705877 [Eh]

	 ================> DF-SCS-MP2 Energies <==================
	-----------------------------------------------------------
	 SCS Same-Spin Scale       =       0.3333333333333333 [-]
	 SCS Opposite-Spin Scale   =       1.2000000000000000 [-]
	 SCS Same-Spin Energy      =      -0.1830598542345668 [Eh]
	 SCS Opposite-Spin Energy  =      -1.9594214534407217 [Eh]
	 SCS Correlation Energy    =      -2.1424813076752884 [Eh]
	 SCS Total Energy          =    -505.8664149386415261 [Eh]
	-----------------------------------------------------------

  Dipole Moment: [D]
     X:    -2.7051      Y:    -1.1254      Z:    -0.7874     Total:     3.0338

*** Psi4 exiting successfully. Buy a developer a beer!
