                               Psi4 1.3.2 release

  ==> Input File <==

--------------------------------------------------------------------------
#psi4
#
memory 32 gb

molecule  {
0 1
  N       -1.7893040    -0.1617730    -0.0001110
  N       -0.2713240    -1.8496560    -0.0082220
  N       -0.2558380     1.7472846     0.0010652
  N        2.0532340     1.0361840    -0.0078740
  N        2.7268170    -1.1967150     0.0786200
  C       -0.5487760     0.4359060     0.0048010
  C        0.3758578    -0.6177253     0.0081906
  C       -1.5569310    -1.5157420    -0.0063070
  C        1.7257650    -0.2653140     0.0014880
  C       -3.0654680     0.5328540     0.0028660
  C        1.0578830     1.9506280    -0.0091420
  H       -2.3786350    -2.2235800    -0.0126570
  H       -3.1454970     1.1693440    -0.8801020
  H       -3.8626160    -0.2117770    -0.0066990
  H       -3.1511970     1.1523310     0.8973960
  H        1.3824760     2.9891980    -0.0128990
  H        3.6364610    -0.8630510    -0.2195510
  H        2.4794860    -2.1327440    -0.2212610
units angstrom
no_reorient  #important for SAPT in psi4, default
symmetry c1  #important for SAPT in psi4, default
}

set PROPERTIES_ORIGIN ["COM"]
properties('MP2/aug-cc-pvtz', properties = ['dipole'])
--------------------------------------------------------------------------

    Molecular point group: c1
  Charge       = 0
  Multiplicity = 1
  Basis Set: AUG-CC-PVTZ
    Blend: AUG-CC-PVTZ
  Basis Set: (AUG-CC-PVTZ AUX)
    Blend: AUG-CC-PVTZ-JKFIT

    Orbital Energies [Eh]
    ---------------------

    Doubly Occupied:

       1A    -15.633695     2A    -15.580224     3A    -15.567796
       4A    -15.559580     5A    -15.551116     6A    -11.332852
       7A    -11.323103     8A    -11.314305     9A    -11.309783
      10A    -11.289274    11A    -11.251413    12A     -1.367288
      13A     -1.297265    14A     -1.242902    15A     -1.195133
      16A     -1.151579    17A     -1.033333    18A     -0.986326
      19A     -0.891090    20A     -0.873121    21A     -0.803253
      22A     -0.754143    23A     -0.723034    24A     -0.680956
      25A     -0.673653    26A     -0.666742    27A     -0.624485
      28A     -0.608053    29A     -0.597533    30A     -0.592474
      31A     -0.572807    32A     -0.536586    33A     -0.496459
      34A     -0.491509    35A     -0.448173    36A     -0.413464
      37A     -0.408055    38A     -0.367512    39A     -0.310205

  @DF-RHF Final Energy:  -503.72544284548854

   => Energetics <=

    Nuclear Repulsion Energy =            594.5380251825408777
    One-Electron Energy =               -1863.4863829494931906
    Two-Electron Energy =                 765.2229149214638255
    Total Energy =                       -503.7254428454884874
  Basis Set: (AUG-CC-PVTZ AUX)
    Blend: AUG-CC-PVTZ-RI
    Molecular point group: c1

    Geometry (in Angstrom), charge = 0, multiplicity = 1:

       Center              X                  Y                   Z               Mass
    ------------   -----------------  -----------------  -----------------  -----------------
         N           -1.824715357790    -0.162975783821    -0.003145207105    14.003074004430
         N           -0.306735357790    -1.850858783821    -0.011256207105    14.003074004430
         N           -0.291249357790     1.746081816179    -0.001969007105    14.003074004430
         N            2.017822642210     1.034981216179    -0.010908207105    14.003074004430
         N            2.691405642210    -1.197917783821     0.075585792895    14.003074004430
         C           -0.584187357790     0.434703216179     0.001766792895    12.000000000000
         C            0.340446442210    -0.618928083821     0.005156392895    12.000000000000
         C           -1.592342357790    -1.516944783821    -0.009341207105    12.000000000000
         C            1.690353642210    -0.266516783821    -0.001546207105    12.000000000000
         C           -3.100879357790     0.531651216179    -0.000168207105    12.000000000000
         C            1.022471642210     1.949425216179    -0.012176207105    12.000000000000
         H           -2.414046357790    -2.224782783821    -0.015691207105     1.007825032230
         H           -3.180908357790     1.168141216179    -0.883136207105     1.007825032230
         H           -3.898027357790    -0.212979783821    -0.009733207105     1.007825032230
         H           -3.186608357790     1.151128216179     0.894361792895     1.007825032230
         H            1.347064642210     2.987995216179    -0.015933207105     1.007825032230
         H            3.601049642210    -0.864253783821    -0.222585207105     1.007825032230
         H            2.444074642210    -2.133946783821    -0.224295207105     1.007825032230

  Basis Set: AUG-CC-PVTZ
    Blend: AUG-CC-PVTZ
  Basis Set: (AUG-CC-PVTZ AUX)
    Blend: AUG-CC-PVTZ-JKFIT
	 Reference Energy          =    -503.7254428454885442 [Eh]
	 Singles Energy            =      -0.0000000000000000 [Eh]
	 Same-Spin Energy          =      -0.5490013270844480 [Eh]
	 Opposite-Spin Energy      =      -1.6326869649499165 [Eh]
	 Correlation Energy        =      -2.1816882920343645 [Eh]
	 Total Energy              =    -505.9071311375229243 [Eh]

	 ================> DF-SCS-MP2 Energies <==================
	-----------------------------------------------------------
	 SCS Same-Spin Scale       =       0.3333333333333333 [-]
	 SCS Opposite-Spin Scale   =       1.2000000000000000 [-]
	 SCS Same-Spin Energy      =      -0.1830004423614827 [Eh]
	 SCS Opposite-Spin Energy  =      -1.9592243579398998 [Eh]
	 SCS Correlation Energy    =      -2.1422248003013826 [Eh]
	 SCS Total Energy          =    -505.8676676457899362 [Eh]
	-----------------------------------------------------------

  Dipole Moment: [D]
     X:    -2.7799      Y:    -1.1320      Z:    -0.7899     Total:     3.1037

*** Psi4 exiting successfully. Buy a developer a beer!
