                               Psi4 1.3.2 release

  ==> Input File <==

--------------------------------------------------------------------------
#psi4
#
memory 32 gb

molecule  {
0 1
  N       -1.7840414    -0.1725757    -0.0000351
  N       -0.2713240    -1.8496560    -0.0082220
  N       -0.2558382     1.7472849     0.0011325
  N        2.0532340     1.0361840    -0.0078740
  N        2.7268170    -1.1967150     0.0786200
  C       -0.5487760     0.4359060     0.0048010
  C        0.3666280    -0.6257540     0.0082110
  C       -1.5569310    -1.5157420    -0.0063070
  C        1.7257650    -0.2653140     0.0014880
  C       -3.0654680     0.5328540     0.0028660
  C        1.0578830     1.9506280    -0.0091420
  H       -2.3786350    -2.2235800    -0.0126570
  H       -3.1454970     1.1693440    -0.8801020
  H       -3.8626160    -0.2117770    -0.0066990
  H       -3.1511970     1.1523310     0.8973960
  H        1.3824760     2.9891980    -0.0128990
  H        3.6364610    -0.8630510    -0.2195510
  H        2.4794860    -2.1327440    -0.2212610
units angstrom
no_reorient  #important for SAPT in psi4, default
symmetry c1  #important for SAPT in psi4, default
}

set PROPERTIES_ORIGIN ["COM"]
properties('MP2/aug-cc-pvtz', properties = ['dipole'])
--------------------------------------------------------------------------

    Molecular point group: c1
  Charge       = 0
  Multiplicity = 1
  Basis Set: AUG-CC-PVTZ
    Blend: AUG-CC-PVTZ
  Basis Set: (AUG-CC-PVTZ AUX)
    Blend: AUG-CC-PVTZ-JKFIT

    Orbital Energies [Eh]
    ---------------------

    Doubly Occupied:

       1A    -15.634093     2A    -15.580455     3A    -15.565820
       4A    -15.559699     5A    -15.551204     6A    -11.333914
       7A    -11.321327     8A    -11.312557     9A    -11.309617
      10A    -11.290301    11A    -11.251500    12A     -1.369673
      13A     -1.297163    14A     -1.242934    15A     -1.195443
      16A     -1.151508    17A     -1.032259    18A     -0.986432
      19A     -0.891752    20A     -0.872600    21A     -0.802664
      22A     -0.753986    23A     -0.724051    24A     -0.681250
      25A     -0.673854    26A     -0.666759    27A     -0.623783
      28A     -0.607006    29A     -0.597198    30A     -0.592030
      31A     -0.571907    32A     -0.538006    33A     -0.496486
      34A     -0.491327    35A     -0.449426    36A     -0.413611
      37A     -0.407570    38A     -0.368497    39A     -0.308040

  @DF-RHF Final Energy:  -503.72548920610274

   => Energetics <=

    Nuclear Repulsion Energy =            594.6435508737268947
    One-Electron Energy =               -1863.7026762405369027
    Two-Electron Energy =                 765.3336361607071012
    Total Energy =                       -503.7254892061027931
  Basis Set: (AUG-CC-PVTZ AUX)
    Blend: AUG-CC-PVTZ-RI
    Molecular point group: c1

    Geometry (in Angstrom), charge = 0, multiplicity = 1:

       Center              X                  Y                   Z               Mass
    ------------   -----------------  -----------------  -----------------  -----------------
         N           -1.819204097514    -0.172117445615    -0.003084400940    14.003074004430
         N           -0.306486697514    -1.849197745615    -0.011271300940    14.003074004430
         N           -0.291000897514     1.747743154385    -0.001916800940    14.003074004430
         N            2.018071302486     1.036642254385    -0.010923300940    14.003074004430
         N            2.691654302486    -1.196256745615     0.075570699060    14.003074004430
         C           -0.583938697514     0.436364254385     0.001751699060    12.000000000000
         C            0.331465302486    -0.625295745615     0.005161699060    12.000000000000
         C           -1.592093697514    -1.515283745615    -0.009356300940    12.000000000000
         C            1.690602302486    -0.264855745615    -0.001561300940    12.000000000000
         C           -3.100630697514     0.533312254385    -0.000183300940    12.000000000000
         C            1.022720302486     1.951086254385    -0.012191300940    12.000000000000
         H           -2.413797697514    -2.223121745615    -0.015706300940     1.007825032230
         H           -3.180659697514     1.169802254385    -0.883151300940     1.007825032230
         H           -3.897778697514    -0.211318745615    -0.009748300940     1.007825032230
         H           -3.186359697514     1.152789254385     0.894346699060     1.007825032230
         H            1.347313302486     2.989656254385    -0.015948300940     1.007825032230
         H            3.601298302486    -0.862592745615    -0.222600300940     1.007825032230
         H            2.444323302486    -2.132285745615    -0.224310300940     1.007825032230

  Basis Set: AUG-CC-PVTZ
    Blend: AUG-CC-PVTZ
  Basis Set: (AUG-CC-PVTZ AUX)
    Blend: AUG-CC-PVTZ-JKFIT
	 Reference Energy          =    -503.7254892061027363 [Eh]
	 Singles Energy            =      -0.0000000000000000 [Eh]
	 Same-Spin Energy          =      -0.5491523869859671 [Eh]
	 Opposite-Spin Energy      =      -1.6326223437515592 [Eh]
	 Correlation Energy        =      -2.1817747307375264 [Eh]
	 Total Energy              =    -505.9072639368402520 [Eh]

	 ================> DF-SCS-MP2 Energies <==================
	-----------------------------------------------------------
	 SCS Same-Spin Scale       =       0.3333333333333333 [-]
	 SCS Opposite-Spin Scale   =       1.2000000000000000 [-]
	 SCS Same-Spin Energy      =      -0.1830507956619890 [Eh]
	 SCS Opposite-Spin Energy  =      -1.9591468125018709 [Eh]
	 SCS Correlation Energy    =      -2.1421976081638601 [Eh]
	 SCS Total Energy          =    -505.8676868142666194 [Eh]
	-----------------------------------------------------------

  Dipole Moment: [D]
     X:    -2.8007      Y:    -1.1211      Z:    -0.7890     Total:     3.1182

*** Psi4 exiting successfully. Buy a developer a beer!
