                               Psi4 1.3.2 release

  ==> Input File <==

--------------------------------------------------------------------------
#psi4
#
memory 32 gb

molecule  {
0 1
  N       -1.7893040    -0.1617730    -0.0001110
  N       -0.3345037    -1.8145838    -0.0087308
  N       -0.2672930     1.7497910     0.0010540
  N        2.0532340     1.0361840    -0.0078740
  N        2.7268170    -1.1967150     0.0786200
  C       -0.6030777     0.3865450     0.0037946
  C        0.3666280    -0.6257540     0.0082110
  C       -1.5569310    -1.5157420    -0.0063070
  C        1.7257650    -0.2653140     0.0014880
  C       -3.0654680     0.5328540     0.0028660
  C        1.0578830     1.9506280    -0.0091420
  H       -2.3786350    -2.2235800    -0.0126570
  H       -3.1454970     1.1693440    -0.8801020
  H       -3.8626160    -0.2117770    -0.0066990
  H       -3.1511970     1.1523310     0.8973960
  H        1.3824760     2.9891980    -0.0128990
  H        3.6364610    -0.8630510    -0.2195510
  H        2.4794860    -2.1327440    -0.2212610
units angstrom
no_reorient  #important for SAPT in psi4, default
symmetry c1  #important for SAPT in psi4, default
}

set PROPERTIES_ORIGIN ["COM"]
properties('MP2/aug-cc-pvtz', properties = ['dipole'])
--------------------------------------------------------------------------

    Molecular point group: c1
  Charge       = 0
  Multiplicity = 1
  Basis Set: AUG-CC-PVTZ
    Blend: AUG-CC-PVTZ
  Basis Set: (AUG-CC-PVTZ AUX)
    Blend: AUG-CC-PVTZ-JKFIT

    Orbital Energies [Eh]
    ---------------------

    Doubly Occupied:

       1A    -15.631179     2A    -15.582445     3A    -15.560500
       4A    -15.557201     5A    -15.547572     6A    -11.337790
       7A    -11.311103     8A    -11.309313     9A    -11.308982
      10A    -11.290558    11A    -11.249269    12A     -1.391308
      13A     -1.292725    14A     -1.237817    15A     -1.209298
      16A     -1.141474    17A     -1.038377    18A     -0.990937
      19A     -0.893814    20A     -0.869486    21A     -0.801680
      22A     -0.756090    23A     -0.730041    24A     -0.680585
      25A     -0.676914    26A     -0.674181    27A     -0.629077
      28A     -0.607112    29A     -0.597727    30A     -0.591098
      31A     -0.583166    32A     -0.543840    33A     -0.489925
      34A     -0.482609    35A     -0.442762    36A     -0.421474
      37A     -0.401874    38A     -0.358844    39A     -0.316996

  @DF-RHF Final Energy:  -503.71873315470395

   => Energetics <=

    Nuclear Repulsion Energy =            595.9560486822271059
    One-Electron Energy =               -1866.2752798197805078
    Two-Electron Energy =                 766.6004979828493333
    Total Energy =                       -503.7187331547039548
  Basis Set: (AUG-CC-PVTZ AUX)
    Blend: AUG-CC-PVTZ-RI
    Molecular point group: c1

    Geometry (in Angstrom), charge = 0, multiplicity = 1:

       Center              X                  Y                   Z               Mass
    ------------   -----------------  -----------------  -----------------  -----------------
         N           -1.812590238945    -0.161885958068    -0.003016988283    14.003074004430
         N           -0.357789938945    -1.814696758068    -0.011636788283    14.003074004430
         N           -0.290579238945     1.749678041932    -0.001851988283    14.003074004430
         N            2.029947761055     1.036071041932    -0.010779988283    14.003074004430
         N            2.703530761055    -1.196827958068     0.075714011717    14.003074004430
         C           -0.626363938945     0.386432041932     0.000888611717    12.000000000000
         C            0.343341761055    -0.625866958068     0.005305011717    12.000000000000
         C           -1.580217238945    -1.515854958068    -0.009212988283    12.000000000000
         C            1.702478761055    -0.265426958068    -0.001417988283    12.000000000000
         C           -3.088754238945     0.532741041932    -0.000039988283    12.000000000000
         C            1.034596761055     1.950515041932    -0.012047988283    12.000000000000
         H           -2.401921238945    -2.223692958068    -0.015562988283     1.007825032230
         H           -3.168783238945     1.169231041932    -0.883007988283     1.007825032230
         H           -3.885902238945    -0.211889958068    -0.009604988283     1.007825032230
         H           -3.174483238945     1.152218041932     0.894490011717     1.007825032230
         H            1.359189761055     2.989085041932    -0.015804988283     1.007825032230
         H            3.613174761055    -0.863163958068    -0.222456988283     1.007825032230
         H            2.456199761055    -2.132856958068    -0.224166988283     1.007825032230

  Basis Set: AUG-CC-PVTZ
    Blend: AUG-CC-PVTZ
  Basis Set: (AUG-CC-PVTZ AUX)
    Blend: AUG-CC-PVTZ-JKFIT
	 Reference Energy          =    -503.7187331547039548 [Eh]
	 Singles Energy            =      -0.0000000000000000 [Eh]
	 Same-Spin Energy          =      -0.5472032216084551 [Eh]
	 Opposite-Spin Energy      =      -1.6293425839836810 [Eh]
	 Correlation Energy        =      -2.1765458055921361 [Eh]
	 Total Energy              =    -505.8952789602960820 [Eh]

	 ================> DF-SCS-MP2 Energies <==================
	-----------------------------------------------------------
	 SCS Same-Spin Scale       =       0.3333333333333333 [-]
	 SCS Opposite-Spin Scale   =       1.2000000000000000 [-]
	 SCS Same-Spin Energy      =      -0.1824010738694850 [Eh]
	 SCS Opposite-Spin Energy  =      -1.9552111007804172 [Eh]
	 SCS Correlation Energy    =      -2.1376121746499024 [Eh]
	 SCS Total Energy          =    -505.8563453293538714 [Eh]
	-----------------------------------------------------------

  Dipole Moment: [D]
     X:    -2.8112      Y:    -1.4400      Z:    -0.7905     Total:     3.2560

*** Psi4 exiting successfully. Buy a developer a beer!
