                               Psi4 1.3.2 release

  ==> Input File <==

--------------------------------------------------------------------------
#psi4
#
memory 32 gb

molecule  {
0 1
  N       -1.7893040    -0.1617730    -0.0001110
  N       -0.2713240    -1.8496560    -0.0082220
  N       -0.2672930     1.7497910     0.0010540
  N        2.0532340     1.0361840    -0.0078740
  N        2.7268170    -1.1967150     0.0786200
  C       -0.5487760     0.4359060     0.0048010
  C        0.3666280    -0.6257540     0.0082110
  C       -1.5569310    -1.5157420    -0.0063070
  C        1.7257650    -0.2653140     0.0014880
  C       -3.0654680     0.5328540     0.0028660
  C        1.0578830     1.9506280    -0.0091420
  H       -2.3786350    -2.2235800    -0.0126570
  H       -3.1454970     1.1693440    -0.8801020
  H       -3.8752716    -0.1976796     0.0263304
  H       -3.1817831     1.1320787     0.9076785
  H        1.3824760     2.9891980    -0.0128990
  H        3.6364610    -0.8630510    -0.2195510
  H        2.4794860    -2.1327440    -0.2212610
units angstrom
no_reorient  #important for SAPT in psi4, default
symmetry c1  #important for SAPT in psi4, default
}

set PROPERTIES_ORIGIN ["COM"]
properties('MP2/aug-cc-pvtz', properties = ['dipole'])
--------------------------------------------------------------------------

    Molecular point group: c1
  Charge       = 0
  Multiplicity = 1
  Basis Set: AUG-CC-PVTZ
    Blend: AUG-CC-PVTZ
  Basis Set: (AUG-CC-PVTZ AUX)
    Blend: AUG-CC-PVTZ-JKFIT

    Orbital Energies [Eh]
    ---------------------

    Doubly Occupied:

       1A    -15.633558     2A    -15.581020     3A    -15.567471
       4A    -15.560651     5A    -15.552372     6A    -11.334545
       7A    -11.322611     8A    -11.313225     9A    -11.311550
      10A    -11.288602    11A    -11.251954    12A     -1.367857
      13A     -1.296177    14A     -1.242265    15A     -1.196781
      16A     -1.151880    17A     -1.031406    18A     -0.986103
      19A     -0.890698    20A     -0.872047    21A     -0.803303
      22A     -0.753940    23A     -0.724085    24A     -0.681532
      25A     -0.673249    26A     -0.666489    27A     -0.624653
      28A     -0.605472    29A     -0.597912    30A     -0.590047
      31A     -0.570269    32A     -0.537168    33A     -0.495575
      34A     -0.492579    35A     -0.450540    36A     -0.414553
      37A     -0.408537    38A     -0.368519    39A     -0.307823

  @DF-RHF Final Energy:  -503.72450301596683

   => Energetics <=

    Nuclear Repulsion Energy =            594.2410010569134329
    One-Electron Energy =               -1862.8929658334975556
    Two-Electron Energy =                 764.9274617606171205
    Total Energy =                       -503.7245030159668886
  Basis Set: (AUG-CC-PVTZ AUX)
    Blend: AUG-CC-PVTZ-RI
    Molecular point group: c1

    Geometry (in Angstrom), charge = 0, multiplicity = 1:

       Center              X                  Y                   Z               Mass
    ------------   -----------------  -----------------  -----------------  -----------------
         N           -1.822603983444    -0.162523311212    -0.003438617851    14.003074004430
         N           -0.304623983444    -1.850406311212    -0.011549617851    14.003074004430
         N           -0.300592983444     1.749040688788    -0.002273617851    14.003074004430
         N            2.019934016556     1.035433688788    -0.011201617851    14.003074004430
         N            2.693517016556    -1.197465311212     0.075292382149    14.003074004430
         C           -0.582075983444     0.435155688788     0.001473382149    12.000000000000
         C            0.333328016556    -0.626504311212     0.004883382149    12.000000000000
         C           -1.590230983444    -1.516492311212    -0.009634617851    12.000000000000
         C            1.692465016556    -0.266064311212    -0.001839617851    12.000000000000
         C           -3.098767983444     0.532103688788    -0.000461617851    12.000000000000
         C            1.024583016556     1.949877688788    -0.012469617851    12.000000000000
         H           -2.411934983444    -2.224330311212    -0.015984617851     1.007825032230
         H           -3.178796983444     1.168593688788    -0.883429617851     1.007825032230
         H           -3.908571583444    -0.198429911212     0.023002782149     1.007825032230
         H           -3.215083083444     1.131328388788     0.904350882149     1.007825032230
         H            1.349176016556     2.988447688788    -0.016226617851     1.007825032230
         H            3.603161016556    -0.863801311212    -0.222878617851     1.007825032230
         H            2.446186016556    -2.133494311212    -0.224588617851     1.007825032230

  Basis Set: AUG-CC-PVTZ
    Blend: AUG-CC-PVTZ
  Basis Set: (AUG-CC-PVTZ AUX)
    Blend: AUG-CC-PVTZ-JKFIT
	 Reference Energy          =    -503.7245030159668318 [Eh]
	 Singles Energy            =      -0.0000000000000000 [Eh]
	 Same-Spin Energy          =      -0.5492482059999499 [Eh]
	 Opposite-Spin Energy      =      -1.6330799609805089 [Eh]
	 Correlation Energy        =      -2.1823281669804588 [Eh]
	 Total Energy              =    -505.9068311829473146 [Eh]

	 ================> DF-SCS-MP2 Energies <==================
	-----------------------------------------------------------
	 SCS Same-Spin Scale       =       0.3333333333333333 [-]
	 SCS Opposite-Spin Scale   =       1.2000000000000000 [-]
	 SCS Same-Spin Energy      =      -0.1830827353333166 [Eh]
	 SCS Opposite-Spin Energy  =      -1.9596959531766105 [Eh]
	 SCS Correlation Energy    =      -2.1427786885099271 [Eh]
	 SCS Total Energy          =    -505.8672817044767385 [Eh]
	-----------------------------------------------------------

  Dipole Moment: [D]
     X:    -2.7449      Y:    -1.1664      Z:    -0.7666     Total:     3.0794

*** Psi4 exiting successfully. Buy a developer a beer!
