                               Psi4 1.3.2 release

  ==> Input File <==

--------------------------------------------------------------------------
#psi4
#
memory 32 gb

molecule  {
0 1
  N       -1.7893040    -0.1617730    -0.0001110
  N       -0.2713240    -1.8496560    -0.0082220
  N       -0.2549620     1.6807123     0.0015536
  N        2.0040137     0.9853479    -0.0071318
  N        2.7268170    -1.1967150     0.0786200
  C       -0.5487760     0.4359060     0.0048010
  C        0.3666280    -0.6257540     0.0082110
  C       -1.5569310    -1.5157420    -0.0063070
  C        1.7257650    -0.2653140     0.0014880
  C       -3.0654680     0.5328540     0.0028660
  C        1.0578830     1.9506280    -0.0091420
  H       -2.3786350    -2.2235800    -0.0126570
  H       -3.1454970     1.1693440    -0.8801020
  H       -3.8626160    -0.2117770    -0.0066990
  H       -3.1511970     1.1523310     0.8973960
  H        1.3824760     2.9891980    -0.0128990
  H        3.6364610    -0.8630510    -0.2195510
  H        2.4794860    -2.1327440    -0.2212610
units angstrom
no_reorient  #important for SAPT in psi4, default
symmetry c1  #important for SAPT in psi4, default
}

set PROPERTIES_ORIGIN ["COM"]
properties('MP2/aug-cc-pvtz', properties = ['dipole'])
--------------------------------------------------------------------------

    Molecular point group: c1
  Charge       = 0
  Multiplicity = 1
  Basis Set: AUG-CC-PVTZ
    Blend: AUG-CC-PVTZ
  Basis Set: (AUG-CC-PVTZ AUX)
    Blend: AUG-CC-PVTZ-JKFIT

    Orbital Energies [Eh]
    ---------------------

    Doubly Occupied:

       1A    -15.628525     2A    -15.573022     3A    -15.563307
       4A    -15.555014     5A    -15.545080     6A    -11.321739
       7A    -11.320572     8A    -11.315540     9A    -11.302995
      10A    -11.287099    11A    -11.247381    12A     -1.369528
      13A     -1.308326    14A     -1.248704    15A     -1.193752
      16A     -1.160577    17A     -1.029229    18A     -0.983264
      19A     -0.896724    20A     -0.877799    21A     -0.802602
      22A     -0.757160    23A     -0.723473    24A     -0.683940
      25A     -0.674327    26A     -0.666625    27A     -0.630289
      28A     -0.606086    29A     -0.601296    30A     -0.596461
      31A     -0.572907    32A     -0.537986    33A     -0.498575
      34A     -0.493133    35A     -0.446531    36A     -0.412263
      37A     -0.396620    38A     -0.371566    39A     -0.301738

  @DF-RHF Final Energy:  -503.72013298683021

   => Energetics <=

    Nuclear Repulsion Energy =            598.2700027953640074
    One-Electron Energy =               -1870.9767666574832674
    Two-Electron Energy =                 768.9866308752890518
    Total Energy =                       -503.7201329868302082
  Basis Set: (AUG-CC-PVTZ AUX)
    Blend: AUG-CC-PVTZ-RI
    Molecular point group: c1

    Geometry (in Angstrom), charge = 0, multiplicity = 1:

       Center              X                  Y                   Z               Mass
    ------------   -----------------  -----------------  -----------------  -----------------
         N           -1.819431091049    -0.151300589495    -0.003262447099    14.003074004430
         N           -0.301451091049    -1.839183589495    -0.011373447099    14.003074004430
         N           -0.285089091049     1.691184710505    -0.001597847099    14.003074004430
         N            1.973886608951     0.995820310505    -0.010283247099    14.003074004430
         N            2.696689908951    -1.186242589495     0.075468552901    14.003074004430
         C           -0.578903091049     0.446378410505     0.001649552901    12.000000000000
         C            0.336500908951    -0.615281589495     0.005059552901    12.000000000000
         C           -1.587058091049    -1.505269589495    -0.009458447099    12.000000000000
         C            1.695637908951    -0.254841589495    -0.001663447099    12.000000000000
         C           -3.095595091049     0.543326410505    -0.000285447099    12.000000000000
         C            1.027755908951     1.961100410505    -0.012293447099    12.000000000000
         H           -2.408762091049    -2.213107589495    -0.015808447099     1.007825032230
         H           -3.175624091049     1.179816410505    -0.883253447099     1.007825032230
         H           -3.892743091049    -0.201304589495    -0.009850447099     1.007825032230
         H           -3.181324091049     1.162803410505     0.894244552901     1.007825032230
         H            1.352348908951     2.999670410505    -0.016050447099     1.007825032230
         H            3.606333908951    -0.852578589495    -0.222702447099     1.007825032230
         H            2.449358908951    -2.122271589495    -0.224412447099     1.007825032230

  Basis Set: AUG-CC-PVTZ
    Blend: AUG-CC-PVTZ
  Basis Set: (AUG-CC-PVTZ AUX)
    Blend: AUG-CC-PVTZ-JKFIT
	 Reference Energy          =    -503.7201329868302082 [Eh]
	 Singles Energy            =      -0.0000000000000000 [Eh]
	 Same-Spin Energy          =      -0.5496985504996637 [Eh]
	 Opposite-Spin Energy      =      -1.6312955768628217 [Eh]
	 Correlation Energy        =      -2.1809941273624851 [Eh]
	 Total Energy              =    -505.9011271141927182 [Eh]

	 ================> DF-SCS-MP2 Energies <==================
	-----------------------------------------------------------
	 SCS Same-Spin Scale       =       0.3333333333333333 [-]
	 SCS Opposite-Spin Scale   =       1.2000000000000000 [-]
	 SCS Same-Spin Energy      =      -0.1832328501665546 [Eh]
	 SCS Opposite-Spin Energy  =      -1.9575546922353859 [Eh]
	 SCS Correlation Energy    =      -2.1407875424019407 [Eh]
	 SCS Total Energy          =    -505.8609205292321462 [Eh]
	-----------------------------------------------------------

  Dipole Moment: [D]
     X:    -2.7268      Y:    -0.7077      Z:    -0.8004     Total:     2.9286

*** Psi4 exiting successfully. Buy a developer a beer!
