                               Psi4 1.3.2 release

  ==> Input File <==

--------------------------------------------------------------------------
#psi4
#
memory 32 gb

molecule  {
0 1
  N       -1.8128987    -0.1660343    -0.0002107
  N       -0.2713240    -1.8496560    -0.0082220
  N       -0.2672930     1.7497910     0.0010540
  N        2.0532340     1.0361840    -0.0078740
  N        2.7268170    -1.1967150     0.0786200
  C       -0.5487760     0.4359060     0.0048010
  C        0.3666280    -0.6257540     0.0082110
  C       -1.5569310    -1.5157420    -0.0063070
  C        1.7257650    -0.2653140     0.0014880
  C       -3.0654680     0.5328540     0.0028660
  C        1.0578830     1.9506280    -0.0091420
  H       -2.3908637    -2.2091314    -0.0126230
  H       -3.1454970     1.1693440    -0.8801020
  H       -3.8626160    -0.2117770    -0.0066990
  H       -3.1511970     1.1523310     0.8973960
  H        1.3824760     2.9891980    -0.0128990
  H        3.6364610    -0.8630510    -0.2195510
  H        2.4794860    -2.1327440    -0.2212610
units angstrom
no_reorient  #important for SAPT in psi4, default
symmetry c1  #important for SAPT in psi4, default
}

set PROPERTIES_ORIGIN ["COM"]
properties('MP2/aug-cc-pvtz', properties = ['dipole'])
--------------------------------------------------------------------------

    Molecular point group: c1
  Charge       = 0
  Multiplicity = 1
  Basis Set: AUG-CC-PVTZ
    Blend: AUG-CC-PVTZ
  Basis Set: (AUG-CC-PVTZ AUX)
    Blend: AUG-CC-PVTZ-JKFIT

    Orbital Energies [Eh]
    ---------------------

    Doubly Occupied:

       1A    -15.632649     2A    -15.581477     3A    -15.567465
       4A    -15.561961     5A    -15.553528     6A    -11.335128
       7A    -11.324184     8A    -11.315234     9A    -11.311950
      10A    -11.286799    11A    -11.253708    12A     -1.364696
      13A     -1.296808    14A     -1.242681    15A     -1.199034
      16A     -1.152988    17A     -1.030458    18A     -0.986898
      19A     -0.890128    20A     -0.872346    21A     -0.802929
      22A     -0.753103    23A     -0.723328    24A     -0.681624
      25A     -0.674062    26A     -0.666229    27A     -0.626668
      28A     -0.608475    29A     -0.597261    30A     -0.591713
      31A     -0.566977    32A     -0.535690    33A     -0.496049
      34A     -0.493888    35A     -0.450925    36A     -0.413574
      37A     -0.408793    38A     -0.370169    39A     -0.307689

  @DF-RHF Final Energy:  -503.72324951593748

   => Energetics <=

    Nuclear Repulsion Energy =            593.9250391699569036
    One-Electron Energy =               -1862.2380456459502511
    Two-Electron Energy =                 764.5897569600559791
    Total Energy =                       -503.7232495159374821
  Basis Set: (AUG-CC-PVTZ AUX)
    Blend: AUG-CC-PVTZ-RI
    Molecular point group: c1

    Geometry (in Angstrom), charge = 0, multiplicity = 1:

       Center              X                  Y                   Z               Mass
    ------------   -----------------  -----------------  -----------------  -----------------
         N           -1.844191959348    -0.166523616120    -0.003236361632    14.003074004430
         N           -0.302617259348    -1.850145316120    -0.011247661632    14.003074004430
         N           -0.298586259348     1.749301683880    -0.001971661632    14.003074004430
         N            2.021940740652     1.035694683880    -0.010899661632    14.003074004430
         N            2.695523740652    -1.197204316120     0.075594338368    14.003074004430
         C           -0.580069259348     0.435416683880     0.001775338368    12.000000000000
         C            0.335334740652    -0.626243316120     0.005185338368    12.000000000000
         C           -1.588224259348    -1.516231316120    -0.009332661632    12.000000000000
         C            1.694471740652    -0.265803316120    -0.001537661632    12.000000000000
         C           -3.096761259348     0.532364683880    -0.000159661632    12.000000000000
         C            1.026589740652     1.950138683880    -0.012167661632    12.000000000000
         H           -2.422156959348    -2.209620716120    -0.015648661632     1.007825032230
         H           -3.176790259348     1.168854683880    -0.883127661632     1.007825032230
         H           -3.893909259348    -0.212266316120    -0.009724661632     1.007825032230
         H           -3.182490259348     1.151841683880     0.894370338368     1.007825032230
         H            1.351182740652     2.988708683880    -0.015924661632     1.007825032230
         H            3.605167740652    -0.863540316120    -0.222576661632     1.007825032230
         H            2.448192740652    -2.133233316120    -0.224286661632     1.007825032230

  Basis Set: AUG-CC-PVTZ
    Blend: AUG-CC-PVTZ
  Basis Set: (AUG-CC-PVTZ AUX)
    Blend: AUG-CC-PVTZ-JKFIT
	 Reference Energy          =    -503.7232495159374821 [Eh]
	 Singles Energy            =      -0.0000000000000000 [Eh]
	 Same-Spin Energy          =      -0.5494676084885406 [Eh]
	 Opposite-Spin Energy      =      -1.6335462569115691 [Eh]
	 Correlation Energy        =      -2.1830138654001097 [Eh]
	 Total Energy              =    -505.9062633813375669 [Eh]

	 ================> DF-SCS-MP2 Energies <==================
	-----------------------------------------------------------
	 SCS Same-Spin Scale       =       0.3333333333333333 [-]
	 SCS Opposite-Spin Scale   =       1.2000000000000000 [-]
	 SCS Same-Spin Energy      =      -0.1831558694961802 [Eh]
	 SCS Opposite-Spin Energy  =      -1.9602555082938828 [Eh]
	 SCS Correlation Energy    =      -2.1434113777900632 [Eh]
	 SCS Total Energy          =    -505.8666608937275555 [Eh]
	-----------------------------------------------------------

  Dipole Moment: [D]
     X:    -2.6521      Y:    -1.1363      Z:    -0.7892     Total:     2.9913

*** Psi4 exiting successfully. Buy a developer a beer!
