                               Psi4 1.3.2 release

  ==> Input File <==

--------------------------------------------------------------------------
#psi4
#
memory 32 gb

molecule  {
0 1
  N       -1.7893040    -0.1617730    -0.0001110
  N       -0.2713240    -1.8496560    -0.0082220
  N       -0.2672930     1.7497910     0.0010540
  N        2.0532340     1.0361840    -0.0078740
  N        2.7268170    -1.1967150     0.0786200
  C       -0.5068794     0.6314677     0.0042433
  C        0.3666280    -0.6257540     0.0082110
  C       -1.5569310    -1.5157420    -0.0063070
  C        1.7257650    -0.2653140     0.0014880
  C       -3.0654680     0.5328540     0.0028660
  C        1.0578830     1.9506280    -0.0091420
  H       -2.3786350    -2.2235800    -0.0126570
  H       -3.1454970     1.1693440    -0.8801020
  H       -3.8626160    -0.2117770    -0.0066990
  H       -3.1511970     1.1523310     0.8973960
  H        1.3824760     2.9891980    -0.0128990
  H        3.6364610    -0.8630510    -0.2195510
  H        2.4794860    -2.1327440    -0.2212610
units angstrom
no_reorient  #important for SAPT in psi4, default
symmetry c1  #important for SAPT in psi4, default
}

set PROPERTIES_ORIGIN ["COM"]
properties('MP2/aug-cc-pvtz', properties = ['dipole'])
--------------------------------------------------------------------------

    Molecular point group: c1
  Charge       = 0
  Multiplicity = 1
  Basis Set: AUG-CC-PVTZ
    Blend: AUG-CC-PVTZ
  Basis Set: (AUG-CC-PVTZ AUX)
    Blend: AUG-CC-PVTZ-JKFIT

    Orbital Energies [Eh]
    ---------------------

    Doubly Occupied:

       1A    -15.616812     2A    -15.571318     3A    -15.568467
       4A    -15.563547     5A    -15.562205     6A    -11.326632
       7A    -11.324441     8A    -11.321592     9A    -11.321567
      10A    -11.277607    11A    -11.259596    12A     -1.375302
      13A     -1.308826    14A     -1.268509    15A     -1.182436
      16A     -1.172457    17A     -1.013912    18A     -0.966657
      19A     -0.906728    20A     -0.876065    21A     -0.790079
      22A     -0.753792    23A     -0.719791    24A     -0.687463
      25A     -0.668371    26A     -0.657140    27A     -0.636940
      28A     -0.602809    29A     -0.598840    30A     -0.592157
      31A     -0.546966    32A     -0.528011    33A     -0.524804
      34A     -0.498929    35A     -0.454362    36A     -0.414328
      37A     -0.402938    38A     -0.379223    39A     -0.285634

  @DF-RHF Final Energy:  -503.64954182685841

   => Energetics <=

    Nuclear Repulsion Energy =            593.8323429875122201
    One-Electron Energy =               -1861.9092624385152703
    Two-Electron Energy =                 764.4273776241445830
    Total Energy =                       -503.6495418268584672
  Basis Set: (AUG-CC-PVTZ AUX)
    Blend: AUG-CC-PVTZ-RI
    Molecular point group: c1

    Geometry (in Angstrom), charge = 0, multiplicity = 1:

       Center              X                  Y                   Z               Mass
    ------------   -----------------  -----------------  -----------------  -----------------
         N           -1.826268964562    -0.178307447320    -0.003100902899    14.003074004430
         N           -0.308288964562    -1.866190447320    -0.011211902899    14.003074004430
         N           -0.304257964562     1.733256552680    -0.001935902899    14.003074004430
         N            2.016269035438     1.019649552680    -0.010863902899    14.003074004430
         N            2.689852035438    -1.213249447320     0.075630097101    14.003074004430
         C           -0.543844364562     0.614933252680     0.001253397101    12.000000000000
         C            0.329663035438    -0.642288447320     0.005221097101    12.000000000000
         C           -1.593895964562    -1.532276447320    -0.009296902899    12.000000000000
         C            1.688800035438    -0.281848447320    -0.001501902899    12.000000000000
         C           -3.102432964562     0.516319552680    -0.000123902899    12.000000000000
         C            1.020918035438     1.934093552680    -0.012131902899    12.000000000000
         H           -2.415599964562    -2.240114447320    -0.015646902899     1.007825032230
         H           -3.182461964562     1.152809552680    -0.883091902899     1.007825032230
         H           -3.899580964562    -0.228311447320    -0.009688902899     1.007825032230
         H           -3.188161964562     1.135796552680     0.894406097101     1.007825032230
         H            1.345511035438     2.972663552680    -0.015888902899     1.007825032230
         H            3.599496035438    -0.879585447320    -0.222540902899     1.007825032230
         H            2.442521035438    -2.149278447320    -0.224250902899     1.007825032230

  Basis Set: AUG-CC-PVTZ
    Blend: AUG-CC-PVTZ
  Basis Set: (AUG-CC-PVTZ AUX)
    Blend: AUG-CC-PVTZ-JKFIT
	 Reference Energy          =    -503.6495418268584103 [Eh]
	 Singles Energy            =      -0.0000000000000000 [Eh]
	 Same-Spin Energy          =      -0.5512218431869511 [Eh]
	 Opposite-Spin Energy      =      -1.6358231099568510 [Eh]
	 Correlation Energy        =      -2.1870449531438023 [Eh]
	 Total Energy              =    -505.8365867800022215 [Eh]

	 ================> DF-SCS-MP2 Energies <==================
	-----------------------------------------------------------
	 SCS Same-Spin Scale       =       0.3333333333333333 [-]
	 SCS Opposite-Spin Scale   =       1.2000000000000000 [-]
	 SCS Same-Spin Energy      =      -0.1837406143956504 [Eh]
	 SCS Opposite-Spin Energy  =      -1.9629877319482212 [Eh]
	 SCS Correlation Energy    =      -2.1467283463438713 [Eh]
	 SCS Total Energy          =    -505.7962701732022879 [Eh]
	-----------------------------------------------------------

  Dipole Moment: [D]
     X:    -2.4355      Y:    -0.6053      Z:    -0.7946     Total:     2.6324

*** Psi4 exiting successfully. Buy a developer a beer!
