                               Psi4 1.4a3.dev225

  ==> Input File <==

--------------------------------------------------------------------------
#psi4
#
memory 32 gb

molecule  {
0 1
  N       -1.7889380    -0.1640290    -0.0179520
  N       -0.2703210    -1.8482040    -0.0023970
  N       -0.2671710     1.7490810    -0.0033560
  N        2.0541740     1.0368940    -0.0085470
  N        2.7206340    -1.1973270     0.0732090
  C       -0.5486140     0.4351420     0.0045870
  C        0.3650590    -0.6247560     0.0169900
  C       -1.5569260    -1.5161270    -0.0162740
  C        1.7266360    -0.2641570     0.0048060
  C       -3.0641060     0.5324820     0.0177850
  C        1.0564750     1.9508360    -0.0110870
  H       -2.3762040    -2.2259510    -0.0342240
  H       -2.9284720     1.5041700    -0.4579320
  H       -3.8067760    -0.0485880    -0.5312030
  H       -3.3972360     0.6796990     1.0480130
  H        1.3662910     2.9414333    -0.0222684
  H        3.6427950    -0.8729100    -0.1905990
  H        2.4748820    -2.1409930    -0.1987870
units angstrom
no_reorient  #important for SAPT in psi4, default
symmetry c1  #important for SAPT in psi4, default
}

set PROPERTIES_ORIGIN ["COM"]
properties('MP2/aug-cc-pvtz', properties = ['dipole'])
--------------------------------------------------------------------------

    Molecular point group: c1
  Charge       = 0
  Multiplicity = 1
  Basis Set: AUG-CC-PVTZ
    Blend: AUG-CC-PVTZ
  Basis Set: (AUG-CC-PVTZ AUX)
    Blend: AUG-CC-PVTZ-JKFIT

    Orbital Energies [Eh]
    ---------------------

    Doubly Occupied:

       1A    -15.631933     2A    -15.581203     3A    -15.567180
       4A    -15.559480     5A    -15.551155     6A    -11.334456
       7A    -11.320765     8A    -11.312179     9A    -11.305655
      10A    -11.286957    11A    -11.250637    12A     -1.367475
      13A     -1.295997    14A     -1.242710    15A     -1.196428
      16A     -1.151460    17A     -1.031657    18A     -0.985192
      19A     -0.892013    20A     -0.874773    21A     -0.803178
      22A     -0.753814    23A     -0.727930    24A     -0.682262
      25A     -0.674211    26A     -0.666083    27A     -0.626020
      28A     -0.606022    29A     -0.597846    30A     -0.593360
      31A     -0.571969    32A     -0.536609    33A     -0.495355
      34A     -0.492648    35A     -0.450943    36A     -0.413933
      37A     -0.407841    38A     -0.367288    39A     -0.306703

  @DF-RHF Final Energy:  -503.72431124196868

   => Energetics <=

    Nuclear Repulsion Energy =            594.8946555983671942
    One-Electron Energy =               -1864.2112956821258649
    Two-Electron Energy =                 765.5923288417899357
    Total Energy =                       -503.7243112419686213
  Basis Set: (AUG-CC-PVTZ AUX)
    Blend: AUG-CC-PVTZ-RI
    Molecular point group: c1

    Geometry (in Angstrom), charge = 0, multiplicity = 1:

       Center              X                  Y                   Z               Mass
    ------------   -----------------  -----------------  -----------------  -----------------
         N           -1.822231505689    -0.164465919306    -0.020535878957    14.003074004430
         N           -0.303614505689    -1.848640919306    -0.004980878957    14.003074004430
         N           -0.300464505689     1.748644080694    -0.005939878957    14.003074004430
         N            2.020880494311     1.036457080694    -0.011130878957    14.003074004430
         N            2.687340494311    -1.197763919306     0.070625121043    14.003074004430
         C           -0.581907505689     0.434705080694     0.002003121043    12.000000000000
         C            0.331765494311    -0.625192919306     0.014406121043    12.000000000000
         C           -1.590219505689    -1.516563919306    -0.018857878957    12.000000000000
         C            1.693342494311    -0.264593919306     0.002222121043    12.000000000000
         C           -3.097399505689     0.532045080694     0.015201121043    12.000000000000
         C            1.023181494311     1.950399080694    -0.013670878957    12.000000000000
         H           -2.409497505689    -2.226387919306    -0.036807878957     1.007825032230
         H           -2.961765505689     1.503733080694    -0.460515878957     1.007825032230
         H           -3.840069505689    -0.049024919306    -0.533786878957     1.007825032230
         H           -3.430529505689     0.679262080694     1.045429121043     1.007825032230
         H            1.332997494311     2.940996380694    -0.024852278957     1.007825032230
         H            3.609501494311    -0.873346919306    -0.193182878957     1.007825032230
         H            2.441588494311    -2.141429919306    -0.201370878957     1.007825032230

  Basis Set: AUG-CC-PVTZ
    Blend: AUG-CC-PVTZ
  Basis Set: (AUG-CC-PVTZ AUX)
    Blend: AUG-CC-PVTZ-JKFIT
	 Reference Energy          =    -503.7243112419686781 [Eh]
	 Singles Energy            =      -0.0000000000000000 [Eh]
	 Same-Spin Energy          =      -0.5492007497889901 [Eh]
	 Opposite-Spin Energy      =      -1.6325861049996406 [Eh]
	 Correlation Energy        =      -2.1817868547886308 [Eh]
	 Total Energy              =    -505.9060980967573187 [Eh]

	 ================> DF-SCS-MP2 Energies <==================
	-----------------------------------------------------------
	 SCS Same-Spin Scale       =       0.3333333333333333 [-]
	 SCS Opposite-Spin Scale   =       1.2000000000000000 [-]
	 SCS Same-Spin Energy      =      -0.1830669165963300 [Eh]
	 SCS Opposite-Spin Energy  =      -1.9591033259995687 [Eh]
	 SCS Correlation Energy    =      -2.1421702425958986 [Eh]
	 SCS Total Energy          =    -505.8664814845645878 [Eh]
	-----------------------------------------------------------

  Dipole Moment: [D]
     X:    -2.6360      Y:    -1.1885      Z:    -0.7130     Total:     2.9781

*** Psi4 exiting successfully. Buy a developer a beer!
