                               Psi4 1.3.2 release

  ==> Input File <==

--------------------------------------------------------------------------
#psi4
#
memory 32 gb

molecule  {
0 1
  N       -1.7893040    -0.1617730    -0.0001110
  N       -0.2713240    -1.8496560    -0.0082220
  N       -0.2672930     1.7497910     0.0010540
  N        2.0532340     1.0361840    -0.0078740
  N        2.7268170    -1.1967150     0.0786200
  C       -0.5487760     0.4359060     0.0048010
  C        0.3666280    -0.6257540     0.0082110
  C       -1.5569310    -1.5157420    -0.0063070
  C        1.7257650    -0.2653140     0.0014880
  C       -3.0654680     0.5328540     0.0028660
  C        1.0578830     1.9506280    -0.0091420
  H       -2.3786350    -2.2235800    -0.0126570
  H       -3.1454970     1.1693440    -0.8801020
  H       -3.8592997    -0.2151603    -0.0149561
  H       -3.1435327     1.1572771     0.8946546
  H        1.3824760     2.9891980    -0.0128990
  H        3.6364610    -0.8630510    -0.2195510
  H        2.4794860    -2.1327440    -0.2212610
units angstrom
no_reorient  #important for SAPT in psi4, default
symmetry c1  #important for SAPT in psi4, default
}

set PROPERTIES_ORIGIN ["COM"]
properties('MP2/aug-cc-pvtz', properties = ['dipole'])
--------------------------------------------------------------------------

    Molecular point group: c1
  Charge       = 0
  Multiplicity = 1
  Basis Set: AUG-CC-PVTZ
    Blend: AUG-CC-PVTZ
  Basis Set: (AUG-CC-PVTZ AUX)
    Blend: AUG-CC-PVTZ-JKFIT

    Orbital Energies [Eh]
    ---------------------

    Doubly Occupied:

       1A    -15.632959     2A    -15.581000     3A    -15.567314
       4A    -15.560720     5A    -15.552384     6A    -11.334520
       7A    -11.322500     8A    -11.312970     9A    -11.311596
      10A    -11.288761    11A    -11.251864    12A     -1.367771
      13A     -1.296179    14A     -1.242262    15A     -1.196861
      16A     -1.151907    17A     -1.031369    18A     -0.986056
      19A     -0.890758    20A     -0.872109    21A     -0.802687
      22A     -0.753376    23A     -0.724118    24A     -0.680456
      25A     -0.673323    26A     -0.666353    27A     -0.624615
      28A     -0.606722    29A     -0.596508    30A     -0.591734
      31A     -0.572035    32A     -0.536648    33A     -0.495585
      34A     -0.492664    35A     -0.450512    36A     -0.414125
      37A     -0.408576    38A     -0.368362    39A     -0.307767

  @DF-RHF Final Energy:  -503.72482274537111

   => Energetics <=

    Nuclear Repulsion Energy =            594.3506193673186999
    One-Electron Energy =               -1863.1148266528732620
    Two-Electron Energy =                 765.0393845401835051
    Total Energy =                       -503.7248227453711706
  Basis Set: (AUG-CC-PVTZ AUX)
    Blend: AUG-CC-PVTZ-RI
    Molecular point group: c1

    Geometry (in Angstrom), charge = 0, multiplicity = 1:

       Center              X                  Y                   Z               Mass
    ------------   -----------------  -----------------  -----------------  -----------------
         N           -1.822970566512    -0.162575488602    -0.003071439162    14.003074004430
         N           -0.304990566512    -1.850458488602    -0.011182439162    14.003074004430
         N           -0.300959566512     1.748988511398    -0.001906439162    14.003074004430
         N            2.019567433488     1.035381511398    -0.010834439162    14.003074004430
         N            2.693150433488    -1.197517488602     0.075659560838    14.003074004430
         C           -0.582442566512     0.435103511398     0.001840560838    12.000000000000
         C            0.332961433488    -0.626556488602     0.005250560838    12.000000000000
         C           -1.590597566512    -1.516544488602    -0.009267439162    12.000000000000
         C            1.692098433488    -0.266116488602    -0.001472439162    12.000000000000
         C           -3.099134566512     0.532051511398    -0.000094439162    12.000000000000
         C            1.024216433488     1.949825511398    -0.012102439162    12.000000000000
         H           -2.412301566512    -2.224382488602    -0.015617439162     1.007825032230
         H           -3.179163566512     1.168541511398    -0.883062439162     1.007825032230
         H           -3.892966266512    -0.215962788602    -0.017916539162     1.007825032230
         H           -3.177199266512     1.156474611398     0.891694160838     1.007825032230
         H            1.348809433488     2.988395511398    -0.015859439162     1.007825032230
         H            3.602794433488    -0.863853488602    -0.222511439162     1.007825032230
         H            2.445819433488    -2.133546488602    -0.224221439162     1.007825032230

  Basis Set: AUG-CC-PVTZ
    Blend: AUG-CC-PVTZ
  Basis Set: (AUG-CC-PVTZ AUX)
    Blend: AUG-CC-PVTZ-JKFIT
	 Reference Energy          =    -503.7248227453711138 [Eh]
	 Singles Energy            =      -0.0000000000000000 [Eh]
	 Same-Spin Energy          =      -0.5492836010005584 [Eh]
	 Opposite-Spin Energy      =      -1.6331443571169844 [Eh]
	 Correlation Energy        =      -2.1824279581175428 [Eh]
	 Total Energy              =    -505.9072507034886712 [Eh]

	 ================> DF-SCS-MP2 Energies <==================
	-----------------------------------------------------------
	 SCS Same-Spin Scale       =       0.3333333333333333 [-]
	 SCS Opposite-Spin Scale   =       1.2000000000000000 [-]
	 SCS Same-Spin Energy      =      -0.1830945336668528 [Eh]
	 SCS Opposite-Spin Energy  =      -1.9597732285403811 [Eh]
	 SCS Correlation Energy    =      -2.1428677622072341 [Eh]
	 SCS Total Energy          =    -505.8676905075783452 [Eh]
	-----------------------------------------------------------

  Dipole Moment: [D]
     X:    -2.7311      Y:    -1.1558      Z:    -0.7946     Total:     3.0702

*** Psi4 exiting successfully. Buy a developer a beer!
