                               Psi4 1.3.2 release

  ==> Input File <==

--------------------------------------------------------------------------
#psi4
#
memory 32 gb

molecule  {
0 1
  N       -1.7893040    -0.1617730    -0.0001110
  N       -0.2713240    -1.8496560    -0.0082220
  N       -0.2672930     1.7497910     0.0010540
  N        2.0532340     1.0361840    -0.0078740
  N        2.7268170    -1.1967150     0.0786200
  C       -0.5487760     0.4359060     0.0048010
  C        0.3666280    -0.6257540     0.0082110
  C       -1.3633541    -1.5660202    -0.0065953
  C        1.7257650    -0.2653140     0.0014880
  C       -3.0654680     0.5328540     0.0028660
  C        1.0578830     1.9506280    -0.0091420
  H       -2.3786350    -2.2235800    -0.0126570
  H       -3.1454970     1.1693440    -0.8801020
  H       -3.8626160    -0.2117770    -0.0066990
  H       -3.1511970     1.1523310     0.8973960
  H        1.3824760     2.9891980    -0.0128990
  H        3.6364610    -0.8630510    -0.2195510
  H        2.4794860    -2.1327440    -0.2212610
units angstrom
no_reorient  #important for SAPT in psi4, default
symmetry c1  #important for SAPT in psi4, default
}

set PROPERTIES_ORIGIN ["COM"]
properties('MP2/aug-cc-pvtz', properties = ['dipole'])
--------------------------------------------------------------------------

    Molecular point group: c1
  Charge       = 0
  Multiplicity = 1
  Basis Set: AUG-CC-PVTZ
    Blend: AUG-CC-PVTZ
  Basis Set: (AUG-CC-PVTZ AUX)
    Blend: AUG-CC-PVTZ-JKFIT

    Orbital Energies [Eh]
    ---------------------

    Doubly Occupied:

       1A    -15.611468     2A    -15.582328     3A    -15.562050
       4A    -15.558078     5A    -15.550574     6A    -11.335561
       7A    -11.316941     8A    -11.316655     9A    -11.314796
      10A    -11.282803    11A    -11.254131    12A     -1.394733
      13A     -1.302065    14A     -1.259160    15A     -1.216582
      16A     -1.149936    17A     -1.043496    18A     -0.974645
      19A     -0.889304    20A     -0.858455    21A     -0.794108
      22A     -0.755719    23A     -0.727450    24A     -0.685577
      25A     -0.669289    26A     -0.665181    27A     -0.628668
      28A     -0.600505    29A     -0.598179    30A     -0.581997
      31A     -0.569531    32A     -0.553610    33A     -0.503221
      34A     -0.484932    35A     -0.448111    36A     -0.428111
      37A     -0.409174    38A     -0.360535    39A     -0.326283

  @DF-RHF Final Energy:  -503.66897309668605

   => Energetics <=

    Nuclear Repulsion Energy =            597.0092815382722620
    One-Electron Energy =               -1868.2286278491799294
    Two-Electron Energy =                 767.5503732142216222
    Total Energy =                       -503.6689730966860452
  Basis Set: (AUG-CC-PVTZ AUX)
    Blend: AUG-CC-PVTZ-RI
    Molecular point group: c1

    Geometry (in Angstrom), charge = 0, multiplicity = 1:

       Center              X                  Y                   Z               Mass
    ------------   -----------------  -----------------  -----------------  -----------------
         N           -1.838479079452    -0.158517577289    -0.003122589334    14.003074004430
         N           -0.320499079452    -1.846400577289    -0.011233589334    14.003074004430
         N           -0.316468079452     1.753046422711    -0.001957589334    14.003074004430
         N            2.004058920548     1.039439422711    -0.010885589334    14.003074004430
         N            2.677641920548    -1.193459577289     0.075608410666    14.003074004430
         C           -0.597951079452     0.439161422711     0.001789410666    12.000000000000
         C            0.317452920548    -0.622498577289     0.005199410666    12.000000000000
         C           -1.412529179452    -1.562764777289    -0.009606889334    12.000000000000
         C            1.676589920548    -0.262058577289    -0.001523589334    12.000000000000
         C           -3.114643079452     0.536109422711    -0.000145589334    12.000000000000
         C            1.008707920548     1.953883422711    -0.012153589334    12.000000000000
         H           -2.427810079452    -2.220324577289    -0.015668589334     1.007825032230
         H           -3.194672079452     1.172599422711    -0.883113589334     1.007825032230
         H           -3.911791079452    -0.208521577289    -0.009710589334     1.007825032230
         H           -3.200372079452     1.155586422711     0.894384410666     1.007825032230
         H            1.333300920548     2.992453422711    -0.015910589334     1.007825032230
         H            3.587285920548    -0.859795577289    -0.222562589334     1.007825032230
         H            2.430310920548    -2.129488577289    -0.224272589334     1.007825032230

  Basis Set: AUG-CC-PVTZ
    Blend: AUG-CC-PVTZ
  Basis Set: (AUG-CC-PVTZ AUX)
    Blend: AUG-CC-PVTZ-JKFIT
	 Reference Energy          =    -503.6689730966860452 [Eh]
	 Singles Energy            =      -0.0000000000000000 [Eh]
	 Same-Spin Energy          =      -0.5450117091511377 [Eh]
	 Opposite-Spin Energy      =      -1.6263631787034059 [Eh]
	 Correlation Energy        =      -2.1713748878545438 [Eh]
	 Total Energy              =    -505.8403479845405855 [Eh]

	 ================> DF-SCS-MP2 Energies <==================
	-----------------------------------------------------------
	 SCS Same-Spin Scale       =       0.3333333333333333 [-]
	 SCS Opposite-Spin Scale   =       1.2000000000000000 [-]
	 SCS Same-Spin Energy      =      -0.1816705697170459 [Eh]
	 SCS Opposite-Spin Energy  =      -1.9516358144440868 [Eh]
	 SCS Correlation Energy    =      -2.1333063841611328 [Eh]
	 SCS Total Energy          =    -505.8022794808471758 [Eh]
	-----------------------------------------------------------

  Dipole Moment: [D]
     X:    -2.1682      Y:    -1.6130      Z:    -0.7944     Total:     2.8167

*** Psi4 exiting successfully. Buy a developer a beer!
