                               Psi4 1.3.2 release

  ==> Input File <==

--------------------------------------------------------------------------
#psi4
#
memory 32 gb

molecule  {
0 1
  N       -1.8128989    -0.1660347    -0.0001228
  N       -0.2773475    -1.8720419    -0.0083213
  N       -0.2672930     1.7497910     0.0010540
  N        2.0532340     1.0361840    -0.0078740
  N        2.7268170    -1.1967150     0.0786200
  C       -0.5487760     0.4359060     0.0048010
  C        0.3666280    -0.6257540     0.0082110
  C       -1.5569310    -1.5157420    -0.0063070
  C        1.7257650    -0.2653140     0.0014880
  C       -3.0654680     0.5328540     0.0028660
  C        1.0578830     1.9506280    -0.0091420
  H       -2.3786350    -2.2235800    -0.0126570
  H       -3.1454970     1.1693440    -0.8801020
  H       -3.8626160    -0.2117770    -0.0066990
  H       -3.1511970     1.1523310     0.8973960
  H        1.3824760     2.9891980    -0.0128990
  H        3.6364610    -0.8630510    -0.2195510
  H        2.4794860    -2.1327440    -0.2212610
units angstrom
no_reorient  #important for SAPT in psi4, default
symmetry c1  #important for SAPT in psi4, default
}

set PROPERTIES_ORIGIN ["COM"]
properties('MP2/aug-cc-pvtz', properties = ['dipole'])
--------------------------------------------------------------------------

    Molecular point group: c1
  Charge       = 0
  Multiplicity = 1
  Basis Set: AUG-CC-PVTZ
    Blend: AUG-CC-PVTZ
  Basis Set: (AUG-CC-PVTZ AUX)
    Blend: AUG-CC-PVTZ-JKFIT

    Orbital Energies [Eh]
    ---------------------

    Doubly Occupied:

       1A    -15.632938     2A    -15.581402     3A    -15.569675
       4A    -15.562570     5A    -15.553758     6A    -11.335298
       7A    -11.324708     8A    -11.316838     9A    -11.312636
      10A    -11.286994    11A    -11.255017    12A     -1.363068
      13A     -1.296976    14A     -1.242234    15A     -1.196601
      16A     -1.153235    17A     -1.031445    18A     -0.986089
      19A     -0.889034    20A     -0.873059    21A     -0.802405
      22A     -0.753059    23A     -0.722250    24A     -0.682244
      25A     -0.672662    26A     -0.666111    27A     -0.624948
      28A     -0.608130    29A     -0.595865    30A     -0.590758
      31A     -0.567034    32A     -0.535414    33A     -0.496012
      34A     -0.495469    35A     -0.450707    36A     -0.413670
      37A     -0.408969    38A     -0.369987    39A     -0.309841

  @DF-RHF Final Energy:  -503.72252085993910

   => Energetics <=

    Nuclear Repulsion Energy =            593.2729320813683671
    One-Electron Energy =               -1860.9326890714521596
    Two-Electron Energy =                 763.9372361301445835
    Total Energy =                       -503.7225208599390953
  Basis Set: (AUG-CC-PVTZ AUX)
    Blend: AUG-CC-PVTZ-RI
    Molecular point group: c1

    Geometry (in Angstrom), charge = 0, multiplicity = 1:

       Center              X                  Y                   Z               Mass
    ------------   -----------------  -----------------  -----------------  -----------------
         N           -1.843708991328    -0.164323450233    -0.003147160895    14.003074004430
         N           -0.308157591328    -1.870330650233    -0.011345660895    14.003074004430
         N           -0.298103091328     1.751502249767    -0.001970360895    14.003074004430
         N            2.022423908672     1.037895249767    -0.010898360895    14.003074004430
         N            2.696006908672    -1.195003750233     0.075595639105    14.003074004430
         C           -0.579586091328     0.437617249767     0.001776639105    12.000000000000
         C            0.335817908672    -0.624042750233     0.005186639105    12.000000000000
         C           -1.587741091328    -1.514030750233    -0.009331360895    12.000000000000
         C            1.694954908672    -0.263602750233    -0.001536360895    12.000000000000
         C           -3.096278091328     0.534565249767    -0.000158360895    12.000000000000
         C            1.027072908672     1.952339249767    -0.012166360895    12.000000000000
         H           -2.409445091328    -2.221868750233    -0.015681360895     1.007825032230
         H           -3.176307091328     1.171055249767    -0.883126360895     1.007825032230
         H           -3.893426091328    -0.210065750233    -0.009723360895     1.007825032230
         H           -3.182007091328     1.154042249767     0.894371639105     1.007825032230
         H            1.351665908672     2.990909249767    -0.015923360895     1.007825032230
         H            3.605650908672    -0.861339750233    -0.222575360895     1.007825032230
         H            2.448675908672    -2.131032750233    -0.224285360895     1.007825032230

  Basis Set: AUG-CC-PVTZ
    Blend: AUG-CC-PVTZ
  Basis Set: (AUG-CC-PVTZ AUX)
    Blend: AUG-CC-PVTZ-JKFIT
	 Reference Energy          =    -503.7225208599390953 [Eh]
	 Singles Energy            =      -0.0000000000000000 [Eh]
	 Same-Spin Energy          =      -0.5491970996137273 [Eh]
	 Opposite-Spin Energy      =      -1.6336744453461536 [Eh]
	 Correlation Energy        =      -2.1828715449598808 [Eh]
	 Total Energy              =    -505.9053924048989757 [Eh]

	 ================> DF-SCS-MP2 Energies <==================
	-----------------------------------------------------------
	 SCS Same-Spin Scale       =       0.3333333333333333 [-]
	 SCS Opposite-Spin Scale   =       1.2000000000000000 [-]
	 SCS Same-Spin Energy      =      -0.1830656998712424 [Eh]
	 SCS Opposite-Spin Energy  =      -1.9604093344153841 [Eh]
	 SCS Correlation Energy    =      -2.1434750342866264 [Eh]
	 SCS Total Energy          =    -505.8659958942257049 [Eh]
	-----------------------------------------------------------

  Dipole Moment: [D]
     X:    -2.6254      Y:    -1.0949      Z:    -0.7894     Total:     2.9521

*** Psi4 exiting successfully. Buy a developer a beer!
