                               Psi4 1.3.2 release

  ==> Input File <==

--------------------------------------------------------------------------
#psi4
#
memory 32 gb

molecule  {
0 1
  N       -1.7893040    -0.1617730    -0.0001110
  N       -0.2713240    -1.8496560    -0.0082220
  N       -0.2654893     1.7382345     0.0011392
  N        2.0452165     1.0275334    -0.0077500
  N        2.7268170    -1.1967150     0.0786200
  C       -0.5487760     0.4359060     0.0048010
  C        0.3666280    -0.6257540     0.0082110
  C       -1.5569310    -1.5157420    -0.0063070
  C        1.7257650    -0.2653140     0.0014880
  C       -3.0654680     0.5328540     0.0028660
  C        1.0578830     1.9506280    -0.0091420
  H       -2.3786350    -2.2235800    -0.0126570
  H       -3.1454970     1.1693440    -0.8801020
  H       -3.8626160    -0.2117770    -0.0066990
  H       -3.1511970     1.1523310     0.8973960
  H        1.3824760     2.9891980    -0.0128990
  H        3.6364610    -0.8630510    -0.2195510
  H        2.4794860    -2.1327440    -0.2212610
units angstrom
no_reorient  #important for SAPT in psi4, default
symmetry c1  #important for SAPT in psi4, default
}

set PROPERTIES_ORIGIN ["COM"]
properties('MP2/aug-cc-pvtz', properties = ['dipole'])
--------------------------------------------------------------------------

    Molecular point group: c1
  Charge       = 0
  Multiplicity = 1
  Basis Set: AUG-CC-PVTZ
    Blend: AUG-CC-PVTZ
  Basis Set: (AUG-CC-PVTZ AUX)
    Blend: AUG-CC-PVTZ-JKFIT

    Orbital Energies [Eh]
    ---------------------

    Doubly Occupied:

       1A    -15.632325     2A    -15.579690     3A    -15.566667
       4A    -15.559801     5A    -15.551213     6A    -11.332463
       7A    -11.322158     8A    -11.312297     9A    -11.311436
      10A    -11.288451    11A    -11.251101    12A     -1.367896
      13A     -1.298176    14A     -1.243204    15A     -1.196316
      16A     -1.153482    17A     -1.030929    18A     -0.985577
      19A     -0.890927    20A     -0.873912    21A     -0.802693
      22A     -0.754117    23A     -0.723986    24A     -0.680535
      25A     -0.674222    26A     -0.666391    27A     -0.625297
      28A     -0.606274    29A     -0.597576    30A     -0.592285
      31A     -0.572054    32A     -0.536983    33A     -0.496015
      34A     -0.492938    35A     -0.450033    36A     -0.413742
      37A     -0.406850    38A     -0.368954    39A     -0.306784

  @DF-RHF Final Energy:  -503.72554529441732

   => Energetics <=

    Nuclear Repulsion Energy =            594.9728007292229677
    One-Electron Energy =               -1864.3651880230677307
    Two-Electron Energy =                 765.6668419994275609
    Total Energy =                       -503.7255452944173157
  Basis Set: (AUG-CC-PVTZ AUX)
    Blend: AUG-CC-PVTZ-RI
    Molecular point group: c1

    Geometry (in Angstrom), charge = 0, multiplicity = 1:

       Center              X                  Y                   Z               Mass
    ------------   -----------------  -----------------  -----------------  -----------------
         N           -1.822312629105    -0.160666745942    -0.003165448641    14.003074004430
         N           -0.304332629105    -1.848549745942    -0.011276448641    14.003074004430
         N           -0.298497929105     1.739340754058    -0.001915248641    14.003074004430
         N            2.012207870895     1.028639654058    -0.010804448641    14.003074004430
         N            2.693808370895    -1.195608745942     0.075565551359    14.003074004430
         C           -0.581784629105     0.437012254058     0.001746551359    12.000000000000
         C            0.333619370895    -0.624647745942     0.005156551359    12.000000000000
         C           -1.589939629105    -1.514635745942    -0.009361448641    12.000000000000
         C            1.692756370895    -0.264207745942    -0.001566448641    12.000000000000
         C           -3.098476629105     0.533960254058    -0.000188448641    12.000000000000
         C            1.024874370895     1.951734254058    -0.012196448641    12.000000000000
         H           -2.411643629105    -2.222473745942    -0.015711448641     1.007825032230
         H           -3.178505629105     1.170450254058    -0.883156448641     1.007825032230
         H           -3.895624629105    -0.210670745942    -0.009753448641     1.007825032230
         H           -3.184205629105     1.153437254058     0.894341551359     1.007825032230
         H            1.349467370895     2.990304254058    -0.015953448641     1.007825032230
         H            3.603452370895    -0.861944745942    -0.222605448641     1.007825032230
         H            2.446477370895    -2.131637745942    -0.224315448641     1.007825032230

  Basis Set: AUG-CC-PVTZ
    Blend: AUG-CC-PVTZ
  Basis Set: (AUG-CC-PVTZ AUX)
    Blend: AUG-CC-PVTZ-JKFIT
	 Reference Energy          =    -503.7255452944173157 [Eh]
	 Singles Energy            =      -0.0000000000000000 [Eh]
	 Same-Spin Energy          =      -0.5493007635779952 [Eh]
	 Opposite-Spin Energy      =      -1.6327328628895039 [Eh]
	 Correlation Energy        =      -2.1820336264674989 [Eh]
	 Total Energy              =    -505.9075789208848164 [Eh]

	 ================> DF-SCS-MP2 Energies <==================
	-----------------------------------------------------------
	 SCS Same-Spin Scale       =       0.3333333333333333 [-]
	 SCS Opposite-Spin Scale   =       1.2000000000000000 [-]
	 SCS Same-Spin Energy      =      -0.1831002545259984 [Eh]
	 SCS Opposite-Spin Energy  =      -1.9592794354674046 [Eh]
	 SCS Correlation Energy    =      -2.1423796899934029 [Eh]
	 SCS Total Energy          =    -505.8679249844107062 [Eh]
	-----------------------------------------------------------

  Dipole Moment: [D]
     X:    -2.7324      Y:    -1.0832      Z:    -0.7909     Total:     3.0438

*** Psi4 exiting successfully. Buy a developer a beer!
