                               Psi4 1.3.2 release

  ==> Input File <==

--------------------------------------------------------------------------
#psi4
#
memory 32 gb

molecule  {
0 1
  N       -1.7893040    -0.1617730    -0.0001110
  N       -0.2713240    -1.8496560    -0.0082220
  N       -0.2672930     1.7497910     0.0010540
  N        2.0532340     1.0361840    -0.0078740
  N        2.7268170    -1.1967150     0.0786200
  C       -0.5487760     0.4359060     0.0048010
  C        0.3666280    -0.6257540     0.0082110
  C       -1.5569310    -1.5157420    -0.0063070
  C        1.7257650    -0.2653140     0.0014880
  C       -3.0654680     0.5328540     0.0028660
  C        1.2051634     1.8153193    -0.0089544
  H       -2.3786350    -2.2235800    -0.0126570
  H       -3.1454970     1.1693440    -0.8801020
  H       -3.8626160    -0.2117770    -0.0066990
  H       -3.1511970     1.1523310     0.8973960
  H        1.3824760     2.9891980    -0.0128990
  H        3.6364610    -0.8630510    -0.2195510
  H        2.4794860    -2.1327440    -0.2212610
units angstrom
no_reorient  #important for SAPT in psi4, default
symmetry c1  #important for SAPT in psi4, default
}

set PROPERTIES_ORIGIN ["COM"]
properties('MP2/aug-cc-pvtz', properties = ['dipole'])
--------------------------------------------------------------------------

    Molecular point group: c1
  Charge       = 0
  Multiplicity = 1
  Basis Set: AUG-CC-PVTZ
    Blend: AUG-CC-PVTZ
  Basis Set: (AUG-CC-PVTZ AUX)
    Blend: AUG-CC-PVTZ-JKFIT

    Orbital Energies [Eh]
    ---------------------

    Doubly Occupied:

       1A    -15.626329     2A    -15.589072     3A    -15.565633
       4A    -15.553824     5A    -15.552123     6A    -11.344024
       7A    -11.325890     8A    -11.312053     9A    -11.302945
      10A    -11.285835    11A    -11.250148    12A     -1.371557
      13A     -1.340575    14A     -1.237768    15A     -1.199524
      16A     -1.167963    17A     -1.025355    18A     -0.985270
      19A     -0.913222    20A     -0.861183    21A     -0.797900
      22A     -0.755016    23A     -0.720690    24A     -0.680398
      25A     -0.678638    26A     -0.664880    27A     -0.627202
      28A     -0.613156    29A     -0.606939    30A     -0.579252
      31A     -0.569056    32A     -0.549116    33A     -0.494459
      34A     -0.488976    35A     -0.442321    36A     -0.423676
      37A     -0.401507    38A     -0.386828    39A     -0.294532

  @DF-RHF Final Energy:  -503.66627693331691

   => Energetics <=

    Nuclear Repulsion Energy =            596.5612540021405721
    One-Electron Energy =               -1867.2853897614738798
    Two-Electron Energy =                 767.0578588260165134
    Total Energy =                       -503.6662769333169081
  Basis Set: (AUG-CC-PVTZ AUX)
    Blend: AUG-CC-PVTZ-RI
    Molecular point group: c1

    Geometry (in Angstrom), charge = 0, multiplicity = 1:

       Center              X                  Y                   Z               Mass
    ------------   -----------------  -----------------  -----------------  -----------------
         N           -1.834752256760    -0.151672705713    -0.003160898816    14.003074004430
         N           -0.316772256760    -1.839555705713    -0.011271898816    14.003074004430
         N           -0.312741256760     1.759891294287    -0.001995898816    14.003074004430
         N            2.007785743240     1.046284294287    -0.010923898816    14.003074004430
         N            2.681368743240    -1.186614705713     0.075570101184    14.003074004430
         C           -0.594224256760     0.446006294287     0.001751101184    12.000000000000
         C            0.321179743240    -0.615653705713     0.005161101184    12.000000000000
         C           -1.602379256760    -1.505641705713    -0.009356898816    12.000000000000
         C            1.680316743240    -0.255213705713    -0.001561898816    12.000000000000
         C           -3.110916256760     0.542954294287    -0.000183898816    12.000000000000
         C            1.159715143240     1.825419594287    -0.012004298816    12.000000000000
         H           -2.424083256760    -2.213479705713    -0.015706898816     1.007825032230
         H           -3.190945256760     1.179444294287    -0.883151898816     1.007825032230
         H           -3.908064256760    -0.201676705713    -0.009748898816     1.007825032230
         H           -3.196645256760     1.162431294287     0.894346101184     1.007825032230
         H            1.337027743240     2.999298294287    -0.015948898816     1.007825032230
         H            3.591012743240    -0.852950705713    -0.222600898816     1.007825032230
         H            2.434037743240    -2.122643705713    -0.224310898816     1.007825032230

  Basis Set: AUG-CC-PVTZ
    Blend: AUG-CC-PVTZ
  Basis Set: (AUG-CC-PVTZ AUX)
    Blend: AUG-CC-PVTZ-JKFIT
	 Reference Energy          =    -503.6662769333169081 [Eh]
	 Singles Energy            =      -0.0000000000000000 [Eh]
	 Same-Spin Energy          =      -0.5484978633828062 [Eh]
	 Opposite-Spin Energy      =      -1.6335955643542417 [Eh]
	 Correlation Energy        =      -2.1820934277370476 [Eh]
	 Total Energy              =    -505.8483703610539806 [Eh]

	 ================> DF-SCS-MP2 Energies <==================
	-----------------------------------------------------------
	 SCS Same-Spin Scale       =       0.3333333333333333 [-]
	 SCS Opposite-Spin Scale   =       1.2000000000000000 [-]
	 SCS Same-Spin Energy      =      -0.1828326211276020 [Eh]
	 SCS Opposite-Spin Energy  =      -1.9603146772250899 [Eh]
	 SCS Correlation Energy    =      -2.1431472983526918 [Eh]
	 SCS Total Energy          =    -505.8094242316695954 [Eh]
	-----------------------------------------------------------

  Dipole Moment: [D]
     X:    -2.0501      Y:    -1.6078      Z:    -0.7870     Total:     2.7217

*** Psi4 exiting successfully. Buy a developer a beer!
