                               Psi4 1.3.2 release

  ==> Input File <==

--------------------------------------------------------------------------
#psi4
#
memory 32 gb

molecule  {
0 1
  N       -1.8188838    -0.0960292    -0.0002167
  N       -0.2713240    -1.8496560    -0.0082220
  N       -0.2672930     1.7497910     0.0010540
  N        2.0532340     1.0361840    -0.0078740
  N        2.7268170    -1.1967150     0.0786200
  C       -0.5487760     0.4359060     0.0048010
  C        0.4209360    -0.5763902     0.0084294
  C       -1.5569310    -1.5157420    -0.0063070
  C        1.7257650    -0.2653140     0.0014880
  C       -3.0654680     0.5328540     0.0028660
  C        1.0578830     1.9506280    -0.0091420
  H       -2.3786350    -2.2235800    -0.0126570
  H       -3.1454970     1.1693440    -0.8801020
  H       -3.8626160    -0.2117770    -0.0066990
  H       -3.1511970     1.1523310     0.8973960
  H        1.3824760     2.9891980    -0.0128990
  H        3.6364610    -0.8630510    -0.2195510
  H        2.4794860    -2.1327440    -0.2212610
units angstrom
no_reorient  #important for SAPT in psi4, default
symmetry c1  #important for SAPT in psi4, default
}

set PROPERTIES_ORIGIN ["COM"]
properties('MP2/aug-cc-pvtz', properties = ['dipole'])
--------------------------------------------------------------------------

    Molecular point group: c1
  Charge       = 0
  Multiplicity = 1
  Basis Set: AUG-CC-PVTZ
    Blend: AUG-CC-PVTZ
  Basis Set: (AUG-CC-PVTZ AUX)
    Blend: AUG-CC-PVTZ-JKFIT

    Orbital Energies [Eh]
    ---------------------

    Doubly Occupied:

       1A    -15.630637     2A    -15.579490     3A    -15.578786
       4A    -15.559831     5A    -15.551537     6A    -11.332579
       7A    -11.327306     8A    -11.323253     9A    -11.312070
      10A    -11.282853    11A    -11.251836    12A     -1.357086
      13A     -1.296924    14A     -1.241603    15A     -1.196408
      16A     -1.152480    17A     -1.039041    18A     -0.986828
      19A     -0.885702    20A     -0.874064    21A     -0.806641
      22A     -0.754561    23A     -0.720896    24A     -0.678710
      25A     -0.672268    26A     -0.667794    27A     -0.629841
      28A     -0.614098    29A     -0.598436    30A     -0.594220
      31A     -0.570822    32A     -0.528369    33A     -0.495051
      34A     -0.492371    35A     -0.442453    36A     -0.414970
      37A     -0.409902    38A     -0.362191    39A     -0.321069

  @DF-RHF Final Energy:  -503.70980266951460

   => Energetics <=

    Nuclear Repulsion Energy =            593.8598609840174731
    One-Electron Energy =               -1862.0693723390013474
    Two-Electron Energy =                 764.4997086854693862
    Total Energy =                       -503.7098026695146018
  Basis Set: (AUG-CC-PVTZ AUX)
    Blend: AUG-CC-PVTZ-RI
    Molecular point group: c1

    Geometry (in Angstrom), charge = 0, multiplicity = 1:

       Center              X                  Y                   Z               Mass
    ------------   -----------------  -----------------  -----------------  -----------------
         N           -1.854069257821    -0.106970579024    -0.003259149135    14.003074004430
         N           -0.306509457821    -1.860597379024    -0.011264449135    14.003074004430
         N           -0.302478457821     1.738849620976    -0.001988449135    14.003074004430
         N            2.018048542179     1.025242620976    -0.010916449135    14.003074004430
         N            2.691631542179    -1.207656379024     0.075577550865    14.003074004430
         C           -0.583961457821     0.424964620976     0.001758550865    12.000000000000
         C            0.385750542179    -0.587331579024     0.005386950865    12.000000000000
         C           -1.592116457821    -1.526683379024    -0.009349449135    12.000000000000
         C            1.690579542179    -0.276255379024    -0.001554449135    12.000000000000
         C           -3.100653457821     0.521912620976    -0.000176449135    12.000000000000
         C            1.022697542179     1.939686620976    -0.012184449135    12.000000000000
         H           -2.413820457821    -2.234521379024    -0.015699449135     1.007825032230
         H           -3.180682457821     1.158402620976    -0.883144449135     1.007825032230
         H           -3.897801457821    -0.222718379024    -0.009741449135     1.007825032230
         H           -3.186382457821     1.141389620976     0.894353550865     1.007825032230
         H            1.347290542179     2.978256620976    -0.015941449135     1.007825032230
         H            3.601275542179    -0.873992379024    -0.222593449135     1.007825032230
         H            2.444300542179    -2.143685379024    -0.224303449135     1.007825032230

  Basis Set: AUG-CC-PVTZ
    Blend: AUG-CC-PVTZ
  Basis Set: (AUG-CC-PVTZ AUX)
    Blend: AUG-CC-PVTZ-JKFIT
	 Reference Energy          =    -503.7098026695146018 [Eh]
	 Singles Energy            =      -0.0000000000000000 [Eh]
	 Same-Spin Energy          =      -0.5486931061229663 [Eh]
	 Opposite-Spin Energy      =      -1.6342663376435329 [Eh]
	 Correlation Energy        =      -2.1829594437664994 [Eh]
	 Total Energy              =    -505.8927621132810941 [Eh]

	 ================> DF-SCS-MP2 Energies <==================
	-----------------------------------------------------------
	 SCS Same-Spin Scale       =       0.3333333333333333 [-]
	 SCS Opposite-Spin Scale   =       1.2000000000000000 [-]
	 SCS Same-Spin Energy      =      -0.1828977020409888 [Eh]
	 SCS Opposite-Spin Energy  =      -1.9611196051722395 [Eh]
	 SCS Correlation Energy    =      -2.1440173072132280 [Eh]
	 SCS Total Energy          =    -505.8538199767278343 [Eh]
	-----------------------------------------------------------

  Dipole Moment: [D]
     X:    -2.6300      Y:    -1.2514      Z:    -0.7952     Total:     3.0191

*** Psi4 exiting successfully. Buy a developer a beer!
