                               Psi4 1.4a3.dev225

  ==> Input File <==

--------------------------------------------------------------------------
#psi4
#
memory 32 gb

molecule  {
0 1
  N       -1.7889380    -0.1640290    -0.0179520
  N       -0.2703210    -1.8482040    -0.0023970
  N       -0.2671710     1.7490810    -0.0033560
  N        2.0541740     1.0368940    -0.0085470
  N        2.7206340    -1.1973270     0.0732090
  C       -0.5486140     0.4351420     0.0045870
  C        0.3650590    -0.6247560     0.0169900
  C       -1.5569260    -1.5161270    -0.0162740
  C        1.7266360    -0.2641570     0.0048060
  C       -3.0641060     0.5324820     0.0177850
  C        1.0564750     1.9508360    -0.0110870
  H       -2.3610903    -2.2128565    -0.0338929
  H       -2.9284720     1.5041700    -0.4579320
  H       -3.8067760    -0.0485880    -0.5312030
  H       -3.3972360     0.6796990     1.0480130
  H        1.3812150     2.9891510    -0.0228070
  H        3.6427950    -0.8729100    -0.1905990
  H        2.4748820    -2.1409930    -0.1987870
units angstrom
no_reorient  #important for SAPT in psi4, default
symmetry c1  #important for SAPT in psi4, default
}

set PROPERTIES_ORIGIN ["COM"]
properties('MP2/aug-cc-pvtz', properties = ['dipole'])
--------------------------------------------------------------------------

    Molecular point group: c1
  Charge       = 0
  Multiplicity = 1
  Basis Set: AUG-CC-PVTZ
    Blend: AUG-CC-PVTZ
  Basis Set: (AUG-CC-PVTZ AUX)
    Blend: AUG-CC-PVTZ-JKFIT

    Orbital Energies [Eh]
    ---------------------

    Doubly Occupied:

       1A    -15.631936     2A    -15.581387     3A    -15.567211
       4A    -15.559830     5A    -15.551547     6A    -11.334786
       7A    -11.318683     8A    -11.312423     9A    -11.311400
      10A    -11.287062    11A    -11.250650    12A     -1.367570
      13A     -1.296061    14A     -1.242760    15A     -1.196453
      16A     -1.151749    17A     -1.031196    18A     -0.985321
      19A     -0.891936    20A     -0.871938    21A     -0.803827
      22A     -0.754401    23A     -0.725222    24A     -0.682271
      25A     -0.673974    26A     -0.666166    27A     -0.625962
      28A     -0.606441    29A     -0.595350    30A     -0.592985
      31A     -0.571426    32A     -0.536716    33A     -0.495526
      34A     -0.491182    35A     -0.450386    36A     -0.414055
      37A     -0.408032    38A     -0.367494    39A     -0.306819

  @DF-RHF Final Energy:  -503.72516094447792

   => Energetics <=

    Nuclear Repulsion Energy =            594.7188823696795907
    One-Electron Energy =               -1863.8678218683010073
    Two-Electron Energy =                 765.4237785541436097
    Total Energy =                       -503.7251609444779206
  Basis Set: (AUG-CC-PVTZ AUX)
    Blend: AUG-CC-PVTZ-RI
    Molecular point group: c1

    Geometry (in Angstrom), charge = 0, multiplicity = 1:

       Center              X                  Y                   Z               Mass
    ------------   -----------------  -----------------  -----------------  -----------------
         N           -1.822434582877    -0.164877054999    -0.020534476103    14.003074004430
         N           -0.303817582877    -1.849052054999    -0.004979476103    14.003074004430
         N           -0.300667582877     1.748232945001    -0.005938476103    14.003074004430
         N            2.020677417123     1.036045945001    -0.011129476103    14.003074004430
         N            2.687137417123    -1.198175054999     0.070626523897    14.003074004430
         C           -0.582110582877     0.434293945001     0.002004523897    12.000000000000
         C            0.331562417123    -0.625604054999     0.014407523897    12.000000000000
         C           -1.590422582877    -1.516975054999    -0.018856476103    12.000000000000
         C            1.693139417123    -0.265005054999     0.002223523897    12.000000000000
         C           -3.097602582877     0.531633945001     0.015202523897    12.000000000000
         C            1.022978417123     1.949987945001    -0.013669476103    12.000000000000
         H           -2.394586882877    -2.213704554999    -0.036475376103     1.007825032230
         H           -2.961968582877     1.503321945001    -0.460514476103     1.007825032230
         H           -3.840272582877    -0.049436054999    -0.533785476103     1.007825032230
         H           -3.430732582877     0.678850945001     1.045430523897     1.007825032230
         H            1.347718417123     2.988302945001    -0.025389476103     1.007825032230
         H            3.609298417123    -0.873758054999    -0.193181476103     1.007825032230
         H            2.441385417123    -2.141841054999    -0.201369476103     1.007825032230

  Basis Set: AUG-CC-PVTZ
    Blend: AUG-CC-PVTZ
  Basis Set: (AUG-CC-PVTZ AUX)
    Blend: AUG-CC-PVTZ-JKFIT
	 Reference Energy          =    -503.7251609444779206 [Eh]
	 Singles Energy            =      -0.0000000000000000 [Eh]
	 Same-Spin Energy          =      -0.5492646079052608 [Eh]
	 Opposite-Spin Energy      =      -1.6327591958554615 [Eh]
	 Correlation Energy        =      -2.1820238037607220 [Eh]
	 Total Energy              =    -505.9071847482386488 [Eh]

	 ================> DF-SCS-MP2 Energies <==================
	-----------------------------------------------------------
	 SCS Same-Spin Scale       =       0.3333333333333333 [-]
	 SCS Opposite-Spin Scale   =       1.2000000000000000 [-]
	 SCS Same-Spin Energy      =      -0.1830882026350869 [Eh]
	 SCS Opposite-Spin Energy  =      -1.9593110350265537 [Eh]
	 SCS Correlation Energy    =      -2.1423992376616408 [Eh]
	 SCS Total Energy          =    -505.8675601821395844 [Eh]
	-----------------------------------------------------------

  Dipole Moment: [D]
     X:    -2.6396      Y:    -1.2022      Z:    -0.7129     Total:     2.9868

*** Psi4 exiting successfully. Buy a developer a beer!
