                               Psi4 1.3.2 release

  ==> Input File <==

--------------------------------------------------------------------------
#psi4
#
memory 32 gb

molecule  {
0 1
  N       -1.7893040    -0.1617730    -0.0001110
  N       -0.2713240    -1.8496560    -0.0082220
  N       -0.2672930     1.7497910     0.0010540
  N        2.0532340     1.0361840    -0.0078740
  N        2.7268170    -1.1967150     0.0786200
  C       -0.6171519     0.4524394     0.0052936
  C        0.3666280    -0.6257540     0.0082110
  C       -1.5569310    -1.5157420    -0.0063070
  C        1.7257650    -0.2653140     0.0014880
  C       -3.0654680     0.5328540     0.0028660
  C        1.0455555     2.0197091    -0.0091354
  H       -2.3786350    -2.2235800    -0.0126570
  H       -3.1454970     1.1693440    -0.8801020
  H       -3.8626160    -0.2117770    -0.0066990
  H       -3.1511970     1.1523310     0.8973960
  H        1.3824760     2.9891980    -0.0128990
  H        3.6364610    -0.8630510    -0.2195510
  H        2.4794860    -2.1327440    -0.2212610
units angstrom
no_reorient  #important for SAPT in psi4, default
symmetry c1  #important for SAPT in psi4, default
}

set PROPERTIES_ORIGIN ["COM"]
properties('MP2/aug-cc-pvtz', properties = ['dipole'])
--------------------------------------------------------------------------

    Molecular point group: c1
  Charge       = 0
  Multiplicity = 1
  Basis Set: AUG-CC-PVTZ
    Blend: AUG-CC-PVTZ
  Basis Set: (AUG-CC-PVTZ AUX)
    Blend: AUG-CC-PVTZ-JKFIT

    Orbital Energies [Eh]
    ---------------------

    Doubly Occupied:

       1A    -15.640017     2A    -15.575887     3A    -15.572021
       4A    -15.561248     5A    -15.550041     6A    -11.329068
       7A    -11.321330     8A    -11.316131     9A    -11.314546
      10A    -11.291914    11A    -11.254073    12A     -1.377474
      13A     -1.284289    14A     -1.238948    15A     -1.201458
      16A     -1.137488    17A     -1.027495    18A     -0.991026
      19A     -0.892460    20A     -0.878942    21A     -0.796184
      22A     -0.749519    23A     -0.734058    24A     -0.680208
      25A     -0.678366    26A     -0.673463    27A     -0.623161
      28A     -0.608548    29A     -0.600033    30A     -0.588906
      31A     -0.580077    32A     -0.535027    33A     -0.493361
      34A     -0.492964    35A     -0.447025    36A     -0.416987
      37A     -0.394003    38A     -0.358141    39A     -0.302696

  @DF-RHF Final Energy:  -503.70794701977024

   => Energetics <=

    Nuclear Repulsion Energy =            592.6023250325075651
    One-Electron Energy =               -1859.6033764508338209
    Two-Electron Energy =                 763.2931043985561246
    Total Energy =                       -503.7079470197702449
  Basis Set: (AUG-CC-PVTZ AUX)
    Blend: AUG-CC-PVTZ-RI
    Molecular point group: c1

    Geometry (in Angstrom), charge = 0, multiplicity = 1:

       Center              X                  Y                   Z               Mass
    ------------   -----------------  -----------------  -----------------  -----------------
         N           -1.816399785207    -0.169456805913    -0.003185982309    14.003074004430
         N           -0.298419785207    -1.857339805913    -0.011296982309    14.003074004430
         N           -0.294388785207     1.742107194087    -0.002020982309    14.003074004430
         N            2.026138214793     1.028500194087    -0.010948982309    14.003074004430
         N            2.699721214793    -1.204398805913     0.075545017691    14.003074004430
         C           -0.644247685207     0.444755594087     0.002218617691    12.000000000000
         C            0.339532214793    -0.633437805913     0.005136017691    12.000000000000
         C           -1.584026785207    -1.523425805913    -0.009381982309    12.000000000000
         C            1.698669214793    -0.272997805913    -0.001586982309    12.000000000000
         C           -3.092563785207     0.525170194087    -0.000208982309    12.000000000000
         C            1.018459714793     2.012025294087    -0.012210382309    12.000000000000
         H           -2.405730785207    -2.231263805913    -0.015731982309     1.007825032230
         H           -3.172592785207     1.161660194087    -0.883176982309     1.007825032230
         H           -3.889711785207    -0.219460805913    -0.009773982309     1.007825032230
         H           -3.178292785207     1.144647194087     0.894321017691     1.007825032230
         H            1.355380214793     2.981514194087    -0.015973982309     1.007825032230
         H            3.609365214793    -0.870734805913    -0.222625982309     1.007825032230
         H            2.452390214793    -2.140427805913    -0.224335982309     1.007825032230

  Basis Set: AUG-CC-PVTZ
    Blend: AUG-CC-PVTZ
  Basis Set: (AUG-CC-PVTZ AUX)
    Blend: AUG-CC-PVTZ-JKFIT
	 Reference Energy          =    -503.7079470197702449 [Eh]
	 Singles Energy            =      -0.0000000000000000 [Eh]
	 Same-Spin Energy          =      -0.5508340374840149 [Eh]
	 Opposite-Spin Energy      =      -1.6355712707438272 [Eh]
	 Correlation Energy        =      -2.1864053082278421 [Eh]
	 Total Energy              =    -505.8943523279980923 [Eh]

	 ================> DF-SCS-MP2 Energies <==================
	-----------------------------------------------------------
	 SCS Same-Spin Scale       =       0.3333333333333333 [-]
	 SCS Opposite-Spin Scale   =       1.2000000000000000 [-]
	 SCS Same-Spin Energy      =      -0.1836113458280050 [Eh]
	 SCS Opposite-Spin Energy  =      -1.9626855248925925 [Eh]
	 SCS Correlation Energy    =      -2.1462968707205974 [Eh]
	 SCS Total Energy          =    -505.8542438904908636 [Eh]
	-----------------------------------------------------------

  Dipole Moment: [D]
     X:    -3.1074      Y:    -1.0554      Z:    -0.7916     Total:     3.3758

*** Psi4 exiting successfully. Buy a developer a beer!
