                               Psi4 1.3.2 release

  ==> Input File <==

--------------------------------------------------------------------------
#psi4
#
memory 32 gb

molecule  {
0 1
  N       -1.7893040    -0.1617730    -0.0001110
  N       -0.2713240    -1.8496560    -0.0082220
  N       -0.2672930     1.7497910     0.0010540
  N        2.0532340     1.0361840    -0.0078740
  N        2.7186247    -1.2054029     0.0791074
  C       -0.5487760     0.4359060     0.0048010
  C        0.3698215    -0.6375712     0.0090637
  C       -1.5569310    -1.5157420    -0.0063070
  C        1.7257650    -0.2653140     0.0014880
  C       -3.0654680     0.5328540     0.0028660
  C        1.0578830     1.9506280    -0.0091420
  H       -2.3786350    -2.2235800    -0.0126570
  H       -3.1454970     1.1693440    -0.8801020
  H       -3.8626160    -0.2117770    -0.0066990
  H       -3.1511970     1.1523310     0.8973960
  H        1.3824760     2.9891980    -0.0128990
  H        3.6364610    -0.8630510    -0.2195510
  H        2.4794860    -2.1327440    -0.2212610
units angstrom
no_reorient  #important for SAPT in psi4, default
symmetry c1  #important for SAPT in psi4, default
}

set PROPERTIES_ORIGIN ["COM"]
properties('MP2/aug-cc-pvtz', properties = ['dipole'])
--------------------------------------------------------------------------

    Molecular point group: c1
  Charge       = 0
  Multiplicity = 1
  Basis Set: AUG-CC-PVTZ
    Blend: AUG-CC-PVTZ
  Basis Set: (AUG-CC-PVTZ AUX)
    Blend: AUG-CC-PVTZ-JKFIT

    Orbital Energies [Eh]
    ---------------------

    Doubly Occupied:

       1A    -15.633700     2A    -15.580434     3A    -15.567216
       4A    -15.560991     5A    -15.552865     6A    -11.334221
       7A    -11.322454     8A    -11.313718     9A    -11.311789
      10A    -11.288914    11A    -11.252330    12A     -1.367892
      13A     -1.295886    14A     -1.242693    15A     -1.198164
      16A     -1.152216    17A     -1.029840    18A     -0.986595
      19A     -0.890944    20A     -0.872402    21A     -0.801583
      22A     -0.753527    23A     -0.724940    24A     -0.679152
      25A     -0.675169    26A     -0.666374    27A     -0.625537
      28A     -0.604470    29A     -0.597061    30A     -0.591198
      31A     -0.571728    32A     -0.536849    33A     -0.495979
      34A     -0.492930    35A     -0.451053    36A     -0.414913
      37A     -0.408134    38A     -0.368482    39A     -0.306002

  @DF-RHF Final Energy:  -503.72395506136536

   => Energetics <=

    Nuclear Repulsion Energy =            594.2670285973599675
    One-Electron Energy =               -1862.9412735885009624
    Two-Electron Energy =                 764.9502899297756358
    Total Energy =                       -503.7239550613653591
  Basis Set: (AUG-CC-PVTZ AUX)
    Blend: AUG-CC-PVTZ-RI
    Molecular point group: c1

    Geometry (in Angstrom), charge = 0, multiplicity = 1:

       Center              X                  Y                   Z               Mass
    ------------   -----------------  -----------------  -----------------  -----------------
         N           -1.822383850060    -0.160797542152    -0.003260223186    14.003074004430
         N           -0.304403850060    -1.848680542152    -0.011371223186    14.003074004430
         N           -0.300372850060     1.750766457848    -0.002095223186    14.003074004430
         N            2.020154149940     1.037159457848    -0.011023223186    14.003074004430
         N            2.685544849940    -1.204427442152     0.075958176814    14.003074004430
         C           -0.581855850060     0.436881457848     0.001651776814    12.000000000000
         C            0.336741649940    -0.636595742152     0.005914476814    12.000000000000
         C           -1.590010850060    -1.514766542152    -0.009456223186    12.000000000000
         C            1.692685149940    -0.264338542152    -0.001661223186    12.000000000000
         C           -3.098547850060     0.533829457848    -0.000283223186    12.000000000000
         C            1.024803149940     1.951603457848    -0.012291223186    12.000000000000
         H           -2.411714850060    -2.222604542152    -0.015806223186     1.007825032230
         H           -3.178576850060     1.170319457848    -0.883251223186     1.007825032230
         H           -3.895695850060    -0.210801542152    -0.009848223186     1.007825032230
         H           -3.184276850060     1.153306457848     0.894246776814     1.007825032230
         H            1.349396149940     2.990173457848    -0.016048223186     1.007825032230
         H            3.603381149940    -0.862075542152    -0.222700223186     1.007825032230
         H            2.446406149940    -2.131768542152    -0.224410223186     1.007825032230

  Basis Set: AUG-CC-PVTZ
    Blend: AUG-CC-PVTZ
  Basis Set: (AUG-CC-PVTZ AUX)
    Blend: AUG-CC-PVTZ-JKFIT
	 Reference Energy          =    -503.7239550613653591 [Eh]
	 Singles Energy            =      -0.0000000000000000 [Eh]
	 Same-Spin Energy          =      -0.5495427514876938 [Eh]
	 Opposite-Spin Energy      =      -1.6333494892216087 [Eh]
	 Correlation Energy        =      -2.1828922407093025 [Eh]
	 Total Energy              =    -505.9068473020746524 [Eh]

	 ================> DF-SCS-MP2 Energies <==================
	-----------------------------------------------------------
	 SCS Same-Spin Scale       =       0.3333333333333333 [-]
	 SCS Opposite-Spin Scale   =       1.2000000000000000 [-]
	 SCS Same-Spin Energy      =      -0.1831809171625646 [Eh]
	 SCS Opposite-Spin Energy  =      -1.9600193870659304 [Eh]
	 SCS Correlation Energy    =      -2.1432003042284951 [Eh]
	 SCS Total Energy          =    -505.8671553655938737 [Eh]
	-----------------------------------------------------------

  Dipole Moment: [D]
     X:    -2.7527      Y:    -1.1521      Z:    -0.7896     Total:     3.0868

*** Psi4 exiting successfully. Buy a developer a beer!
