                               Psi4 1.3.2 release

  ==> Input File <==

--------------------------------------------------------------------------
#psi4
#
memory 32 gb

molecule  {
0 1
  N       -1.7893040    -0.1617730    -0.0001110
  N       -0.2773475    -1.8720413    -0.0084099
  N       -0.2672930     1.7497910     0.0010540
  N        2.0532340     1.0361840    -0.0078740
  N        2.7268170    -1.1967150     0.0786200
  C       -0.5487760     0.4359060     0.0048010
  C        0.3666280    -0.6257540     0.0082110
  C       -1.5569310    -1.5157420    -0.0063070
  C        1.7257650    -0.2653140     0.0014880
  C       -3.0654680     0.5328540     0.0028660
  C        1.0578830     1.9506280    -0.0091420
  H       -2.3661559    -2.2378125    -0.0127660
  H       -3.1454970     1.1693440    -0.8801020
  H       -3.8626160    -0.2117770    -0.0066990
  H       -3.1511970     1.1523310     0.8973960
  H        1.3824760     2.9891980    -0.0128990
  H        3.6364610    -0.8630510    -0.2195510
  H        2.4794860    -2.1327440    -0.2212610
units angstrom
no_reorient  #important for SAPT in psi4, default
symmetry c1  #important for SAPT in psi4, default
}

set PROPERTIES_ORIGIN ["COM"]
properties('MP2/aug-cc-pvtz', properties = ['dipole'])
--------------------------------------------------------------------------

    Molecular point group: c1
  Charge       = 0
  Multiplicity = 1
  Basis Set: AUG-CC-PVTZ
    Blend: AUG-CC-PVTZ
  Basis Set: (AUG-CC-PVTZ AUX)
    Blend: AUG-CC-PVTZ-JKFIT

    Orbital Energies [Eh]
    ---------------------

    Doubly Occupied:

       1A    -15.633388     2A    -15.580897     3A    -15.569582
       4A    -15.561303     5A    -15.552587     6A    -11.334648
       7A    -11.323120     8A    -11.314634     9A    -11.312240
      10A    -11.288947    11A    -11.253188    12A     -1.366189
      13A     -1.296334    14A     -1.241785    15A     -1.194493
      16A     -1.152104    17A     -1.032347    18A     -0.985258
      19A     -0.889598    20A     -0.872870    21A     -0.802282
      22A     -0.753423    23A     -0.723075    24A     -0.681281
      25A     -0.671968    26A     -0.666275    27A     -0.622654
      28A     -0.606176    29A     -0.595367    30A     -0.590434
      31A     -0.571849    32A     -0.536590    33A     -0.495484
      34A     -0.494265    35A     -0.450311    36A     -0.413859
      37A     -0.409159    38A     -0.368195    39A     -0.309878

  @DF-RHF Final Energy:  -503.72397337117411

   => Energetics <=

    Nuclear Repulsion Energy =            593.6758225783192984
    One-Electron Energy =               -1861.7635199772091710
    Two-Electron Energy =                 764.3637240277156479
    Total Energy =                       -503.7239733711741110
  Basis Set: (AUG-CC-PVTZ AUX)
    Blend: AUG-CC-PVTZ-RI
    Molecular point group: c1

    Geometry (in Angstrom), charge = 0, multiplicity = 1:

       Center              X                  Y                   Z               Mass
    ------------   -----------------  -----------------  -----------------  -----------------
         N           -1.822414873148    -0.160365911959    -0.003127409678    14.003074004430
         N           -0.310458373148    -1.870634211959    -0.011426309678    14.003074004430
         N           -0.300403873148     1.751198088041    -0.001962409678    14.003074004430
         N            2.020123126852     1.037591088041    -0.010890409678    14.003074004430
         N            2.693706126852    -1.195307911959     0.075603590322    14.003074004430
         C           -0.581886873148     0.437313088041     0.001784590322    12.000000000000
         C            0.333517126852    -0.624346911959     0.005194590322    12.000000000000
         C           -1.590041873148    -1.514334911959    -0.009323409678    12.000000000000
         C            1.692654126852    -0.263906911959    -0.001528409678    12.000000000000
         C           -3.098578873148     0.534261088041    -0.000150409678    12.000000000000
         C            1.024772126852     1.952035088041    -0.012158409678    12.000000000000
         H           -2.399266773148    -2.236405411959    -0.015782409678     1.007825032230
         H           -3.178607873148     1.170751088041    -0.883118409678     1.007825032230
         H           -3.895726873148    -0.210369911959    -0.009715409678     1.007825032230
         H           -3.184307873148     1.153738088041     0.894379590322     1.007825032230
         H            1.349365126852     2.990605088041    -0.015915409678     1.007825032230
         H            3.603350126852    -0.861643911959    -0.222567409678     1.007825032230
         H            2.446375126852    -2.131336911959    -0.224277409678     1.007825032230

  Basis Set: AUG-CC-PVTZ
    Blend: AUG-CC-PVTZ
  Basis Set: (AUG-CC-PVTZ AUX)
    Blend: AUG-CC-PVTZ-JKFIT
	 Reference Energy          =    -503.7239733711741110 [Eh]
	 Singles Energy            =      -0.0000000000000000 [Eh]
	 Same-Spin Energy          =      -0.5490135905869695 [Eh]
	 Opposite-Spin Energy      =      -1.6332743868597257 [Eh]
	 Correlation Energy        =      -2.1822879774466952 [Eh]
	 Total Energy              =    -505.9062613486208306 [Eh]

	 ================> DF-SCS-MP2 Energies <==================
	-----------------------------------------------------------
	 SCS Same-Spin Scale       =       0.3333333333333333 [-]
	 SCS Opposite-Spin Scale   =       1.2000000000000000 [-]
	 SCS Same-Spin Energy      =      -0.1830045301956565 [Eh]
	 SCS Opposite-Spin Energy  =      -1.9599292642316708 [Eh]
	 SCS Correlation Energy    =      -2.1429337944273272 [Eh]
	 SCS Total Energy          =    -505.8669071656014466 [Eh]
	-----------------------------------------------------------

  Dipole Moment: [D]
     X:    -2.7093      Y:    -1.1174      Z:    -0.7891     Total:     3.0350

*** Psi4 exiting successfully. Buy a developer a beer!
