                               Psi4 1.3.2 release

  ==> Input File <==

--------------------------------------------------------------------------
#psi4
#
memory 32 gb

molecule  {
0 1
  N       -1.7893040    -0.1617730    -0.0001110
  N       -0.2713240    -1.8496560    -0.0082220
  N       -0.2672930     1.7497910     0.0010540
  N        1.9846687     1.0515399    -0.0077486
  N        2.7268170    -1.1967150     0.0786200
  C       -0.5487760     0.4359060     0.0048010
  C        0.3496249    -0.5541290     0.0078098
  C       -1.5569310    -1.5157420    -0.0063070
  C        1.7257650    -0.2653140     0.0014880
  C       -3.0654680     0.5328540     0.0028660
  C        1.0578830     1.9506280    -0.0091420
  H       -2.3786350    -2.2235800    -0.0126570
  H       -3.1454970     1.1693440    -0.8801020
  H       -3.8626160    -0.2117770    -0.0066990
  H       -3.1511970     1.1523310     0.8973960
  H        1.3824760     2.9891980    -0.0128990
  H        3.6364610    -0.8630510    -0.2195510
  H        2.4794860    -2.1327440    -0.2212610
units angstrom
no_reorient  #important for SAPT in psi4, default
symmetry c1  #important for SAPT in psi4, default
}

set PROPERTIES_ORIGIN ["COM"]
properties('MP2/aug-cc-pvtz', properties = ['dipole'])
--------------------------------------------------------------------------

    Molecular point group: c1
  Charge       = 0
  Multiplicity = 1
  Basis Set: AUG-CC-PVTZ
    Blend: AUG-CC-PVTZ
  Basis Set: (AUG-CC-PVTZ AUX)
    Blend: AUG-CC-PVTZ-JKFIT

    Orbital Energies [Eh]
    ---------------------

    Doubly Occupied:

       1A    -15.626786     2A    -15.589460     3A    -15.565416
       4A    -15.552714     5A    -15.544486     6A    -11.340044
       7A    -11.322041     8A    -11.304937     9A    -11.302098
      10A    -11.285824    11A    -11.246257    12A     -1.366527
      13A     -1.305086    14A     -1.241497    15A     -1.187423
      16A     -1.157367    17A     -1.041599    18A     -0.981468
      19A     -0.898051    20A     -0.865569    21A     -0.810290
      22A     -0.757207    23A     -0.720692    24A     -0.681272
      25A     -0.676150    26A     -0.665330    27A     -0.627403
      28A     -0.614633    29A     -0.596933    30A     -0.590571
      31A     -0.571667    32A     -0.537908    33A     -0.496132
      34A     -0.488132    35A     -0.439784    36A     -0.409534
      37A     -0.404009    38A     -0.370567    39A     -0.315653

  @DF-RHF Final Energy:  -503.71833255110062

   => Energetics <=

    Nuclear Repulsion Energy =            596.5366909598941447
    One-Electron Energy =               -1867.5130152782362529
    Two-Electron Energy =                 767.2579917672413785
    Total Energy =                       -503.7183325511006160
  Basis Set: (AUG-CC-PVTZ AUX)
    Blend: AUG-CC-PVTZ-RI
    Molecular point group: c1

    Geometry (in Angstrom), charge = 0, multiplicity = 1:

       Center              X                  Y                   Z               Mass
    ------------   -----------------  -----------------  -----------------  -----------------
         N           -1.815086837066    -0.169773138899    -0.003125280587    14.003074004430
         N           -0.297106837066    -1.857656138899    -0.011236280587    14.003074004430
         N           -0.293075837066     1.741790861101    -0.001960280587    14.003074004430
         N            1.958885862934     1.043539761101    -0.010762880587    14.003074004430
         N            2.701034162934    -1.204715138899     0.075605719413    14.003074004430
         C           -0.574558837066     0.427905861101     0.001786719413    12.000000000000
         C            0.323842062934    -0.562129138899     0.004795519413    12.000000000000
         C           -1.582713837066    -1.523742138899    -0.009321280587    12.000000000000
         C            1.699982162934    -0.273314138899    -0.001526280587    12.000000000000
         C           -3.091250837066     0.524853861101    -0.000148280587    12.000000000000
         C            1.032100162934     1.942627861101    -0.012156280587    12.000000000000
         H           -2.404417837066    -2.231580138899    -0.015671280587     1.007825032230
         H           -3.171279837066     1.161343861101    -0.883116280587     1.007825032230
         H           -3.888398837066    -0.219777138899    -0.009713280587     1.007825032230
         H           -3.176979837066     1.144330861101     0.894381719413     1.007825032230
         H            1.356693162934     2.981197861101    -0.015913280587     1.007825032230
         H            3.610678162934    -0.871051138899    -0.222565280587     1.007825032230
         H            2.453703162934    -2.140744138899    -0.224275280587     1.007825032230

  Basis Set: AUG-CC-PVTZ
    Blend: AUG-CC-PVTZ
  Basis Set: (AUG-CC-PVTZ AUX)
    Blend: AUG-CC-PVTZ-JKFIT
	 Reference Energy          =    -503.7183325511006160 [Eh]
	 Singles Energy            =      -0.0000000000000000 [Eh]
	 Same-Spin Energy          =      -0.5480155359122241 [Eh]
	 Opposite-Spin Energy      =      -1.6311967203491142 [Eh]
	 Correlation Energy        =      -2.1792122562613381 [Eh]
	 Total Energy              =    -505.8975448073619532 [Eh]

	 ================> DF-SCS-MP2 Energies <==================
	-----------------------------------------------------------
	 SCS Same-Spin Scale       =       0.3333333333333333 [-]
	 SCS Opposite-Spin Scale   =       1.2000000000000000 [-]
	 SCS Same-Spin Energy      =      -0.1826718453040747 [Eh]
	 SCS Opposite-Spin Energy  =      -1.9574360644189370 [Eh]
	 SCS Correlation Energy    =      -2.1401079097230116 [Eh]
	 SCS Total Energy          =    -505.8584404608236014 [Eh]
	-----------------------------------------------------------

  Dipole Moment: [D]
     X:    -2.3035      Y:    -1.2262      Z:    -0.7893     Total:     2.7263

*** Psi4 exiting successfully. Buy a developer a beer!
