                               Psi4 1.3.2 release

  ==> Input File <==

--------------------------------------------------------------------------
#psi4
#
memory 32 gb

molecule  {
0 1
  N       -1.7893040    -0.1617730    -0.0001110
  N       -0.2713240    -1.8496560    -0.0082220
  N       -0.2672930     1.7497910     0.0010540
  N        2.0532340     1.0361840    -0.0078740
  N        2.7268170    -1.1967150     0.0786200
  C       -0.5487760     0.4359060     0.0048010
  C        0.3666280    -0.6257540     0.0082110
  C       -1.5569310    -1.5157420    -0.0063070
  C        1.6769653    -0.4592641     0.0028831
  C       -3.0654680     0.5328540     0.0028660
  C        1.0578830     1.9506280    -0.0091420
  H       -2.3786350    -2.2235800    -0.0126570
  H       -3.1454970     1.1693440    -0.8801020
  H       -3.8626160    -0.2117770    -0.0066990
  H       -3.1511970     1.1523310     0.8973960
  H        1.3824760     2.9891980    -0.0128990
  H        3.6364610    -0.8630510    -0.2195510
  H        2.4794860    -2.1327440    -0.2212610
units angstrom
no_reorient  #important for SAPT in psi4, default
symmetry c1  #important for SAPT in psi4, default
}

set PROPERTIES_ORIGIN ["COM"]
properties('MP2/aug-cc-pvtz', properties = ['dipole'])
--------------------------------------------------------------------------

    Molecular point group: c1
  Charge       = 0
  Multiplicity = 1
  Basis Set: AUG-CC-PVTZ
    Blend: AUG-CC-PVTZ
  Basis Set: (AUG-CC-PVTZ AUX)
    Blend: AUG-CC-PVTZ-JKFIT

    Orbital Energies [Eh]
    ---------------------

    Doubly Occupied:

       1A    -15.633431     2A    -15.597433     3A    -15.564158
       4A    -15.548619     5A    -15.547075     6A    -11.333308
       7A    -11.323462     8A    -11.322881     9A    -11.299219
      10A    -11.288867    11A    -11.244181    12A     -1.369082
      13A     -1.295992    14A     -1.251331    15A     -1.203450
      16A     -1.115973    17A     -1.040721    18A     -0.991800
      19A     -0.896938    20A     -0.852395    21A     -0.811697
      22A     -0.756922    23A     -0.736995    24A     -0.696471
      25A     -0.667674    26A     -0.657932    27A     -0.638161
      28A     -0.598178    29A     -0.596177    30A     -0.584786
      31A     -0.567365    32A     -0.539139    33A     -0.500886
      34A     -0.484599    35A     -0.429421    36A     -0.416161
      37A     -0.401163    38A     -0.354241    39A     -0.307288

  @DF-RHF Final Energy:  -503.67839438366036

   => Energetics <=

    Nuclear Repulsion Energy =            594.1149395500766559
    One-Electron Energy =               -1862.6555232621331015
    Two-Electron Energy =                 764.8621893283961981
    Total Energy =                       -503.6783943836603612
  Basis Set: (AUG-CC-PVTZ AUX)
    Blend: AUG-CC-PVTZ-RI
    Molecular point group: c1

    Geometry (in Angstrom), charge = 0, multiplicity = 1:

       Center              X                  Y                   Z               Mass
    ------------   -----------------  -----------------  -----------------  -----------------
         N           -1.818968001662    -0.146952130719    -0.003258101377    14.003074004430
         N           -0.300988001662    -1.834835130719    -0.011369101377    14.003074004430
         N           -0.296957001662     1.764611869281    -0.002093101377    14.003074004430
         N            2.023569998338     1.051004869281    -0.011021101377    14.003074004430
         N            2.697152998338    -1.181894130719     0.075472898623    14.003074004430
         C           -0.578440001662     0.450726869281     0.001653898623    12.000000000000
         C            0.336963998338    -0.610933130719     0.005063898623    12.000000000000
         C           -1.586595001662    -1.500921130719    -0.009454101377    12.000000000000
         C            1.647301298338    -0.444443230719    -0.000264001377    12.000000000000
         C           -3.095132001662     0.547674869281    -0.000281101377    12.000000000000
         C            1.028218998338     1.965448869281    -0.012289101377    12.000000000000
         H           -2.408299001662    -2.208759130719    -0.015804101377     1.007825032230
         H           -3.175161001662     1.184164869281    -0.883249101377     1.007825032230
         H           -3.892280001662    -0.196956130719    -0.009846101377     1.007825032230
         H           -3.180861001662     1.167151869281     0.894248898623     1.007825032230
         H            1.352811998338     3.004018869281    -0.016046101377     1.007825032230
         H            3.606796998338    -0.848230130719    -0.222698101377     1.007825032230
         H            2.449821998338    -2.117923130719    -0.224408101377     1.007825032230

  Basis Set: AUG-CC-PVTZ
    Blend: AUG-CC-PVTZ
  Basis Set: (AUG-CC-PVTZ AUX)
    Blend: AUG-CC-PVTZ-JKFIT
	 Reference Energy          =    -503.6783943836603612 [Eh]
	 Singles Energy            =      -0.0000000000000000 [Eh]
	 Same-Spin Energy          =      -0.5503666796466103 [Eh]
	 Opposite-Spin Energy      =      -1.6376587144922499 [Eh]
	 Correlation Energy        =      -2.1880253941388603 [Eh]
	 Total Energy              =    -505.8664197777991944 [Eh]

	 ================> DF-SCS-MP2 Energies <==================
	-----------------------------------------------------------
	 SCS Same-Spin Scale       =       0.3333333333333333 [-]
	 SCS Opposite-Spin Scale   =       1.2000000000000000 [-]
	 SCS Same-Spin Energy      =      -0.1834555598822034 [Eh]
	 SCS Opposite-Spin Energy  =      -1.9651904573906998 [Eh]
	 SCS Correlation Energy    =      -2.1486460172729034 [Eh]
	 SCS Total Energy          =    -505.8270404009332424 [Eh]
	-----------------------------------------------------------

  Dipole Moment: [D]
     X:    -2.2656      Y:    -1.9209      Z:    -0.7575     Total:     3.0654

*** Psi4 exiting successfully. Buy a developer a beer!
