                               Psi4 1.4a3.dev225

  ==> Input File <==

--------------------------------------------------------------------------
#psi4
#
memory 32 gb

molecule  {
0 1
  N       -1.7889380    -0.1640290    -0.0179520
  N       -0.2703210    -1.8482040    -0.0023970
  N       -0.2671710     1.7490810    -0.0033560
  N        2.0541740     1.0368940    -0.0085470
  N        2.7206340    -1.1973270     0.0732090
  C       -0.5486140     0.4351420     0.0045870
  C        0.3650590    -0.6247560     0.0169900
  C       -1.5603084    -1.4964151    -0.0162985
  C        1.7266360    -0.2641570     0.0048060
  C       -3.0641060     0.5324820     0.0177850
  C        1.0564750     1.9508360    -0.0110870
  H       -2.3762040    -2.2259510    -0.0342240
  H       -2.9284720     1.5041700    -0.4579320
  H       -3.8067760    -0.0485880    -0.5312030
  H       -3.3972360     0.6796990     1.0480130
  H        1.3812150     2.9891510    -0.0228070
  H        3.6427950    -0.8729100    -0.1905990
  H        2.4748820    -2.1409930    -0.1987870
units angstrom
no_reorient  #important for SAPT in psi4, default
symmetry c1  #important for SAPT in psi4, default
}

set PROPERTIES_ORIGIN ["COM"]
properties('MP2/aug-cc-pvtz', properties = ['dipole'])
--------------------------------------------------------------------------

    Molecular point group: c1
  Charge       = 0
  Multiplicity = 1
  Basis Set: AUG-CC-PVTZ
    Blend: AUG-CC-PVTZ
  Basis Set: (AUG-CC-PVTZ AUX)
    Blend: AUG-CC-PVTZ-JKFIT

    Orbital Energies [Eh]
    ---------------------

    Doubly Occupied:

       1A    -15.634178     2A    -15.581178     3A    -15.565814
       4A    -15.560228     5A    -15.551734     6A    -11.334384
       7A    -11.320730     8A    -11.312020     9A    -11.310810
      10A    -11.288589    11A    -11.250883    12A     -1.371586
      13A     -1.296769    14A     -1.242276    15A     -1.196421
      16A     -1.152055    17A     -1.029832    18A     -0.988394
      19A     -0.891159    20A     -0.872432    21A     -0.802405
      22A     -0.754072    23A     -0.724978    24A     -0.683170
      25A     -0.673202    26A     -0.668839    27A     -0.622559
      28A     -0.606659    29A     -0.594975    30A     -0.590920
      31A     -0.571607    32A     -0.537862    33A     -0.495204
      34A     -0.491974    35A     -0.450098    36A     -0.413903
      37A     -0.408137    38A     -0.368979    39A     -0.305092

  @DF-RHF Final Energy:  -503.72398721804285

   => Energetics <=

    Nuclear Repulsion Energy =            594.9261387414073852
    One-Electron Energy =               -1864.2680326959909962
    Two-Electron Energy =                 765.6179067365408173
    Total Energy =                       -503.7239872180427938
  Basis Set: (AUG-CC-PVTZ AUX)
    Blend: AUG-CC-PVTZ-RI
    Molecular point group: c1

    Geometry (in Angstrom), charge = 0, multiplicity = 1:

       Center              X                  Y                   Z               Mass
    ------------   -----------------  -----------------  -----------------  -----------------
         N           -1.822060123155    -0.166375314994    -0.020530265394    14.003074004430
         N           -0.303443123155    -1.850550314994    -0.004975265394    14.003074004430
         N           -0.300293123155     1.746734685006    -0.005934265394    14.003074004430
         N            2.021051876845     1.034547685006    -0.011125265394    14.003074004430
         N            2.687511876845    -1.199673314994     0.070630734606    14.003074004430
         C           -0.581736123155     0.432795685006     0.002008734606    12.000000000000
         C            0.331936876845    -0.627102314994     0.014411734606    12.000000000000
         C           -1.593430523155    -1.498761414994    -0.018876765394    12.000000000000
         C            1.693513876845    -0.266503314994     0.002227734606    12.000000000000
         C           -3.097228123155     0.530135685006     0.015206734606    12.000000000000
         C            1.023352876845     1.948489685006    -0.013665265394    12.000000000000
         H           -2.409326123155    -2.228297314994    -0.036802265394     1.007825032230
         H           -2.961594123155     1.501823685006    -0.460510265394     1.007825032230
         H           -3.839898123155    -0.050934314994    -0.533781265394     1.007825032230
         H           -3.430358123155     0.677352685006     1.045434734606     1.007825032230
         H            1.348092876845     2.986804685006    -0.025385265394     1.007825032230
         H            3.609672876845    -0.875256314994    -0.193177265394     1.007825032230
         H            2.441759876845    -2.143339314994    -0.201365265394     1.007825032230

  Basis Set: AUG-CC-PVTZ
    Blend: AUG-CC-PVTZ
  Basis Set: (AUG-CC-PVTZ AUX)
    Blend: AUG-CC-PVTZ-JKFIT
	 Reference Energy          =    -503.7239872180428506 [Eh]
	 Singles Energy            =      -0.0000000000000000 [Eh]
	 Same-Spin Energy          =      -0.5496672821351747 [Eh]
	 Opposite-Spin Energy      =      -1.6332497946916642 [Eh]
	 Correlation Energy        =      -2.1829170768268389 [Eh]
	 Total Energy              =    -505.9069042948696620 [Eh]

	 ================> DF-SCS-MP2 Energies <==================
	-----------------------------------------------------------
	 SCS Same-Spin Scale       =       0.3333333333333333 [-]
	 SCS Opposite-Spin Scale   =       1.2000000000000000 [-]
	 SCS Same-Spin Energy      =      -0.1832224273783916 [Eh]
	 SCS Opposite-Spin Energy  =      -1.9598997536299969 [Eh]
	 SCS Correlation Energy    =      -2.1431221810083882 [Eh]
	 SCS Total Energy          =    -505.8671093990512304 [Eh]
	-----------------------------------------------------------

  Dipole Moment: [D]
     X:    -2.6821      Y:    -1.1452      Z:    -0.7127     Total:     3.0022

*** Psi4 exiting successfully. Buy a developer a beer!
