                               Psi4 1.3.2 release

  ==> Input File <==

--------------------------------------------------------------------------
#psi4
#
memory 32 gb

molecule  {
0 1
  N       -1.7893040    -0.1617730    -0.0001110
  N       -0.2713240    -1.8496560    -0.0082220
  N       -0.2672930     1.7497910     0.0010540
  N        2.0418637     1.0389923    -0.0078549
  N        2.7268170    -1.1967150     0.0786200
  C       -0.5487760     0.4359060     0.0048010
  C        0.3635341    -0.6138798     0.0081454
  C       -1.5569310    -1.5157420    -0.0063070
  C        1.7257650    -0.2653140     0.0014880
  C       -3.0654680     0.5328540     0.0028660
  C        1.0578830     1.9506280    -0.0091420
  H       -2.3786350    -2.2235800    -0.0126570
  H       -3.1454970     1.1693440    -0.8801020
  H       -3.8626160    -0.2117770    -0.0066990
  H       -3.1511970     1.1523310     0.8973960
  H        1.3824760     2.9891980    -0.0128990
  H        3.6364610    -0.8630510    -0.2195510
  H        2.4794860    -2.1327440    -0.2212610
units angstrom
no_reorient  #important for SAPT in psi4, default
symmetry c1  #important for SAPT in psi4, default
}

set PROPERTIES_ORIGIN ["COM"]
properties('MP2/aug-cc-pvtz', properties = ['dipole'])
--------------------------------------------------------------------------

    Molecular point group: c1
  Charge       = 0
  Multiplicity = 1
  Basis Set: AUG-CC-PVTZ
    Blend: AUG-CC-PVTZ
  Basis Set: (AUG-CC-PVTZ AUX)
    Blend: AUG-CC-PVTZ-JKFIT

    Orbital Energies [Eh]
    ---------------------

    Doubly Occupied:

       1A    -15.632027     2A    -15.582385     3A    -15.567063
       4A    -15.559398     5A    -15.551068     6A    -11.335327
       7A    -11.322505     8A    -11.311790     9A    -11.310044
      10A    -11.288255    11A    -11.250890    12A     -1.367503
      13A     -1.297545    14A     -1.241899    15A     -1.195278
      16A     -1.153001    17A     -1.033008    18A     -0.985233
      19A     -0.891789    20A     -0.871076    21A     -0.804108
      22A     -0.754132    23A     -0.723133    24A     -0.680821
      25A     -0.673854    26A     -0.666206    27A     -0.624908
      28A     -0.607756    29A     -0.596586    30A     -0.591746
      31A     -0.571882    32A     -0.537006    33A     -0.495521
      34A     -0.491879    35A     -0.448791    36A     -0.413506
      37A     -0.408167    38A     -0.368727    39A     -0.309193

  @DF-RHF Final Energy:  -503.72554614216892

   => Energetics <=

    Nuclear Repulsion Energy =            594.6845463688250675
    One-Electron Energy =               -1863.7901665164797578
    Two-Electron Energy =                 765.3800740054857670
    Total Energy =                       -503.7255461421689233
  Basis Set: (AUG-CC-PVTZ AUX)
    Blend: AUG-CC-PVTZ-RI
    Molecular point group: c1

    Geometry (in Angstrom), charge = 0, multiplicity = 1:

       Center              X                  Y                   Z               Mass
    ------------   -----------------  -----------------  -----------------  -----------------
         N           -1.821579191495    -0.163784585189    -0.003142310645    14.003074004430
         N           -0.303599191495    -1.851667585189    -0.011253310645    14.003074004430
         N           -0.299568191495     1.747779414811    -0.001977310645    14.003074004430
         N            2.009588508505     1.036980714811    -0.010886210645    14.003074004430
         N            2.694541808505    -1.198726585189     0.075588689355    14.003074004430
         C           -0.581051191495     0.433894414811     0.001769689355    12.000000000000
         C            0.331258908505    -0.615891385189     0.005114089355    12.000000000000
         C           -1.589206191495    -1.517753585189    -0.009338310645    12.000000000000
         C            1.693489808505    -0.267325585189    -0.001543310645    12.000000000000
         C           -3.097743191495     0.530842414811    -0.000165310645    12.000000000000
         C            1.025607808505     1.948616414811    -0.012173310645    12.000000000000
         H           -2.410910191495    -2.225591585189    -0.015688310645     1.007825032230
         H           -3.177772191495     1.167332414811    -0.883133310645     1.007825032230
         H           -3.894891191495    -0.213788585189    -0.009730310645     1.007825032230
         H           -3.183472191495     1.150319414811     0.894364689355     1.007825032230
         H            1.350200808505     2.987186414811    -0.015930310645     1.007825032230
         H            3.604185808505    -0.865062585189    -0.222582310645     1.007825032230
         H            2.447210808505    -2.134755585189    -0.224292310645     1.007825032230

  Basis Set: AUG-CC-PVTZ
    Blend: AUG-CC-PVTZ
  Basis Set: (AUG-CC-PVTZ AUX)
    Blend: AUG-CC-PVTZ-JKFIT
	 Reference Energy          =    -503.7255461421689233 [Eh]
	 Singles Energy            =      -0.0000000000000000 [Eh]
	 Same-Spin Energy          =      -0.5489916912745306 [Eh]
	 Opposite-Spin Energy      =      -1.6326747290001096 [Eh]
	 Correlation Energy        =      -2.1816664202746403 [Eh]
	 Total Energy              =    -505.9072125624435898 [Eh]

	 ================> DF-SCS-MP2 Energies <==================
	-----------------------------------------------------------
	 SCS Same-Spin Scale       =       0.3333333333333333 [-]
	 SCS Opposite-Spin Scale   =       1.2000000000000000 [-]
	 SCS Same-Spin Energy      =      -0.1829972304248435 [Eh]
	 SCS Opposite-Spin Energy  =      -1.9592096748001313 [Eh]
	 SCS Correlation Energy    =      -2.1422069052249748 [Eh]
	 SCS Total Energy          =    -505.8677530473938759 [Eh]
	-----------------------------------------------------------

  Dipole Moment: [D]
     X:    -2.6647      Y:    -1.1691      Z:    -0.7891     Total:     3.0149

*** Psi4 exiting successfully. Buy a developer a beer!
