                               Psi4 1.4a3.dev225

  ==> Input File <==

--------------------------------------------------------------------------
#psi4
#
memory 32 gb

molecule  {
0 1
  N       -1.7889380    -0.1640290    -0.0179520
  N       -0.2703210    -1.8482040    -0.0023970
  N       -0.2671710     1.7490810    -0.0033560
  N        2.0541740     1.0368940    -0.0085470
  N        2.7206340    -1.1973270     0.0732090
  C       -0.5486140     0.4351420     0.0045870
  C        0.3742759    -0.6070086     0.0172712
  C       -1.5569260    -1.5161270    -0.0162740
  C        1.7266360    -0.2641570     0.0048060
  C       -3.0641060     0.5324820     0.0177850
  C        1.0564750     1.9508360    -0.0110870
  H       -2.3762040    -2.2259510    -0.0342240
  H       -2.9284720     1.5041700    -0.4579320
  H       -3.8067760    -0.0485880    -0.5312030
  H       -3.3972360     0.6796990     1.0480130
  H        1.3812150     2.9891510    -0.0228070
  H        3.6427950    -0.8729100    -0.1905990
  H        2.4748820    -2.1409930    -0.1987870
units angstrom
no_reorient  #important for SAPT in psi4, default
symmetry c1  #important for SAPT in psi4, default
}

set PROPERTIES_ORIGIN ["COM"]
properties('MP2/aug-cc-pvtz', properties = ['dipole'])
--------------------------------------------------------------------------

    Molecular point group: c1
  Charge       = 0
  Multiplicity = 1
  Basis Set: AUG-CC-PVTZ
    Blend: AUG-CC-PVTZ
  Basis Set: (AUG-CC-PVTZ AUX)
    Blend: AUG-CC-PVTZ-JKFIT

    Orbital Energies [Eh]
    ---------------------

    Doubly Occupied:

       1A    -15.631575     2A    -15.581319     3A    -15.567691
       4A    -15.559897     5A    -15.551403     6A    -11.333508
       7A    -11.321472     8A    -11.313303     9A    -11.311439
      10A    -11.287156    11A    -11.249689    12A     -1.366546
      13A     -1.296707    14A     -1.242198    15A     -1.193154
      16A     -1.151860    17A     -1.033081    18A     -0.984818
      19A     -0.890891    20A     -0.872703    21A     -0.803692
      22A     -0.754182    23A     -0.722597    24A     -0.681767
      25A     -0.673254    26A     -0.666227    27A     -0.624257
      28A     -0.608929    29A     -0.595155    30A     -0.593003
      31A     -0.571617    32A     -0.536370    33A     -0.495171
      34A     -0.490806    35A     -0.447730    36A     -0.413527
      37A     -0.408172    38A     -0.367150    39A     -0.309989

  @DF-RHF Final Energy:  -503.72505780337679

   => Energetics <=

    Nuclear Repulsion Energy =            594.6795096395590008
    One-Electron Energy =               -1863.8011301150397685
    Two-Electron Energy =                 765.3965626721039825
    Total Energy =                       -503.7250578033767852
  Basis Set: (AUG-CC-PVTZ AUX)
    Blend: AUG-CC-PVTZ-RI
    Molecular point group: c1

    Geometry (in Angstrom), charge = 0, multiplicity = 1:

       Center              X                  Y                   Z               Mass
    ------------   -----------------  -----------------  -----------------  -----------------
         N           -1.823074354407    -0.166217174677    -0.020554873944    14.003074004430
         N           -0.304457354407    -1.850392174677    -0.004999873944    14.003074004430
         N           -0.301307354407     1.746892825323    -0.005958873944    14.003074004430
         N            2.020037645593     1.034705825323    -0.011149873944    14.003074004430
         N            2.686497645593    -1.199515174677     0.070606126056    14.003074004430
         C           -0.582750354407     0.432953825323     0.001984126056    12.000000000000
         C            0.340139545593    -0.609196774677     0.014668326056    12.000000000000
         C           -1.591062354407    -1.518315174677    -0.018876873944    12.000000000000
         C            1.692499645593    -0.266345174677     0.002203126056    12.000000000000
         C           -3.098242354407     0.530293825323     0.015182126056    12.000000000000
         C            1.022338645593     1.948647825323    -0.013689873944    12.000000000000
         H           -2.410340354407    -2.228139174677    -0.036826873944     1.007825032230
         H           -2.962608354407     1.501981825323    -0.460534873944     1.007825032230
         H           -3.840912354407    -0.050776174677    -0.533805873944     1.007825032230
         H           -3.431372354407     0.677510825323     1.045410126056     1.007825032230
         H            1.347078645593     2.986962825323    -0.025409873944     1.007825032230
         H            3.608658645593    -0.875098174677    -0.193201873944     1.007825032230
         H            2.440745645593    -2.143181174677    -0.201389873944     1.007825032230

  Basis Set: AUG-CC-PVTZ
    Blend: AUG-CC-PVTZ
  Basis Set: (AUG-CC-PVTZ AUX)
    Blend: AUG-CC-PVTZ-JKFIT
	 Reference Energy          =    -503.7250578033767852 [Eh]
	 Singles Energy            =      -0.0000000000000000 [Eh]
	 Same-Spin Energy          =      -0.5489955223615732 [Eh]
	 Opposite-Spin Energy      =      -1.6327411525770654 [Eh]
	 Correlation Energy        =      -2.1817366749386387 [Eh]
	 Total Energy              =    -505.9067944783154189 [Eh]

	 ================> DF-SCS-MP2 Energies <==================
	-----------------------------------------------------------
	 SCS Same-Spin Scale       =       0.3333333333333333 [-]
	 SCS Opposite-Spin Scale   =       1.2000000000000000 [-]
	 SCS Same-Spin Energy      =      -0.1829985074538577 [Eh]
	 SCS Opposite-Spin Energy  =      -1.9592893830924785 [Eh]
	 SCS Correlation Energy    =      -2.1422878905463363 [Eh]
	 SCS Total Energy          =    -505.8673456939231414 [Eh]
	-----------------------------------------------------------

  Dipole Moment: [D]
     X:    -2.6313      Y:    -1.1822      Z:    -0.7145     Total:     2.9719

*** Psi4 exiting successfully. Buy a developer a beer!
