                               Psi4 1.4a3.dev225

  ==> Input File <==

--------------------------------------------------------------------------
#psi4
#
memory 32 gb

molecule  {
0 1
  N       -1.7889380    -0.1640290    -0.0179520
  N       -0.2703210    -1.8482040    -0.0023970
  N       -0.2671710     1.7490810    -0.0033560
  N        2.0541740     1.0368940    -0.0085470
  N        2.7206340    -1.1973270     0.0732090
  C       -0.5486140     0.4351420     0.0045870
  C        0.3650590    -0.6247560     0.0169900
  C       -1.5569260    -1.5161270    -0.0162740
  C        1.7266360    -0.2641570     0.0048060
  C       -3.0641060     0.5324820     0.0177850
  C        1.0933440     1.9170622    -0.0109931
  H       -2.3762040    -2.2259510    -0.0342240
  H       -2.9284720     1.5041700    -0.4579320
  H       -3.8067760    -0.0485880    -0.5312030
  H       -3.3972360     0.6796990     1.0480130
  H        1.3812150     2.9891510    -0.0228070
  H        3.6427950    -0.8729100    -0.1905990
  H        2.4748820    -2.1409930    -0.1987870
units angstrom
no_reorient  #important for SAPT in psi4, default
symmetry c1  #important for SAPT in psi4, default
}

set PROPERTIES_ORIGIN ["COM"]
properties('MP2/aug-cc-pvtz', properties = ['dipole'])
--------------------------------------------------------------------------

    Molecular point group: c1
  Charge       = 0
  Multiplicity = 1
  Basis Set: AUG-CC-PVTZ
    Blend: AUG-CC-PVTZ
  Basis Set: (AUG-CC-PVTZ AUX)
    Blend: AUG-CC-PVTZ-JKFIT

    Orbital Energies [Eh]
    ---------------------

    Doubly Occupied:

       1A    -15.630294     2A    -15.583535     3A    -15.566758
       4A    -15.557687     5A    -15.552889     6A    -11.337338
       7A    -11.321477     8A    -11.312267     9A    -11.310550
      10A    -11.286243    11A    -11.249943    12A     -1.367339
      13A     -1.303244    14A     -1.239345    15A     -1.196558
      16A     -1.159403    17A     -1.028976    18A     -0.985016
      19A     -0.895562    20A     -0.868523    21A     -0.802326
      22A     -0.755236    23A     -0.723300    24A     -0.681663
      25A     -0.674453    26A     -0.665588    27A     -0.624576
      28A     -0.607860    29A     -0.596085    30A     -0.587932
      31A     -0.569955    32A     -0.539341    33A     -0.493480
      34A     -0.490223    35A     -0.449837    36A     -0.416081
      37A     -0.410062    38A     -0.372812    39A     -0.303349

  @DF-RHF Final Energy:  -503.72242849144686

   => Energetics <=

    Nuclear Repulsion Energy =            595.0713058438965390
    One-Electron Energy =               -1864.5532568539588283
    Two-Electron Energy =                 765.7595225186155403
    Total Energy =                       -503.7224284914468626
  Basis Set: (AUG-CC-PVTZ AUX)
    Blend: AUG-CC-PVTZ-RI
    Molecular point group: c1

    Geometry (in Angstrom), charge = 0, multiplicity = 1:

       Center              X                  Y                   Z               Mass
    ------------   -----------------  -----------------  -----------------  -----------------
         N           -1.825300321246    -0.162069768777    -0.020539796478    14.003074004430
         N           -0.306683321246    -1.846244768777    -0.004984796478    14.003074004430
         N           -0.303533321246     1.751040231223    -0.005943796478    14.003074004430
         N            2.017811678754     1.038853231223    -0.011134796478    14.003074004430
         N            2.684271678754    -1.195367768777     0.070621203522    14.003074004430
         C           -0.584976321246     0.437101231223     0.001999203522    12.000000000000
         C            0.328696678754    -0.622796768777     0.014402203522    12.000000000000
         C           -1.593288321246    -1.514167768777    -0.018861796478    12.000000000000
         C            1.690273678754    -0.262197768777     0.002218203522    12.000000000000
         C           -3.100468321246     0.534441231223     0.015197203522    12.000000000000
         C            1.056981678754     1.919021431223    -0.013580896478    12.000000000000
         H           -2.412566321246    -2.223991768777    -0.036811796478     1.007825032230
         H           -2.964834321246     1.506129231223    -0.460519796478     1.007825032230
         H           -3.843138321246    -0.046628768777    -0.533790796478     1.007825032230
         H           -3.433598321246     0.681658231223     1.045425203522     1.007825032230
         H            1.344852678754     2.991110231223    -0.025394796478     1.007825032230
         H            3.606432678754    -0.870950768777    -0.193186796478     1.007825032230
         H            2.438519678754    -2.139033768777    -0.201374796478     1.007825032230

  Basis Set: AUG-CC-PVTZ
    Blend: AUG-CC-PVTZ
  Basis Set: (AUG-CC-PVTZ AUX)
    Blend: AUG-CC-PVTZ-JKFIT
	 Reference Energy          =    -503.7224284914468626 [Eh]
	 Singles Energy            =      -0.0000000000000000 [Eh]
	 Same-Spin Energy          =      -0.5492220239272236 [Eh]
	 Opposite-Spin Energy      =      -1.6326730836591024 [Eh]
	 Correlation Energy        =      -2.1818951075863260 [Eh]
	 Total Energy              =    -505.9043235990332050 [Eh]

	 ================> DF-SCS-MP2 Energies <==================
	-----------------------------------------------------------
	 SCS Same-Spin Scale       =       0.3333333333333333 [-]
	 SCS Opposite-Spin Scale   =       1.2000000000000000 [-]
	 SCS Same-Spin Energy      =      -0.1830740079757412 [Eh]
	 SCS Opposite-Spin Energy  =      -1.9592077003909227 [Eh]
	 SCS Correlation Energy    =      -2.1422817083666641 [Eh]
	 SCS Total Energy          =    -505.8647101998135440 [Eh]
	-----------------------------------------------------------

  Dipole Moment: [D]
     X:    -2.4736      Y:    -1.3218      Z:    -0.7124     Total:     2.8937

*** Psi4 exiting successfully. Buy a developer a beer!
