                               Psi4 1.3.2 release

  ==> Input File <==

--------------------------------------------------------------------------
#psi4
#
memory 32 gb

molecule  {
0 1
  N       -1.7893040    -0.1617730    -0.0001110
  N       -0.2713240    -1.8496560    -0.0082220
  N       -0.2705976     1.7729490     0.0008812
  N        2.0690409     1.0536934    -0.0081223
  N        2.7268170    -1.1967150     0.0786200
  C       -0.5487760     0.4359060     0.0048010
  C        0.3666280    -0.6257540     0.0082110
  C       -1.5569310    -1.5157420    -0.0063070
  C        1.7257650    -0.2653140     0.0014880
  C       -3.0654680     0.5328540     0.0028660
  C        1.0578830     1.9506280    -0.0091420
  H       -2.3786350    -2.2235800    -0.0126570
  H       -3.1454970     1.1693440    -0.8801020
  H       -3.8626160    -0.2117770    -0.0066990
  H       -3.1511970     1.1523310     0.8973960
  H        1.3824760     2.9891980    -0.0128990
  H        3.6364610    -0.8630510    -0.2195510
  H        2.4794860    -2.1327440    -0.2212610
units angstrom
no_reorient  #important for SAPT in psi4, default
symmetry c1  #important for SAPT in psi4, default
}

set PROPERTIES_ORIGIN ["COM"]
properties('MP2/aug-cc-pvtz', properties = ['dipole'])
--------------------------------------------------------------------------

    Molecular point group: c1
  Charge       = 0
  Multiplicity = 1
  Basis Set: AUG-CC-PVTZ
    Blend: AUG-CC-PVTZ
  Basis Set: (AUG-CC-PVTZ AUX)
    Blend: AUG-CC-PVTZ-JKFIT

    Orbital Energies [Eh]
    ---------------------

    Doubly Occupied:

       1A    -15.634569     2A    -15.583608     3A    -15.568698
       4A    -15.562468     5A    -15.554663     6A    -11.338544
       7A    -11.323286     8A    -11.316072     9A    -11.310132
      10A    -11.289279    11A    -11.253461    12A     -1.367729
      13A     -1.292297    14A     -1.240483    15A     -1.197901
      16A     -1.148628    17A     -1.032352    18A     -0.987000
      19A     -0.891002    20A     -0.867820    21A     -0.803102
      22A     -0.752223    23A     -0.724351    24A     -0.681306
      25A     -0.670893    26A     -0.666391    27A     -0.623502
      28A     -0.606691    29A     -0.595184    30A     -0.589701
      31A     -0.571233    32A     -0.536430    33A     -0.494797
      34A     -0.491822    35A     -0.451233    36A     -0.415670
      37A     -0.411346    38A     -0.367258    39A     -0.309742

  @DF-RHF Final Energy:  -503.72195596979424

   => Energetics <=

    Nuclear Repulsion Energy =            593.0539020926721605
    One-Electron Energy =               -1860.5059867468778521
    Two-Electron Energy =                 763.7301286844115111
    Total Energy =                       -503.7219559697941804
  Basis Set: (AUG-CC-PVTZ AUX)
    Blend: AUG-CC-PVTZ-RI
    Molecular point group: c1

    Geometry (in Angstrom), charge = 0, multiplicity = 1:

       Center              X                  Y                   Z               Mass
    ------------   -----------------  -----------------  -----------------  -----------------
         N           -1.824070747291    -0.166385061484    -0.003106240692    14.003074004430
         N           -0.306090747291    -1.854268061484    -0.011217240692    14.003074004430
         N           -0.305364347291     1.768336938516    -0.002114040692    14.003074004430
         N            2.034274152709     1.049081338516    -0.011117540692    14.003074004430
         N            2.692050252709    -1.201327061484     0.075624759308    14.003074004430
         C           -0.583542747291     0.431293938516     0.001805759308    12.000000000000
         C            0.331861252709    -0.630366061484     0.005215759308    12.000000000000
         C           -1.591697747291    -1.520354061484    -0.009302240692    12.000000000000
         C            1.690998252709    -0.269926061484    -0.001507240692    12.000000000000
         C           -3.100234747291     0.528241938516    -0.000129240692    12.000000000000
         C            1.023116252709     1.946015938516    -0.012137240692    12.000000000000
         H           -2.413401747291    -2.228192061484    -0.015652240692     1.007825032230
         H           -3.180263747291     1.164731938516    -0.883097240692     1.007825032230
         H           -3.897382747291    -0.216389061484    -0.009694240692     1.007825032230
         H           -3.185963747291     1.147718938516     0.894400759308     1.007825032230
         H            1.347709252709     2.984585938516    -0.015894240692     1.007825032230
         H            3.601694252709    -0.867663061484    -0.222546240692     1.007825032230
         H            2.444719252709    -2.137356061484    -0.224256240692     1.007825032230

  Basis Set: AUG-CC-PVTZ
    Blend: AUG-CC-PVTZ
  Basis Set: (AUG-CC-PVTZ AUX)
    Blend: AUG-CC-PVTZ-JKFIT
	 Reference Energy          =    -503.7219559697942373 [Eh]
	 Singles Energy            =      -0.0000000000000000 [Eh]
	 Same-Spin Energy          =      -0.5492593564341854 [Eh]
	 Opposite-Spin Energy      =      -1.6340053992611243 [Eh]
	 Correlation Energy        =      -2.1832647556953098 [Eh]
	 Total Energy              =    -505.9052207254895279 [Eh]

	 ================> DF-SCS-MP2 Energies <==================
	-----------------------------------------------------------
	 SCS Same-Spin Scale       =       0.3333333333333333 [-]
	 SCS Opposite-Spin Scale   =       1.2000000000000000 [-]
	 SCS Same-Spin Energy      =      -0.1830864521447285 [Eh]
	 SCS Opposite-Spin Energy  =      -1.9608064791133490 [Eh]
	 SCS Correlation Energy    =      -2.1438929312580774 [Eh]
	 SCS Total Energy          =    -505.8658489010522885 [Eh]
	-----------------------------------------------------------

  Dipole Moment: [D]
     X:    -2.7373      Y:    -1.3071      Z:    -0.7851     Total:     3.1333

*** Psi4 exiting successfully. Buy a developer a beer!
