                               Psi4 1.4a3.dev225

  ==> Input File <==

--------------------------------------------------------------------------
#psi4
#
memory 32 gb

molecule  {
0 1
  N       -1.7889380    -0.1640290    -0.0179520
  N       -0.2703210    -1.8482040    -0.0023970
  N       -0.2671710     1.7490810    -0.0033560
  N        2.0541740     1.0368940    -0.0085470
  N        2.7206340    -1.1973270     0.0732090
  C       -0.5444251     0.4546981     0.0044688
  C        0.3650590    -0.6247560     0.0169900
  C       -1.5569260    -1.5161270    -0.0162740
  C        1.7266360    -0.2641570     0.0048060
  C       -3.0641060     0.5324820     0.0177850
  C        1.0564750     1.9508360    -0.0110870
  H       -2.3762040    -2.2259510    -0.0342240
  H       -2.9284720     1.5041700    -0.4579320
  H       -3.8067760    -0.0485880    -0.5312030
  H       -3.3972360     0.6796990     1.0480130
  H        1.3812150     2.9891510    -0.0228070
  H        3.6427950    -0.8729100    -0.1905990
  H        2.4748820    -2.1409930    -0.1987870
units angstrom
no_reorient  #important for SAPT in psi4, default
symmetry c1  #important for SAPT in psi4, default
}

set PROPERTIES_ORIGIN ["COM"]
properties('MP2/aug-cc-pvtz', properties = ['dipole'])
--------------------------------------------------------------------------

    Molecular point group: c1
  Charge       = 0
  Multiplicity = 1
  Basis Set: AUG-CC-PVTZ
    Blend: AUG-CC-PVTZ
  Basis Set: (AUG-CC-PVTZ AUX)
    Blend: AUG-CC-PVTZ-JKFIT

    Orbital Energies [Eh]
    ---------------------

    Doubly Occupied:

       1A    -15.630976     2A    -15.580537     3A    -15.566980
       4A    -15.560182     5A    -15.552927     6A    -11.333734
       7A    -11.321355     8A    -11.313851     9A    -11.312574
      10A    -11.285966    11A    -11.251752    12A     -1.364927
      13A     -1.297262    14A     -1.245940    15A     -1.195162
      16A     -1.154595    17A     -1.029085    18A     -0.983345
      19A     -0.889962    20A     -0.874377    21A     -0.801132
      22A     -0.753884    23A     -0.724327    24A     -0.682075
      25A     -0.674384    26A     -0.664716    27A     -0.625579
      28A     -0.604782    29A     -0.595054    30A     -0.592960
      31A     -0.568372    32A     -0.535726    33A     -0.498155
      34A     -0.492575    35A     -0.450910    36A     -0.414010
      37A     -0.408210    38A     -0.369117    39A     -0.304633

  @DF-RHF Final Energy:  -503.72407891486375

   => Energetics <=

    Nuclear Repulsion Energy =            594.5030018372161749
    One-Electron Energy =               -1863.4419741690135197
    Two-Electron Energy =                 765.2148934169334780
    Total Energy =                       -503.7240789148637532
  Basis Set: (AUG-CC-PVTZ AUX)
    Blend: AUG-CC-PVTZ-RI
    Molecular point group: c1

    Geometry (in Angstrom), charge = 0, multiplicity = 1:

       Center              X                  Y                   Z               Mass
    ------------   -----------------  -----------------  -----------------  -----------------
         N           -1.822669605355    -0.166362773247    -0.020522722637    14.003074004430
         N           -0.304052605355    -1.850537773247    -0.004967722637    14.003074004430
         N           -0.300902605355     1.746747226753    -0.005926722637    14.003074004430
         N            2.020442394645     1.034560226753    -0.011117722637    14.003074004430
         N            2.686902394645    -1.199660773247     0.070638277363    14.003074004430
         C           -0.578156705355     0.452364326753     0.001898077363    12.000000000000
         C            0.331327394645    -0.627089773247     0.014419277363    12.000000000000
         C           -1.590657605355    -1.518460773247    -0.018844722637    12.000000000000
         C            1.692904394645    -0.266490773247     0.002235277363    12.000000000000
         C           -3.097837605355     0.530148226753     0.015214277363    12.000000000000
         C            1.022743394645     1.948502226753    -0.013657722637    12.000000000000
         H           -2.409935605355    -2.228284773247    -0.036794722637     1.007825032230
         H           -2.962203605355     1.501836226753    -0.460502722637     1.007825032230
         H           -3.840507605355    -0.050921773247    -0.533773722637     1.007825032230
         H           -3.430967605355     0.677365226753     1.045442277363     1.007825032230
         H            1.347483394645     2.986817226753    -0.025377722637     1.007825032230
         H            3.609063394645    -0.875243773247    -0.193169722637     1.007825032230
         H            2.441150394645    -2.143326773247    -0.201357722637     1.007825032230

  Basis Set: AUG-CC-PVTZ
    Blend: AUG-CC-PVTZ
  Basis Set: (AUG-CC-PVTZ AUX)
    Blend: AUG-CC-PVTZ-JKFIT
	 Reference Energy          =    -503.7240789148637532 [Eh]
	 Singles Energy            =      -0.0000000000000000 [Eh]
	 Same-Spin Energy          =      -0.5495471893588495 [Eh]
	 Opposite-Spin Energy      =      -1.6329876443487739 [Eh]
	 Correlation Energy        =      -2.1825348337076234 [Eh]
	 Total Energy              =    -505.9066137485713739 [Eh]

	 ================> DF-SCS-MP2 Energies <==================
	-----------------------------------------------------------
	 SCS Same-Spin Scale       =       0.3333333333333333 [-]
	 SCS Opposite-Spin Scale   =       1.2000000000000000 [-]
	 SCS Same-Spin Energy      =      -0.1831823964529498 [Eh]
	 SCS Opposite-Spin Energy  =      -1.9595851732185285 [Eh]
	 SCS Correlation Energy    =      -2.1427675696714785 [Eh]
	 SCS Total Energy          =    -505.8668464845352446 [Eh]
	-----------------------------------------------------------

  Dipole Moment: [D]
     X:    -2.6098      Y:    -1.1683      Z:    -0.7130     Total:     2.9469

*** Psi4 exiting successfully. Buy a developer a beer!
