                               Psi4 1.3.2 release

  ==> Input File <==

--------------------------------------------------------------------------
#psi4
#
memory 32 gb

molecule  {
0 1
  N       -1.7893040    -0.1617730    -0.0001110
  N       -0.2713240    -1.8496560    -0.0082220
  N       -0.2672930     1.7497910     0.0010540
  N        2.0532340     1.0361840    -0.0078740
  N        2.7268170    -1.1967150     0.0786200
  C       -0.5436074     0.4250578     0.0047567
  C        0.3666280    -0.6257540     0.0082110
  C       -1.5451243    -1.5136627    -0.0062778
  C        1.7257650    -0.2653140     0.0014880
  C       -3.0654680     0.5328540     0.0028660
  C        1.0578830     1.9506280    -0.0091420
  H       -2.3786350    -2.2235800    -0.0126570
  H       -3.1454970     1.1693440    -0.8801020
  H       -3.8626160    -0.2117770    -0.0066990
  H       -3.1511970     1.1523310     0.8973960
  H        1.3824760     2.9891980    -0.0128990
  H        3.6364610    -0.8630510    -0.2195510
  H        2.4794860    -2.1327440    -0.2212610
units angstrom
no_reorient  #important for SAPT in psi4, default
symmetry c1  #important for SAPT in psi4, default
}

set PROPERTIES_ORIGIN ["COM"]
properties('MP2/aug-cc-pvtz', properties = ['dipole'])
--------------------------------------------------------------------------

    Molecular point group: c1
  Charge       = 0
  Multiplicity = 1
  Basis Set: AUG-CC-PVTZ
    Blend: AUG-CC-PVTZ
  Basis Set: (AUG-CC-PVTZ AUX)
    Blend: AUG-CC-PVTZ-JKFIT

    Orbital Energies [Eh]
    ---------------------

    Doubly Occupied:

       1A    -15.632085     2A    -15.581634     3A    -15.566464
       4A    -15.560736     5A    -15.551833     6A    -11.335216
       7A    -11.322013     8A    -11.312134     9A    -11.311146
      10A    -11.288999    11A    -11.251141    12A     -1.369509
      13A     -1.295961    14A     -1.241647    15A     -1.199025
      16A     -1.150604    17A     -1.033305    18A     -0.986513
      19A     -0.889384    20A     -0.871389    21A     -0.803478
      22A     -0.753413    23A     -0.723605    24A     -0.680159
      25A     -0.672687    26A     -0.666654    27A     -0.624382
      28A     -0.606851    29A     -0.596403    30A     -0.591041
      31A     -0.571631    32A     -0.537758    33A     -0.494861
      34A     -0.492772    35A     -0.450749    36A     -0.414594
      37A     -0.409048    38A     -0.367911    39A     -0.310327

  @DF-RHF Final Energy:  -503.72548655574008

   => Energetics <=

    Nuclear Repulsion Energy =            594.6547348583729899
    One-Electron Energy =               -1863.7223135995029679
    Two-Electron Energy =                 765.3420921853900154
    Total Energy =                       -503.7254865557400763
  Basis Set: (AUG-CC-PVTZ AUX)
    Blend: AUG-CC-PVTZ-RI
    Molecular point group: c1

    Geometry (in Angstrom), charge = 0, multiplicity = 1:

       Center              X                  Y                   Z               Mass
    ------------   -----------------  -----------------  -----------------  -----------------
         N           -1.824262824436    -0.161859035091    -0.003144581665    14.003074004430
         N           -0.306282824436    -1.849742035091    -0.011255581665    14.003074004430
         N           -0.302251824436     1.749704964909    -0.001979581665    14.003074004430
         N            2.018275175564     1.036097964909    -0.010907581665    14.003074004430
         N            2.691858175564    -1.196801035091     0.075586418335    14.003074004430
         C           -0.578566224436     0.424971764909     0.001723118335    12.000000000000
         C            0.331669175564    -0.625840035091     0.005177418335    12.000000000000
         C           -1.580083124436    -1.513748735091    -0.009311381665    12.000000000000
         C            1.690806175564    -0.265400035091    -0.001545581665    12.000000000000
         C           -3.100426824436     0.532767964909    -0.000167581665    12.000000000000
         C            1.022924175564     1.950541964909    -0.012175581665    12.000000000000
         H           -2.413593824436    -2.223666035091    -0.015690581665     1.007825032230
         H           -3.180455824436     1.169257964909    -0.883135581665     1.007825032230
         H           -3.897574824436    -0.211863035091    -0.009732581665     1.007825032230
         H           -3.186155824436     1.152244964909     0.894362418335     1.007825032230
         H            1.347517175564     2.989111964909    -0.015932581665     1.007825032230
         H            3.601502175564    -0.863137035091    -0.222584581665     1.007825032230
         H            2.444527175564    -2.132830035091    -0.224294581665     1.007825032230

  Basis Set: AUG-CC-PVTZ
    Blend: AUG-CC-PVTZ
  Basis Set: (AUG-CC-PVTZ AUX)
    Blend: AUG-CC-PVTZ-JKFIT
	 Reference Energy          =    -503.7254865557400763 [Eh]
	 Singles Energy            =      -0.0000000000000000 [Eh]
	 Same-Spin Energy          =      -0.5488477520291182 [Eh]
	 Opposite-Spin Energy      =      -1.6325759035251366 [Eh]
	 Correlation Energy        =      -2.1814236555542550 [Eh]
	 Total Energy              =    -505.9069102112943028 [Eh]

	 ================> DF-SCS-MP2 Energies <==================
	-----------------------------------------------------------
	 SCS Same-Spin Scale       =       0.3333333333333333 [-]
	 SCS Opposite-Spin Scale   =       1.2000000000000000 [-]
	 SCS Same-Spin Energy      =      -0.1829492506763727 [Eh]
	 SCS Opposite-Spin Energy  =      -1.9590910842301639 [Eh]
	 SCS Correlation Energy    =      -2.1420403349065364 [Eh]
	 SCS Total Energy          =    -505.8675268906466158 [Eh]
	-----------------------------------------------------------

  Dipole Moment: [D]
     X:    -2.7093      Y:    -1.1768      Z:    -0.7889     Total:     3.0574

*** Psi4 exiting successfully. Buy a developer a beer!
