                               Psi4 1.3.2 release

  ==> Input File <==

--------------------------------------------------------------------------
#psi4
#
memory 32 gb

molecule  {
0 1
  N       -1.7546993    -0.0940357     0.0006475
  N       -0.2713240    -1.8496560    -0.0082220
  N       -0.2672930     1.7497910     0.0010540
  N        2.0532340     1.0361840    -0.0078740
  N        2.7268170    -1.1967150     0.0786200
  C       -0.5487760     0.4359060     0.0048010
  C        0.3666280    -0.6257540     0.0082110
  C       -1.5569310    -1.5157420    -0.0063070
  C        1.7257650    -0.2653140     0.0014880
  C       -3.0654680     0.5328540     0.0028660
  C        1.0578830     1.9506280    -0.0091420
  H       -2.3786350    -2.2235800    -0.0126570
  H       -3.1454970     1.1693440    -0.8801020
  H       -3.9004974    -0.1690377    -0.0063962
  H       -3.1511970     1.1523310     0.8973960
  H        1.3824760     2.9891980    -0.0128990
  H        3.6364610    -0.8630510    -0.2195510
  H        2.4794860    -2.1327440    -0.2212610
units angstrom
no_reorient  #important for SAPT in psi4, default
symmetry c1  #important for SAPT in psi4, default
}

set PROPERTIES_ORIGIN ["COM"]
properties('MP2/aug-cc-pvtz', properties = ['dipole'])
--------------------------------------------------------------------------

    Molecular point group: c1
  Charge       = 0
  Multiplicity = 1
  Basis Set: AUG-CC-PVTZ
    Blend: AUG-CC-PVTZ
  Basis Set: (AUG-CC-PVTZ AUX)
    Blend: AUG-CC-PVTZ-JKFIT

    Orbital Energies [Eh]
    ---------------------

    Doubly Occupied:

       1A    -15.632369     2A    -15.580773     3A    -15.576330
       4A    -15.555644     5A    -15.549072     6A    -11.334192
       7A    -11.325076     8A    -11.310981     9A    -11.309913
      10A    -11.288153    11A    -11.249419    12A     -1.369983
      13A     -1.293345    14A     -1.243143    15A     -1.200351
      16A     -1.148994    17A     -1.034165    18A     -0.984580
      19A     -0.886982    20A     -0.869500    21A     -0.806257
      22A     -0.755058    23A     -0.726503    24A     -0.676429
      25A     -0.671610    26A     -0.667710    27A     -0.628372
      28A     -0.598136    29A     -0.594853    30A     -0.590650
      31A     -0.580464    32A     -0.534616    33A     -0.494974
      34A     -0.489916    35A     -0.452209    36A     -0.419132
      37A     -0.407994    38A     -0.360732    39A     -0.309836

  @DF-RHF Final Energy:  -503.71789719277285

   => Energetics <=

    Nuclear Repulsion Energy =            594.7948487560486228
    One-Electron Energy =               -1864.0086587363844046
    Two-Electron Energy =                 765.4959127875629292
    Total Energy =                       -503.7178971927728526
  Basis Set: (AUG-CC-PVTZ AUX)
    Blend: AUG-CC-PVTZ-RI
    Molecular point group: c1

    Geometry (in Angstrom), charge = 0, multiplicity = 1:

       Center              X                  Y                   Z               Mass
    ------------   -----------------  -----------------  -----------------  -----------------
         N           -1.791286154995    -0.101479552844    -0.002460594915    14.003074004430
         N           -0.307910854995    -1.857099852844    -0.011330094915    14.003074004430
         N           -0.303879854995     1.742347147156    -0.002054094915    14.003074004430
         N            2.016647145005     1.028740147156    -0.010982094915    14.003074004430
         N            2.690230145005    -1.204158852844     0.075511905085    14.003074004430
         C           -0.585362854995     0.428462147156     0.001692905085    12.000000000000
         C            0.330041145005    -0.633197852844     0.005102905085    12.000000000000
         C           -1.593517854995    -1.523185852844    -0.009415094915    12.000000000000
         C            1.689178145005    -0.272757852844    -0.001620094915    12.000000000000
         C           -3.102054854995     0.525410147156    -0.000242094915    12.000000000000
         C            1.021296145005     1.943184147156    -0.012250094915    12.000000000000
         H           -2.415221854995    -2.231023852844    -0.015765094915     1.007825032230
         H           -3.182083854995     1.161900147156    -0.883210094915     1.007825032230
         H           -3.937084254995    -0.176481552844    -0.009504294915     1.007825032230
         H           -3.187783854995     1.144887147156     0.894287905085     1.007825032230
         H            1.345889145005     2.981754147156    -0.016007094915     1.007825032230
         H            3.599874145005    -0.870494852844    -0.222659094915     1.007825032230
         H            2.442899145005    -2.140187852844    -0.224369094915     1.007825032230

  Basis Set: AUG-CC-PVTZ
    Blend: AUG-CC-PVTZ
  Basis Set: (AUG-CC-PVTZ AUX)
    Blend: AUG-CC-PVTZ-JKFIT
	 Reference Energy          =    -503.7178971927728526 [Eh]
	 Singles Energy            =      -0.0000000000000000 [Eh]
	 Same-Spin Energy          =      -0.5489481903423602 [Eh]
	 Opposite-Spin Energy      =      -1.6332460960674839 [Eh]
	 Correlation Energy        =      -2.1821942864098443 [Eh]
	 Total Energy              =    -505.9000914791827199 [Eh]

	 ================> DF-SCS-MP2 Energies <==================
	-----------------------------------------------------------
	 SCS Same-Spin Scale       =       0.3333333333333333 [-]
	 SCS Opposite-Spin Scale   =       1.2000000000000000 [-]
	 SCS Same-Spin Energy      =      -0.1829827301141201 [Eh]
	 SCS Opposite-Spin Energy  =      -1.9598953152809806 [Eh]
	 SCS Correlation Energy    =      -2.1428780453951006 [Eh]
	 SCS Total Energy          =    -505.8607752381679461 [Eh]
	-----------------------------------------------------------

  Dipole Moment: [D]
     X:    -2.8436      Y:    -1.3349      Z:    -0.7898     Total:     3.2391

*** Psi4 exiting successfully. Buy a developer a beer!
