                               Psi4 1.3.2 release

  ==> Input File <==

--------------------------------------------------------------------------
#psi4
#
memory 32 gb

molecule  {
0 1
  N       -1.7676897    -0.2047031    -0.0000330
  N       -0.2713240    -1.8496560    -0.0082220
  N       -0.2672930     1.7497910     0.0010540
  N        2.0532340     1.0361840    -0.0078740
  N        2.7268170    -1.1967150     0.0786200
  C       -0.5487760     0.4359060     0.0048010
  C        0.3290193    -0.6570546     0.0080602
  C       -1.5569310    -1.5157420    -0.0063070
  C        1.7257650    -0.2653140     0.0014880
  C       -3.0654680     0.5328540     0.0028660
  C        1.0578830     1.9506280    -0.0091420
  H       -2.3786350    -2.2235800    -0.0126570
  H       -3.1454970     1.1693440    -0.8801020
  H       -3.8626160    -0.2117770    -0.0066990
  H       -3.1511970     1.1523310     0.8973960
  H        1.3824760     2.9891980    -0.0128990
  H        3.6364610    -0.8630510    -0.2195510
  H        2.4794860    -2.1327440    -0.2212610
units angstrom
no_reorient  #important for SAPT in psi4, default
symmetry c1  #important for SAPT in psi4, default
}

set PROPERTIES_ORIGIN ["COM"]
properties('MP2/aug-cc-pvtz', properties = ['dipole'])
--------------------------------------------------------------------------

    Molecular point group: c1
  Charge       = 0
  Multiplicity = 1
  Basis Set: AUG-CC-PVTZ
    Blend: AUG-CC-PVTZ
  Basis Set: (AUG-CC-PVTZ AUX)
    Blend: AUG-CC-PVTZ-JKFIT

    Orbital Energies [Eh]
    ---------------------

    Doubly Occupied:

       1A    -15.634734     2A    -15.581815     3A    -15.561084
       4A    -15.559419     5A    -15.552517     6A    -11.338118
       7A    -11.315346     8A    -11.310703     9A    -11.305979
      10A    -11.292908    11A    -11.252434    12A     -1.379060
      13A     -1.295574    14A     -1.242465    15A     -1.198844
      16A     -1.151608    17A     -1.027646    18A     -0.987070
      19A     -0.892996    20A     -0.869347    21A     -0.800733
      22A     -0.753061    23A     -0.729165    24A     -0.681749
      25A     -0.673901    26A     -0.667167    27A     -0.621659
      28A     -0.603893    29A     -0.595231    30A     -0.589212
      31A     -0.565820    32A     -0.542199    33A     -0.495606
      34A     -0.491653    35A     -0.455334    36A     -0.415793
      37A     -0.405694    38A     -0.372212    39A     -0.299303

  @DF-RHF Final Energy:  -503.71803194384097

   => Energetics <=

    Nuclear Repulsion Energy =            594.8285249038779057
    One-Electron Energy =               -1864.0750115860384994
    Two-Electron Energy =                 765.5284547383196241
    Total Energy =                       -503.7180319438409697
  Basis Set: (AUG-CC-PVTZ AUX)
    Blend: AUG-CC-PVTZ-RI
    Molecular point group: c1

    Geometry (in Angstrom), charge = 0, multiplicity = 1:

       Center              X                  Y                   Z               Mass
    ------------   -----------------  -----------------  -----------------  -----------------
         N           -1.800284930056    -0.198942667538    -0.003062984967    14.003074004430
         N           -0.303919230056    -1.843895567538    -0.011251984967    14.003074004430
         N           -0.299888230056     1.755551432462    -0.001975984967    14.003074004430
         N            2.020638769944     1.041944432462    -0.010903984967    14.003074004430
         N            2.694221769944    -1.190954567538     0.075590015033    14.003074004430
         C           -0.581371230056     0.441666432462     0.001771015033    12.000000000000
         C            0.296424069944    -0.651294167538     0.005030215033    12.000000000000
         C           -1.589526230056    -1.509981567538    -0.009336984967    12.000000000000
         C            1.693169769944    -0.259553567538    -0.001541984967    12.000000000000
         C           -3.098063230056     0.538614432462    -0.000163984967    12.000000000000
         C            1.025287769944     1.956388432462    -0.012171984967    12.000000000000
         H           -2.411230230056    -2.217819567538    -0.015686984967     1.007825032230
         H           -3.178092230056     1.175104432462    -0.883131984967     1.007825032230
         H           -3.895211230056    -0.206016567538    -0.009728984967     1.007825032230
         H           -3.183792230056     1.158091432462     0.894366015033     1.007825032230
         H            1.349880769944     2.994958432462    -0.015928984967     1.007825032230
         H            3.603865769944    -0.857290567538    -0.222580984967     1.007825032230
         H            2.446890769944    -2.126983567538    -0.224290984967     1.007825032230

  Basis Set: AUG-CC-PVTZ
    Blend: AUG-CC-PVTZ
  Basis Set: (AUG-CC-PVTZ AUX)
    Blend: AUG-CC-PVTZ-JKFIT
	 Reference Energy          =    -503.7180319438409697 [Eh]
	 Singles Energy            =      -0.0000000000000000 [Eh]
	 Same-Spin Energy          =      -0.5500061623792841 [Eh]
	 Opposite-Spin Energy      =      -1.6331982131792553 [Eh]
	 Correlation Energy        =      -2.1832043755585393 [Eh]
	 Total Energy              =    -505.9012363193995157 [Eh]

	 ================> DF-SCS-MP2 Energies <==================
	-----------------------------------------------------------
	 SCS Same-Spin Scale       =       0.3333333333333333 [-]
	 SCS Opposite-Spin Scale   =       1.2000000000000000 [-]
	 SCS Same-Spin Energy      =      -0.1833353874597614 [Eh]
	 SCS Opposite-Spin Energy  =      -1.9598378558151062 [Eh]
	 SCS Correlation Energy    =      -2.1431732432748674 [Eh]
	 SCS Total Energy          =    -505.8612051871158428 [Eh]
	-----------------------------------------------------------

  Dipole Moment: [D]
     X:    -2.8281      Y:    -1.1306      Z:    -0.7853     Total:     3.1453

*** Psi4 exiting successfully. Buy a developer a beer!
