                               Psi4 1.4a3.dev225

  ==> Input File <==

--------------------------------------------------------------------------
#psi4
#
memory 32 gb

molecule  {
0 1
  N       -1.7889380    -0.1640290    -0.0179520
  N       -0.2703210    -1.8482040    -0.0023970
  N       -0.2671710     1.7490810    -0.0033560
  N        2.0541740     1.0368940    -0.0085470
  N        2.7206340    -1.1973270     0.0732090
  C       -0.5486140     0.4351420     0.0045870
  C        0.3650590    -0.6247560     0.0169900
  C       -1.5569260    -1.5161270    -0.0162740
  C        1.7266360    -0.2641570     0.0048060
  C       -3.0641060     0.5324820     0.0177850
  C        1.0564750     1.9508360    -0.0110870
  H       -2.3762040    -2.2259510    -0.0342240
  H       -2.9284720     1.5041700    -0.4579320
  H       -3.8067760    -0.0485880    -0.5312030
  H       -3.3972360     0.6796990     1.0480130
  H        1.3961390     3.0368687    -0.0233456
  H        3.6427950    -0.8729100    -0.1905990
  H        2.4748820    -2.1409930    -0.1987870
units angstrom
no_reorient  #important for SAPT in psi4, default
symmetry c1  #important for SAPT in psi4, default
}

set PROPERTIES_ORIGIN ["COM"]
properties('MP2/aug-cc-pvtz', properties = ['dipole'])
--------------------------------------------------------------------------

    Molecular point group: c1
  Charge       = 0
  Multiplicity = 1
  Basis Set: AUG-CC-PVTZ
    Blend: AUG-CC-PVTZ
  Basis Set: (AUG-CC-PVTZ AUX)
    Blend: AUG-CC-PVTZ-JKFIT

    Orbital Energies [Eh]
    ---------------------

    Doubly Occupied:

       1A    -15.632288     2A    -15.581628     3A    -15.567443
       4A    -15.560355     5A    -15.552083     6A    -11.335230
       7A    -11.320996     8A    -11.317006     9A    -11.312880
      10A    -11.287146    11A    -11.250906    12A     -1.367819
      13A     -1.296242    14A     -1.242942    15A     -1.196683
      16A     -1.152127    17A     -1.030097    18A     -0.985392
      19A     -0.889571    20A     -0.869345    21A     -0.802676
      22A     -0.754021    23A     -0.722055    24A     -0.681021
      25A     -0.673261    26A     -0.666360    27A     -0.624051
      28A     -0.606026    29A     -0.594463    30A     -0.589238
      31A     -0.570223    32A     -0.536925    33A     -0.495827
      34A     -0.489569    35A     -0.449597    36A     -0.414335
      37A     -0.408353    38A     -0.367827    39A     -0.307030

  @DF-RHF Final Energy:  -503.72246987995999

   => Energetics <=

    Nuclear Repulsion Energy =            594.3321523866870848
    One-Electron Energy =               -1863.1071731420629476
    Two-Electron Energy =                 765.0525508754158182
    Total Energy =                       -503.7224698799600446
  Basis Set: (AUG-CC-PVTZ AUX)
    Blend: AUG-CC-PVTZ-RI
    Molecular point group: c1

    Geometry (in Angstrom), charge = 0, multiplicity = 1:

       Center              X                  Y                   Z               Mass
    ------------   -----------------  -----------------  -----------------  -----------------
         N           -1.822433300364    -0.165111133577    -0.020528596284    14.003074004430
         N           -0.303816300364    -1.849286133577    -0.004973596284    14.003074004430
         N           -0.300666300364     1.747998866423    -0.005932596284    14.003074004430
         N            2.020678699636     1.035811866423    -0.011123596284    14.003074004430
         N            2.687138699636    -1.198409133577     0.070632403716    14.003074004430
         C           -0.582109300364     0.434059866423     0.002010403716    12.000000000000
         C            0.331563699636    -0.625838133577     0.014413403716    12.000000000000
         C           -1.590421300364    -1.517209133577    -0.018850596284    12.000000000000
         C            1.693140699636    -0.265239133577     0.002229403716    12.000000000000
         C           -3.097601300364     0.531399866423     0.015208403716    12.000000000000
         C            1.022979699636     1.949753866423    -0.013663596284    12.000000000000
         H           -2.409699300364    -2.227033133577    -0.036800596284     1.007825032230
         H           -2.961967300364     1.503087866423    -0.460508596284     1.007825032230
         H           -3.840271300364    -0.049670133577    -0.533779596284     1.007825032230
         H           -3.430731300364     0.678616866423     1.045436403716     1.007825032230
         H            1.362643699636     3.035786566423    -0.025922196284     1.007825032230
         H            3.609299699636    -0.873992133577    -0.193175596284     1.007825032230
         H            2.441386699636    -2.142075133577    -0.201363596284     1.007825032230

  Basis Set: AUG-CC-PVTZ
    Blend: AUG-CC-PVTZ
  Basis Set: (AUG-CC-PVTZ AUX)
    Blend: AUG-CC-PVTZ-JKFIT
	 Reference Energy          =    -503.7224698799599878 [Eh]
	 Singles Energy            =      -0.0000000000000000 [Eh]
	 Same-Spin Energy          =      -0.5494584355087739 [Eh]
	 Opposite-Spin Energy      =      -1.6333288519754248 [Eh]
	 Correlation Energy        =      -2.1827872874841985 [Eh]
	 Total Energy              =    -505.9052571674441765 [Eh]

	 ================> DF-SCS-MP2 Energies <==================
	-----------------------------------------------------------
	 SCS Same-Spin Scale       =       0.3333333333333333 [-]
	 SCS Opposite-Spin Scale   =       1.2000000000000000 [-]
	 SCS Same-Spin Energy      =      -0.1831528118362580 [Eh]
	 SCS Opposite-Spin Energy  =      -1.9599946223705096 [Eh]
	 SCS Correlation Energy    =      -2.1431474342067673 [Eh]
	 SCS Total Energy          =    -505.8656173141667409 [Eh]
	-----------------------------------------------------------

  Dipole Moment: [D]
     X:    -2.6435      Y:    -1.2259      Z:    -0.7126     Total:     2.9998

*** Psi4 exiting successfully. Buy a developer a beer!
