                               Psi4 1.3.2 release

  ==> Input File <==

--------------------------------------------------------------------------
#psi4
#
memory 32 gb

molecule  {
0 1
  N       -1.7893040    -0.1617730    -0.0001110
  N       -0.2604536    -1.8045871    -0.0078445
  N       -0.2672930     1.7497910     0.0010540
  N        2.0532340     1.0361840    -0.0078740
  N        2.7268170    -1.1967150     0.0786200
  C       -0.5487760     0.4359060     0.0048010
  C        0.3666280    -0.6257540     0.0082110
  C       -1.5569310    -1.5157420    -0.0063070
  C        1.7257650    -0.2653140     0.0014880
  C       -3.0654680     0.5328540     0.0028660
  C        1.0578830     1.9506280    -0.0091420
  H       -2.4028386    -2.1944726    -0.0124333
  H       -3.1454970     1.1693440    -0.8801020
  H       -3.8626160    -0.2117770    -0.0066990
  H       -3.1511970     1.1523310     0.8973960
  H        1.3824760     2.9891980    -0.0128990
  H        3.6364610    -0.8630510    -0.2195510
  H        2.4794860    -2.1327440    -0.2212610
units angstrom
no_reorient  #important for SAPT in psi4, default
symmetry c1  #important for SAPT in psi4, default
}

set PROPERTIES_ORIGIN ["COM"]
properties('MP2/aug-cc-pvtz', properties = ['dipole'])
--------------------------------------------------------------------------

    Molecular point group: c1
  Charge       = 0
  Multiplicity = 1
  Basis Set: AUG-CC-PVTZ
    Blend: AUG-CC-PVTZ
  Basis Set: (AUG-CC-PVTZ AUX)
    Blend: AUG-CC-PVTZ-JKFIT

    Orbital Energies [Eh]
    ---------------------

    Doubly Occupied:

       1A    -15.632479     2A    -15.581279     3A    -15.562750
       4A    -15.559484     5A    -15.551990     6A    -11.334282
       7A    -11.321235     8A    -11.310257     9A    -11.309670
      10A    -11.288266    11A    -11.249069    12A     -1.371610
      13A     -1.295885    14A     -1.243548    15A     -1.201677
      16A     -1.151482    17A     -1.029504    18A     -0.987739
      19A     -0.893075    20A     -0.870571    21A     -0.803815
      22A     -0.753674    23A     -0.726690    24A     -0.679399
      25A     -0.676391    26A     -0.666754    27A     -0.628864
      28A     -0.607022    29A     -0.598623    30A     -0.592742
      31A     -0.571685    32A     -0.537307    33A     -0.495859
      34A     -0.489501    35A     -0.450579    36A     -0.416036
      37A     -0.406133    38A     -0.368711    39A     -0.303414

  @DF-RHF Final Energy:  -503.72324988195203

   => Energetics <=

    Nuclear Repulsion Energy =            595.6712395012908701
    One-Electron Energy =               -1865.7508776138611211
    Two-Electron Energy =                 766.3563882306181085
    Total Energy =                       -503.7232498819520288
  Basis Set: (AUG-CC-PVTZ AUX)
    Blend: AUG-CC-PVTZ-RI
    Molecular point group: c1

    Geometry (in Angstrom), charge = 0, multiplicity = 1:

       Center              X                  Y                   Z               Mass
    ------------   -----------------  -----------------  -----------------  -----------------
         N           -1.823753818571    -0.166995309072    -0.003182770471    14.003074004430
         N           -0.294903418571    -1.809809409072    -0.010916270471    14.003074004430
         N           -0.301742818571     1.744568690928    -0.002017770471    14.003074004430
         N            2.018784181429     1.030961690928    -0.010945770471    14.003074004430
         N            2.692367181429    -1.201937309072     0.075548229529    14.003074004430
         C           -0.583225818571     0.430683690928     0.001729229529    12.000000000000
         C            0.332178181429    -0.630976309072     0.005139229529    12.000000000000
         C           -1.591380818571    -1.520964309072    -0.009378770471    12.000000000000
         C            1.691315181429    -0.270536309072    -0.001583770471    12.000000000000
         C           -3.099917818571     0.527631690928    -0.000205770471    12.000000000000
         C            1.023433181429     1.945405690928    -0.012213770471    12.000000000000
         H           -2.437288418571    -2.199694909072    -0.015505070471     1.007825032230
         H           -3.179946818571     1.164121690928    -0.883173770471     1.007825032230
         H           -3.897065818571    -0.216999309072    -0.009770770471     1.007825032230
         H           -3.185646818571     1.147108690928     0.894324229529     1.007825032230
         H            1.348026181429     2.983975690928    -0.015970770471     1.007825032230
         H            3.602011181429    -0.868273309072    -0.222622770471     1.007825032230
         H            2.445036181429    -2.137966309072    -0.224332770471     1.007825032230

  Basis Set: AUG-CC-PVTZ
    Blend: AUG-CC-PVTZ
  Basis Set: (AUG-CC-PVTZ AUX)
    Blend: AUG-CC-PVTZ-JKFIT
	 Reference Energy          =    -503.7232498819520288 [Eh]
	 Singles Energy            =      -0.0000000000000000 [Eh]
	 Same-Spin Energy          =      -0.5499200466859459 [Eh]
	 Opposite-Spin Energy      =      -1.6330788031320140 [Eh]
	 Correlation Energy        =      -2.1829988498179600 [Eh]
	 Total Energy              =    -505.9062487317700061 [Eh]

	 ================> DF-SCS-MP2 Energies <==================
	-----------------------------------------------------------
	 SCS Same-Spin Scale       =       0.3333333333333333 [-]
	 SCS Opposite-Spin Scale   =       1.2000000000000000 [-]
	 SCS Same-Spin Energy      =      -0.1833066822286486 [Eh]
	 SCS Opposite-Spin Energy  =      -1.9596945637584167 [Eh]
	 SCS Correlation Energy    =      -2.1430012459870653 [Eh]
	 SCS Total Energy          =    -505.8662511279391083 [Eh]
	-----------------------------------------------------------

  Dipole Moment: [D]
     X:    -2.7812      Y:    -1.2450      Z:    -0.7888     Total:     3.1476

*** Psi4 exiting successfully. Buy a developer a beer!
