                               Psi4 1.3.2 release

  ==> Input File <==

--------------------------------------------------------------------------
#psi4
#
memory 32 gb

molecule  {
0 1
  N       -1.7893040    -0.1617730    -0.0001110
  N       -0.2713240    -1.8496560    -0.0082220
  N       -0.2672930     1.7497910     0.0010540
  N        2.0532340     1.0361840    -0.0078740
  N        2.7268170    -1.1967150     0.0786200
  C       -0.5487760     0.4359060     0.0048010
  C        0.3666280    -0.6257540     0.0082110
  C       -1.5569310    -1.5157420    -0.0063070
  C        1.7257650    -0.2653140     0.0014880
  C       -3.0654680     0.5328540     0.0028660
  C        1.0578830     1.9506280    -0.0091420
  H       -2.3786350    -2.2235800    -0.0126570
  H       -3.1454970     1.1693440    -0.8801020
  H       -3.8559230    -0.2184865    -0.0232119
  H       -3.1358624     1.1621756     0.8918452
  H        1.3824760     2.9891980    -0.0128990
  H        3.6364610    -0.8630510    -0.2195510
  H        2.4794860    -2.1327440    -0.2212610
units angstrom
no_reorient  #important for SAPT in psi4, default
symmetry c1  #important for SAPT in psi4, default
}

set PROPERTIES_ORIGIN ["COM"]
properties('MP2/aug-cc-pvtz', properties = ['dipole'])
--------------------------------------------------------------------------

    Molecular point group: c1
  Charge       = 0
  Multiplicity = 1
  Basis Set: AUG-CC-PVTZ
    Blend: AUG-CC-PVTZ
  Basis Set: (AUG-CC-PVTZ AUX)
    Blend: AUG-CC-PVTZ-JKFIT

    Orbital Energies [Eh]
    ---------------------

    Doubly Occupied:

       1A    -15.632840     2A    -15.580997     3A    -15.567282
       4A    -15.560735     5A    -15.552388     6A    -11.334515
       7A    -11.322476     8A    -11.312918     9A    -11.311606
      10A    -11.288796    11A    -11.251847    12A     -1.367755
      13A     -1.296180    14A     -1.242263    15A     -1.196880
      16A     -1.151914    17A     -1.031363    18A     -0.986068
      19A     -0.890772    20A     -0.872124    21A     -0.802576
      22A     -0.753272    23A     -0.724132    24A     -0.680299
      25A     -0.673351    26A     -0.666304    27A     -0.624628
      28A     -0.607055    29A     -0.596302    30A     -0.592018
      31A     -0.572193    32A     -0.536480    33A     -0.495588
      34A     -0.492677    35A     -0.450506    36A     -0.414034
      37A     -0.408583    38A     -0.368329    39A     -0.307756

  @DF-RHF Final Energy:  -503.72471604626037

   => Energetics <=

    Nuclear Repulsion Energy =            594.3733638450627268
    One-Electron Energy =               -1863.1605537205664405
    Two-Electron Energy =                 765.0624738292434586
    Total Energy =                       -503.7247160462603688
  Basis Set: (AUG-CC-PVTZ AUX)
    Blend: AUG-CC-PVTZ-RI
    Molecular point group: c1

    Geometry (in Angstrom), charge = 0, multiplicity = 1:

       Center              X                  Y                   Z               Mass
    ------------   -----------------  -----------------  -----------------  -----------------
         N           -1.823045252447    -0.162586118520    -0.002996630181    14.003074004430
         N           -0.305065252447    -1.850469118520    -0.011107630181    14.003074004430
         N           -0.301034252447     1.748977881480    -0.001831630181    14.003074004430
         N            2.019492747553     1.035370881480    -0.010759630181    14.003074004430
         N            2.693075747553    -1.197528118520     0.075734369819    14.003074004430
         C           -0.582517252447     0.435092881480     0.001915369819    12.000000000000
         C            0.332886747553    -0.626567118520     0.005325369819    12.000000000000
         C           -1.590672252447    -1.516555118520    -0.009192630181    12.000000000000
         C            1.692023747553    -0.266127118520    -0.001397630181    12.000000000000
         C           -3.099209252447     0.532040881480    -0.000019630181    12.000000000000
         C            1.024141747553     1.949814881480    -0.012027630181    12.000000000000
         H           -2.412376252447    -2.224393118520    -0.015542630181     1.007825032230
         H           -3.179238252447     1.168530881480    -0.882987630181     1.007825032230
         H           -3.889664252447    -0.219299618520    -0.026097530181     1.007825032230
         H           -3.169603652447     1.161362481480     0.888959569819     1.007825032230
         H            1.348734747553     2.988384881480    -0.015784630181     1.007825032230
         H            3.602719747553    -0.863864118520    -0.222436630181     1.007825032230
         H            2.445744747553    -2.133557118520    -0.224146630181     1.007825032230

  Basis Set: AUG-CC-PVTZ
    Blend: AUG-CC-PVTZ
  Basis Set: (AUG-CC-PVTZ AUX)
    Blend: AUG-CC-PVTZ-JKFIT
	 Reference Energy          =    -503.7247160462603688 [Eh]
	 Singles Energy            =      -0.0000000000000000 [Eh]
	 Same-Spin Energy          =      -0.5492984605525760 [Eh]
	 Opposite-Spin Energy      =      -1.6331673130351514 [Eh]
	 Correlation Energy        =      -2.1824657735877273 [Eh]
	 Total Energy              =    -505.9071818198481196 [Eh]

	 ================> DF-SCS-MP2 Energies <==================
	-----------------------------------------------------------
	 SCS Same-Spin Scale       =       0.3333333333333333 [-]
	 SCS Opposite-Spin Scale   =       1.2000000000000000 [-]
	 SCS Same-Spin Energy      =      -0.1830994868508587 [Eh]
	 SCS Opposite-Spin Energy  =      -1.9598007756421816 [Eh]
	 SCS Correlation Energy    =      -2.1429002624930402 [Eh]
	 SCS Total Energy          =    -505.8676163087533837 [Eh]
	-----------------------------------------------------------

  Dipole Moment: [D]
     X:    -2.7282      Y:    -1.1536      Z:    -0.8002     Total:     3.0683

*** Psi4 exiting successfully. Buy a developer a beer!
