                               Psi4 1.3.2 release

  ==> Input File <==

--------------------------------------------------------------------------
#psi4
#
memory 32 gb

molecule  {
0 1
  N       -1.7893040    -0.1617730    -0.0001110
  N       -0.2713240    -1.8496560    -0.0082220
  N       -0.2672930     1.7497910     0.0010540
  N        2.0304694     1.0417013    -0.0078350
  N        2.7268170    -1.1967150     0.0786200
  C       -0.5487760     0.4359060     0.0048010
  C        0.3605439    -0.6019791     0.0080793
  C       -1.5569310    -1.5157420    -0.0063070
  C        1.7257650    -0.2653140     0.0014880
  C       -3.0654680     0.5328540     0.0028660
  C        1.0578830     1.9506280    -0.0091420
  H       -2.3786350    -2.2235800    -0.0126570
  H       -3.1454970     1.1693440    -0.8801020
  H       -3.8626160    -0.2117770    -0.0066990
  H       -3.1511970     1.1523310     0.8973960
  H        1.3824760     2.9891980    -0.0128990
  H        3.6364610    -0.8630510    -0.2195510
  H        2.4794860    -2.1327440    -0.2212610
units angstrom
no_reorient  #important for SAPT in psi4, default
symmetry c1  #important for SAPT in psi4, default
}

set PROPERTIES_ORIGIN ["COM"]
properties('MP2/aug-cc-pvtz', properties = ['dipole'])
--------------------------------------------------------------------------

    Molecular point group: c1
  Charge       = 0
  Multiplicity = 1
  Basis Set: AUG-CC-PVTZ
    Blend: AUG-CC-PVTZ
  Basis Set: (AUG-CC-PVTZ AUX)
    Blend: AUG-CC-PVTZ-JKFIT

    Orbital Energies [Eh]
    ---------------------

    Doubly Occupied:

       1A    -15.630976     2A    -15.583779     3A    -15.566766
       4A    -15.558078     5A    -15.549751     6A    -11.336178
       7A    -11.322462     8A    -11.310508     9A    -11.308484
      10A    -11.287778    11A    -11.249918    12A     -1.367243
      13A     -1.298963    14A     -1.241629    15A     -1.193704
      16A     -1.154031    17A     -1.034671    18A     -0.984434
      19A     -0.892913    20A     -0.870021    21A     -0.805395
      22A     -0.754771    23A     -0.722308    24A     -0.680968
      25A     -0.674393    26A     -0.666019    27A     -0.625277
      28A     -0.609119    29A     -0.596406    30A     -0.591979
      31A     -0.571907    32A     -0.537207    33A     -0.495520
      34A     -0.491117    35A     -0.447030    36A     -0.412762
      37A     -0.407626    38A     -0.369071    39A     -0.310574

  @DF-RHF Final Energy:  -503.72553684466232

   => Energetics <=

    Nuclear Repulsion Energy =            595.0455826391248593
    One-Electron Energy =               -1864.5187636593545903
    Two-Electron Energy =                 765.7476441755674159
    Total Energy =                       -503.7255368446623152
  Basis Set: (AUG-CC-PVTZ AUX)
    Blend: AUG-CC-PVTZ-RI
    Molecular point group: c1

    Geometry (in Angstrom), charge = 0, multiplicity = 1:

       Center              X                  Y                   Z               Mass
    ------------   -----------------  -----------------  -----------------  -----------------
         N           -1.820268146780    -0.164997052831    -0.003138858989    14.003074004430
         N           -0.302288146780    -1.852880052831    -0.011249858989    14.003074004430
         N           -0.298257146780     1.746566947169    -0.001973858989    14.003074004430
         N            1.999505253220     1.038477247169    -0.010862858989    14.003074004430
         N            2.695852853220    -1.199939052831     0.075592141011    14.003074004430
         C           -0.579740146780     0.432681947169     0.001773141011    12.000000000000
         C            0.329579753220    -0.605203152831     0.005051441011    12.000000000000
         C           -1.587895146780    -1.518966052831    -0.009334858989    12.000000000000
         C            1.694800853220    -0.268538052831    -0.001539858989    12.000000000000
         C           -3.096432146780     0.529629947169    -0.000161858989    12.000000000000
         C            1.026918853220     1.947403947169    -0.012169858989    12.000000000000
         H           -2.409599146780    -2.226804052831    -0.015684858989     1.007825032230
         H           -3.176461146780     1.166119947169    -0.883129858989     1.007825032230
         H           -3.893580146780    -0.215001052831    -0.009726858989     1.007825032230
         H           -3.182161146780     1.149106947169     0.894368141011     1.007825032230
         H            1.351511853220     2.985973947169    -0.015926858989     1.007825032230
         H            3.605496853220    -0.866275052831    -0.222578858989     1.007825032230
         H            2.448521853220    -2.135968052831    -0.224288858989     1.007825032230

  Basis Set: AUG-CC-PVTZ
    Blend: AUG-CC-PVTZ
  Basis Set: (AUG-CC-PVTZ AUX)
    Blend: AUG-CC-PVTZ-JKFIT
	 Reference Energy          =    -503.7255368446623152 [Eh]
	 Singles Energy            =      -0.0000000000000000 [Eh]
	 Same-Spin Energy          =      -0.5487390082300205 [Eh]
	 Opposite-Spin Energy      =      -1.6322754338155518 [Eh]
	 Correlation Energy        =      -2.1810144420455724 [Eh]
	 Total Energy              =    -505.9065512867078951 [Eh]

	 ================> DF-SCS-MP2 Energies <==================
	-----------------------------------------------------------
	 SCS Same-Spin Scale       =       0.3333333333333333 [-]
	 SCS Opposite-Spin Scale   =       1.2000000000000000 [-]
	 SCS Same-Spin Energy      =      -0.1829130027433402 [Eh]
	 SCS Opposite-Spin Energy  =      -1.9587305205786620 [Eh]
	 SCS Correlation Energy    =      -2.1416435233220024 [Eh]
	 SCS Total Energy          =    -505.8671803679843038 [Eh]
	-----------------------------------------------------------

  Dipole Moment: [D]
     X:    -2.5944      Y:    -1.1804      Z:    -0.7892     Total:     2.9576

*** Psi4 exiting successfully. Buy a developer a beer!
