                               Psi4 1.3.2 release

  ==> Input File <==

--------------------------------------------------------------------------
#psi4
#
memory 32 gb

molecule  {
0 1
  N       -1.7893040    -0.1617730    -0.0001110
  N       -0.2713240    -1.8496560    -0.0082220
  N       -0.2672930     1.7497910     0.0010540
  N        2.0532340     1.0361840    -0.0078740
  N        2.7268170    -1.1967150     0.0786200
  C       -0.5487760     0.4359060     0.0048010
  C        0.3666280    -0.6257540     0.0082110
  C       -1.6281115    -1.5260477    -0.0063669
  C        1.7257650    -0.2653140     0.0014880
  C       -3.1000734     0.4651135     0.0025479
  C        1.0578830     1.9506280    -0.0091420
  H       -2.3786350    -2.2235800    -0.0126570
  H       -3.1454970     1.1693440    -0.8801020
  H       -3.8626160    -0.2117770    -0.0066990
  H       -3.1511970     1.1523310     0.8973960
  H        1.3824760     2.9891980    -0.0128990
  H        3.6364610    -0.8630510    -0.2195510
  H        2.4794860    -2.1327440    -0.2212610
units angstrom
no_reorient  #important for SAPT in psi4, default
symmetry c1  #important for SAPT in psi4, default
}

set PROPERTIES_ORIGIN ["COM"]
properties('MP2/aug-cc-pvtz', properties = ['dipole'])
--------------------------------------------------------------------------

    Molecular point group: c1
  Charge       = 0
  Multiplicity = 1
  Basis Set: AUG-CC-PVTZ
    Blend: AUG-CC-PVTZ
  Basis Set: (AUG-CC-PVTZ AUX)
    Blend: AUG-CC-PVTZ-JKFIT

    Orbital Energies [Eh]
    ---------------------

    Doubly Occupied:

       1A    -15.639180     2A    -15.581722     3A    -15.569883
       4A    -15.561782     5A    -15.553565     6A    -11.336031
       7A    -11.323471     8A    -11.314342     9A    -11.311722
      10A    -11.289024    11A    -11.253391    12A     -1.362001
      13A     -1.296503    14A     -1.240123    15A     -1.184109
      16A     -1.153172    17A     -1.030525    18A     -0.985884
      19A     -0.898898    20A     -0.868488    21A     -0.809566
      22A     -0.755838    23A     -0.727280    24A     -0.687771
      25A     -0.673271    26A     -0.659105    27A     -0.626054
      28A     -0.608330    29A     -0.602061    30A     -0.586136
      31A     -0.584862    32A     -0.526641    33A     -0.493792
      34A     -0.487917    35A     -0.448180    36A     -0.410905
      37A     -0.405578    38A     -0.369099    39A     -0.302282

  @DF-RHF Final Energy:  -503.70413473950293

   => Energetics <=

    Nuclear Repulsion Energy =            592.7715845487986144
    One-Electron Energy =               -1859.9144735738725558
    Two-Electron Energy =                 763.4387542855711217
    Total Energy =                       -503.7041347395029334
  Basis Set: (AUG-CC-PVTZ AUX)
    Blend: AUG-CC-PVTZ-RI
    Molecular point group: c1

    Geometry (in Angstrom), charge = 0, multiplicity = 1:

       Center              X                  Y                   Z               Mass
    ------------   -----------------  -----------------  -----------------  -----------------
         N           -1.814380668639    -0.156282280614    -0.003115368572    14.003074004430
         N           -0.296400668639    -1.844165280614    -0.011226368572    14.003074004430
         N           -0.292369668639     1.755281719386    -0.001950368572    14.003074004430
         N            2.028157331361     1.041674719386    -0.010878368572    14.003074004430
         N            2.701740331361    -1.191224280614     0.075615631428    14.003074004430
         C           -0.573852668639     0.441396719386     0.001796631428    12.000000000000
         C            0.341551331361    -0.620263280614     0.005206631428    12.000000000000
         C           -1.653188168639    -1.520556980614    -0.009371268572    12.000000000000
         C            1.700688331361    -0.259823280614    -0.001516368572    12.000000000000
         C           -3.125150068639     0.470604219386    -0.000456468572    12.000000000000
         C            1.032806331361     1.956118719386    -0.012146368572    12.000000000000
         H           -2.403711668639    -2.218089280614    -0.015661368572     1.007825032230
         H           -3.170573668639     1.174834719386    -0.883106368572     1.007825032230
         H           -3.887692668639    -0.206286280614    -0.009703368572     1.007825032230
         H           -3.176273668639     1.157821719386     0.894391631428     1.007825032230
         H            1.357399331361     2.994688719386    -0.015903368572     1.007825032230
         H            3.611384331361    -0.857560280614    -0.222555368572     1.007825032230
         H            2.454409331361    -2.127253280614    -0.224265368572     1.007825032230

  Basis Set: AUG-CC-PVTZ
    Blend: AUG-CC-PVTZ
  Basis Set: (AUG-CC-PVTZ AUX)
    Blend: AUG-CC-PVTZ-JKFIT
	 Reference Energy          =    -503.7041347395029334 [Eh]
	 Singles Energy            =      -0.0000000000000000 [Eh]
	 Same-Spin Energy          =      -0.5512469849921385 [Eh]
	 Opposite-Spin Energy      =      -1.6371224688509833 [Eh]
	 Correlation Energy        =      -2.1883694538431220 [Eh]
	 Total Energy              =    -505.8925041933460420 [Eh]

	 ================> DF-SCS-MP2 Energies <==================
	-----------------------------------------------------------
	 SCS Same-Spin Scale       =       0.3333333333333333 [-]
	 SCS Opposite-Spin Scale   =       1.2000000000000000 [-]
	 SCS Same-Spin Energy      =      -0.1837489949973795 [Eh]
	 SCS Opposite-Spin Energy  =      -1.9645469626211800 [Eh]
	 SCS Correlation Energy    =      -2.1482959576185596 [Eh]
	 SCS Total Energy          =    -505.8524306971215196 [Eh]
	-----------------------------------------------------------

  Dipole Moment: [D]
     X:    -2.7699      Y:    -1.1086      Z:    -0.7874     Total:     3.0857

*** Psi4 exiting successfully. Buy a developer a beer!
