                               Psi4 1.3.2 release

  ==> Input File <==

--------------------------------------------------------------------------
#psi4
#
memory 32 gb

molecule  {
0 1
  N       -1.7893040    -0.1617730    -0.0001110
  N       -0.2713240    -1.8496560    -0.0082220
  N       -0.2672930     1.7497910     0.0010540
  N        2.0532340     1.0361840    -0.0078740
  N        2.7268170    -1.1967150     0.0786200
  C       -0.5703910     0.4788354     0.0049744
  C        0.3666280    -0.6257540     0.0082110
  C       -1.6043258    -1.5230264    -0.0064192
  C        1.7257650    -0.2653140     0.0014880
  C       -3.0654680     0.5328540     0.0028660
  C        1.0578830     1.9506280    -0.0091420
  H       -2.3786350    -2.2235800    -0.0126570
  H       -3.1454970     1.1693440    -0.8801020
  H       -3.8626160    -0.2117770    -0.0066990
  H       -3.1511970     1.1523310     0.8973960
  H        1.3824760     2.9891980    -0.0128990
  H        3.6364610    -0.8630510    -0.2195510
  H        2.4794860    -2.1327440    -0.2212610
units angstrom
no_reorient  #important for SAPT in psi4, default
symmetry c1  #important for SAPT in psi4, default
}

set PROPERTIES_ORIGIN ["COM"]
properties('MP2/aug-cc-pvtz', properties = ['dipole'])
--------------------------------------------------------------------------

    Molecular point group: c1
  Charge       = 0
  Multiplicity = 1
  Basis Set: AUG-CC-PVTZ
    Blend: AUG-CC-PVTZ
  Basis Set: (AUG-CC-PVTZ AUX)
    Blend: AUG-CC-PVTZ-JKFIT

    Orbital Energies [Eh]
    ---------------------

    Doubly Occupied:

       1A    -15.637110     2A    -15.578719     3A    -15.570810
       4A    -15.560632     5A    -15.554822     6A    -11.332003
       7A    -11.324615     8A    -11.316447     9A    -11.313427
      10A    -11.287607    11A    -11.254732    12A     -1.362450
      13A     -1.297487    14A     -1.245553    15A     -1.187808
      16A     -1.156784    17A     -1.024827    18A     -0.984250
      19A     -0.896795    20A     -0.874873    21A     -0.800505
      22A     -0.753693    23A     -0.727558    24A     -0.684298
      25A     -0.674891    26A     -0.665790    27A     -0.625163
      28A     -0.606822    29A     -0.597320    30A     -0.591512
      31A     -0.570484    32A     -0.533343    33A     -0.498617
      34A     -0.491220    35A     -0.449452    36A     -0.412756
      37A     -0.406132    38A     -0.370465    39A     -0.297884

  @DF-RHF Final Energy:  -503.71342004263749

   => Energetics <=

    Nuclear Repulsion Energy =            593.0826593013514412
    One-Electron Energy =               -1860.5528524992537314
    Two-Electron Energy =                 763.7567731552647956
    Total Energy =                       -503.7134200426374946
  Basis Set: (AUG-CC-PVTZ AUX)
    Blend: AUG-CC-PVTZ-RI
    Molecular point group: c1

    Geometry (in Angstrom), charge = 0, multiplicity = 1:

       Center              X                  Y                   Z               Mass
    ------------   -----------------  -----------------  -----------------  -----------------
         N           -1.817341108500    -0.165434310336    -0.003150723740    14.003074004430
         N           -0.299361108500    -1.853317310336    -0.011261723740    14.003074004430
         N           -0.295330108500     1.746129689664    -0.001985723740    14.003074004430
         N            2.025196891500     1.032522689664    -0.010913723740    14.003074004430
         N            2.698779891500    -1.200376310336     0.075580276260    14.003074004430
         C           -0.598428108500     0.475174089664     0.001934676260    12.000000000000
         C            0.338590891500    -0.629415310336     0.005171276260    12.000000000000
         C           -1.632362908500    -1.526687710336    -0.009458923740    12.000000000000
         C            1.697727891500    -0.268975310336    -0.001551723740    12.000000000000
         C           -3.093505108500     0.529192689664    -0.000173723740    12.000000000000
         C            1.029845891500     1.946966689664    -0.012181723740    12.000000000000
         H           -2.406672108500    -2.227241310336    -0.015696723740     1.007825032230
         H           -3.173534108500     1.165682689664    -0.883141723740     1.007825032230
         H           -3.890653108500    -0.215438310336    -0.009738723740     1.007825032230
         H           -3.179234108500     1.148669689664     0.894356276260     1.007825032230
         H            1.354438891500     2.985536689664    -0.015938723740     1.007825032230
         H            3.608423891500    -0.866712310336    -0.222590723740     1.007825032230
         H            2.451448891500    -2.136405310336    -0.224300723740     1.007825032230

  Basis Set: AUG-CC-PVTZ
    Blend: AUG-CC-PVTZ
  Basis Set: (AUG-CC-PVTZ AUX)
    Blend: AUG-CC-PVTZ-JKFIT
	 Reference Energy          =    -503.7134200426374946 [Eh]
	 Singles Energy            =      -0.0000000000000000 [Eh]
	 Same-Spin Energy          =      -0.5511959414518132 [Eh]
	 Opposite-Spin Energy      =      -1.6358986618784992 [Eh]
	 Correlation Energy        =      -2.1870946033303125 [Eh]
	 Total Energy              =    -505.9005146459678031 [Eh]

	 ================> DF-SCS-MP2 Energies <==================
	-----------------------------------------------------------
	 SCS Same-Spin Scale       =       0.3333333333333333 [-]
	 SCS Opposite-Spin Scale   =       1.2000000000000000 [-]
	 SCS Same-Spin Energy      =      -0.1837319804839377 [Eh]
	 SCS Opposite-Spin Energy  =      -1.9630783942541989 [Eh]
	 SCS Correlation Energy    =      -2.1468103747381369 [Eh]
	 SCS Total Energy          =    -505.8602304173756465 [Eh]
	-----------------------------------------------------------

  Dipole Moment: [D]
     X:    -2.8103      Y:    -1.0692      Z:    -0.7893     Total:     3.1087

*** Psi4 exiting successfully. Buy a developer a beer!
