                               Psi4 1.3.2 release

  ==> Input File <==

--------------------------------------------------------------------------
#psi4
#
memory 32 gb

molecule  {
0 1
  N       -1.7893040    -0.1617730    -0.0001110
  N       -0.2713240    -1.8496560    -0.0082220
  N       -0.2672930     1.7497910     0.0010540
  N        2.0997281     1.0895294    -0.0081145
  N        2.7268170    -1.1967150     0.0786200
  C       -0.5487760     0.4359060     0.0048010
  C        0.3666280    -0.6257540     0.0082110
  C       -1.5569310    -1.5157420    -0.0063070
  C        1.7257650    -0.2653140     0.0014880
  C       -3.0654680     0.5328540     0.0028660
  C        1.0578830     1.9506280    -0.0091420
  H       -2.3786350    -2.2235800    -0.0126570
  H       -3.1454970     1.1693440    -0.8801020
  H       -3.8626160    -0.2117770    -0.0066990
  H       -3.1511970     1.1523310     0.8973960
  H        1.4363860     2.9707866    -0.0129274
  H        3.6364610    -0.8630510    -0.2195510
  H        2.4794860    -2.1327440    -0.2212610
units angstrom
no_reorient  #important for SAPT in psi4, default
symmetry c1  #important for SAPT in psi4, default
}

set PROPERTIES_ORIGIN ["COM"]
properties('MP2/aug-cc-pvtz', properties = ['dipole'])
--------------------------------------------------------------------------

    Molecular point group: c1
  Charge       = 0
  Multiplicity = 1
  Basis Set: AUG-CC-PVTZ
    Blend: AUG-CC-PVTZ
  Basis Set: (AUG-CC-PVTZ AUX)
    Blend: AUG-CC-PVTZ-JKFIT

    Orbital Energies [Eh]
    ---------------------

    Doubly Occupied:

       1A    -15.634291     2A    -15.585212     3A    -15.569117
       4A    -15.559551     5A    -15.559326     6A    -11.341554
       7A    -11.324540     8A    -11.316960     9A    -11.309140
      10A    -11.289516    11A    -11.253471    12A     -1.368789
      13A     -1.287600    14A     -1.242630    15A     -1.198394
      16A     -1.147266    17A     -1.031794    18A     -0.987568
      19A     -0.891833    20A     -0.866182    21A     -0.802644
      22A     -0.751631    23A     -0.724519    24A     -0.681833
      25A     -0.671592    26A     -0.667220    27A     -0.622065
      28A     -0.605783    29A     -0.594165    30A     -0.588555
      31A     -0.571408    32A     -0.534038    33A     -0.497280
      34A     -0.490267    35A     -0.452429    36A     -0.416307
      37A     -0.412347    38A     -0.368353    39A     -0.307831

  @DF-RHF Final Energy:  -503.71739707325838

   => Energetics <=

    Nuclear Repulsion Energy =            592.4605280236457929
    One-Electron Energy =               -1859.3058461816526687
    Two-Electron Energy =                 763.1279210847485501
    Total Energy =                       -503.7173970732583257
  Basis Set: (AUG-CC-PVTZ AUX)
    Blend: AUG-CC-PVTZ-RI
    Molecular point group: c1

    Geometry (in Angstrom), charge = 0, multiplicity = 1:

       Center              X                  Y                   Z               Mass
    ------------   -----------------  -----------------  -----------------  -----------------
         N           -1.827628277457    -0.167451509110    -0.003123013553    14.003074004430
         N           -0.309648277457    -1.855334509110    -0.011234013553    14.003074004430
         N           -0.305617277457     1.744112490890    -0.001958013553    14.003074004430
         N            2.061403822543     1.083850890890    -0.011126513553    14.003074004430
         N            2.688492722543    -1.202393509110     0.075607986447    14.003074004430
         C           -0.587100277457     0.430227490890     0.001788986447    12.000000000000
         C            0.328303722543    -0.631432509110     0.005198986447    12.000000000000
         C           -1.595255277457    -1.521420509110    -0.009319013553    12.000000000000
         C            1.687440722543    -0.270992509110    -0.001524013553    12.000000000000
         C           -3.103792277457     0.527175490890    -0.000146013553    12.000000000000
         C            1.019558722543     1.944949490890    -0.012154013553    12.000000000000
         H           -2.416959277457    -2.229258509110    -0.015669013553     1.007825032230
         H           -3.183821277457     1.163665490890    -0.883114013553     1.007825032230
         H           -3.900940277457    -0.217455509110    -0.009711013553     1.007825032230
         H           -3.189521277457     1.146652490890     0.894383986447     1.007825032230
         H            1.398061722543     2.965108090890    -0.015939413553     1.007825032230
         H            3.598136722543    -0.868729509110    -0.222563013553     1.007825032230
         H            2.441161722543    -2.138422509110    -0.224273013553     1.007825032230

  Basis Set: AUG-CC-PVTZ
    Blend: AUG-CC-PVTZ
  Basis Set: (AUG-CC-PVTZ AUX)
    Blend: AUG-CC-PVTZ-JKFIT
	 Reference Energy          =    -503.7173970732583825 [Eh]
	 Singles Energy            =      -0.0000000000000000 [Eh]
	 Same-Spin Energy          =      -0.5492645889219141 [Eh]
	 Opposite-Spin Energy      =      -1.6344486661551199 [Eh]
	 Correlation Energy        =      -2.1837132550770342 [Eh]
	 Total Energy              =    -505.9011103283353918 [Eh]

	 ================> DF-SCS-MP2 Energies <==================
	-----------------------------------------------------------
	 SCS Same-Spin Scale       =       0.3333333333333333 [-]
	 SCS Opposite-Spin Scale   =       1.2000000000000000 [-]
	 SCS Same-Spin Energy      =      -0.1830881963073047 [Eh]
	 SCS Opposite-Spin Energy  =      -1.9613383993861437 [Eh]
	 SCS Correlation Energy    =      -2.1444265956934485 [Eh]
	 SCS Total Energy          =    -505.8618236689518426 [Eh]
	-----------------------------------------------------------

  Dipole Moment: [D]
     X:    -2.7538      Y:    -1.3997      Z:    -0.7805     Total:     3.1861

*** Psi4 exiting successfully. Buy a developer a beer!
