                               Psi4 1.4a3.dev225

  ==> Input File <==

--------------------------------------------------------------------------
#psi4
#
memory 32 gb

molecule  {
0 1
  N       -1.7889380    -0.1640290    -0.0179520
  N       -0.2703210    -1.8482040    -0.0023970
  N       -0.2671710     1.7490810    -0.0033560
  N        2.0541740     1.0368940    -0.0085470
  N        2.7206340    -1.1973270     0.0732090
  C       -0.5486140     0.4351420     0.0045870
  C        0.3650590    -0.6247560     0.0169900
  C       -1.5569260    -1.5161270    -0.0162740
  C        1.7266360    -0.2641570     0.0048060
  C       -3.0641060     0.5324820     0.0177850
  C        1.0196060     1.9846098    -0.0111809
  H       -2.3762040    -2.2259510    -0.0342240
  H       -2.9284720     1.5041700    -0.4579320
  H       -3.8067760    -0.0485880    -0.5312030
  H       -3.3972360     0.6796990     1.0480130
  H        1.3812150     2.9891510    -0.0228070
  H        3.6427950    -0.8729100    -0.1905990
  H        2.4748820    -2.1409930    -0.1987870
units angstrom
no_reorient  #important for SAPT in psi4, default
symmetry c1  #important for SAPT in psi4, default
}

set PROPERTIES_ORIGIN ["COM"]
properties('MP2/aug-cc-pvtz', properties = ['dipole'])
--------------------------------------------------------------------------

    Molecular point group: c1
  Charge       = 0
  Multiplicity = 1
  Basis Set: AUG-CC-PVTZ
    Blend: AUG-CC-PVTZ
  Basis Set: (AUG-CC-PVTZ AUX)
    Blend: AUG-CC-PVTZ-JKFIT

    Orbital Energies [Eh]
    ---------------------

    Doubly Occupied:

       1A    -15.633840     2A    -15.579254     3A    -15.567838
       4A    -15.561894     5A    -15.549744     6A    -11.332199
       7A    -11.320349     8A    -11.312725     9A    -11.311646
      10A    -11.287834    11A    -11.251665    12A     -1.368128
      13A     -1.291634    14A     -1.246656    15A     -1.196852
      16A     -1.143078    17A     -1.032596    18A     -0.985519
      19A     -0.885919    20A     -0.875678    21A     -0.802940
      22A     -0.752307    23A     -0.726593    24A     -0.681173
      25A     -0.674254    26A     -0.666877    27A     -0.625433
      28A     -0.604456    29A     -0.598141    30A     -0.592829
      31A     -0.572363    32A     -0.534423    33A     -0.498602
      34A     -0.491839    35A     -0.450116    36A     -0.412024
      37A     -0.404739    38A     -0.362278    39A     -0.310132

  @DF-RHF Final Energy:  -503.72182110568997

   => Energetics <=

    Nuclear Repulsion Energy =            594.1852537885815764
    One-Electron Energy =               -1862.8210185100467697
    Two-Electron Energy =                 764.9139436157752243
    Total Energy =                       -503.7218211056899690
  Basis Set: (AUG-CC-PVTZ AUX)
    Blend: AUG-CC-PVTZ-RI
    Molecular point group: c1

    Geometry (in Angstrom), charge = 0, multiplicity = 1:

       Center              X                  Y                   Z               Mass
    ------------   -----------------  -----------------  -----------------  -----------------
         N           -1.819364484808    -0.167507284106    -0.020524678763    14.003074004430
         N           -0.300747484808    -1.851682284106    -0.004969678763    14.003074004430
         N           -0.297597484808     1.745602715894    -0.005928678763    14.003074004430
         N            2.023747515192     1.033415715894    -0.011119678763    14.003074004430
         N            2.690207515192    -1.200805284106     0.070636321237    14.003074004430
         C           -0.579040484808     0.431663715894     0.002014321237    12.000000000000
         C            0.334632515192    -0.628234284106     0.014417321237    12.000000000000
         C           -1.587352484808    -1.519605284106    -0.018846678763    12.000000000000
         C            1.696209515192    -0.267635284106     0.002233321237    12.000000000000
         C           -3.094532484808     0.529003715894     0.015212321237    12.000000000000
         C            0.989179515192     1.981131515894    -0.013753578763    12.000000000000
         H           -2.406630484808    -2.229429284106    -0.036796678763     1.007825032230
         H           -2.958898484808     1.500691715894    -0.460504678763     1.007825032230
         H           -3.837202484808    -0.052066284106    -0.533775678763     1.007825032230
         H           -3.427662484808     0.676220715894     1.045440321237     1.007825032230
         H            1.350788515192     2.985672715894    -0.025379678763     1.007825032230
         H            3.612368515192    -0.876388284106    -0.193171678763     1.007825032230
         H            2.444455515192    -2.144471284106    -0.201359678763     1.007825032230

  Basis Set: AUG-CC-PVTZ
    Blend: AUG-CC-PVTZ
  Basis Set: (AUG-CC-PVTZ AUX)
    Blend: AUG-CC-PVTZ-JKFIT
	 Reference Energy          =    -503.7218211056899690 [Eh]
	 Singles Energy            =      -0.0000000000000000 [Eh]
	 Same-Spin Energy          =      -0.5493542069817066 [Eh]
	 Opposite-Spin Energy      =      -1.6333479769601347 [Eh]
	 Correlation Energy        =      -2.1827021839418412 [Eh]
	 Total Energy              =    -505.9045232896318112 [Eh]

	 ================> DF-SCS-MP2 Energies <==================
	-----------------------------------------------------------
	 SCS Same-Spin Scale       =       0.3333333333333333 [-]
	 SCS Opposite-Spin Scale   =       1.2000000000000000 [-]
	 SCS Same-Spin Energy      =      -0.1831180689939022 [Eh]
	 SCS Opposite-Spin Energy  =      -1.9600175723521616 [Eh]
	 SCS Correlation Energy    =      -2.1431356413460638 [Eh]
	 SCS Total Energy          =    -505.8649567470360466 [Eh]
	-----------------------------------------------------------

  Dipole Moment: [D]
     X:    -2.8011      Y:    -1.0769      Z:    -0.7133     Total:     3.0846

*** Psi4 exiting successfully. Buy a developer a beer!
