                               Psi4 1.3.2 release

  ==> Input File <==

--------------------------------------------------------------------------
#psi4
#
memory 32 gb

molecule  {
0 1
  N       -1.7893040    -0.1617730    -0.0001110
  N       -0.2713240    -1.8496560    -0.0082220
  N       -0.2734951     1.7961627     0.0010415
  N        2.0532340     1.0361840    -0.0078740
  N        2.7268170    -1.1967150     0.0786200
  C       -0.5487760     0.4359060     0.0048010
  C        0.3666280    -0.6257540     0.0082110
  C       -1.5569310    -1.5157420    -0.0063070
  C        1.7257650    -0.2653140     0.0014880
  C       -3.0654680     0.5328540     0.0028660
  C        1.0578830     1.9506280    -0.0091420
  H       -2.3786350    -2.2235800    -0.0126570
  H       -3.1454970     1.1693440    -0.8801020
  H       -3.8626160    -0.2117770    -0.0066990
  H       -3.1511970     1.1523310     0.8973960
  H        1.3460336     2.9998941    -0.0126393
  H        3.6364610    -0.8630510    -0.2195510
  H        2.4794860    -2.1327440    -0.2212610
units angstrom
no_reorient  #important for SAPT in psi4, default
symmetry c1  #important for SAPT in psi4, default
}

set PROPERTIES_ORIGIN ["COM"]
properties('MP2/aug-cc-pvtz', properties = ['dipole'])
--------------------------------------------------------------------------

    Molecular point group: c1
  Charge       = 0
  Multiplicity = 1
  Basis Set: AUG-CC-PVTZ
    Blend: AUG-CC-PVTZ
  Basis Set: (AUG-CC-PVTZ AUX)
    Blend: AUG-CC-PVTZ-JKFIT

    Orbital Energies [Eh]
    ---------------------

    Doubly Occupied:

       1A    -15.635110     2A    -15.583249     3A    -15.568734
       4A    -15.565287     5A    -15.552295     6A    -11.337492
       7A    -11.322589     8A    -11.316260     9A    -11.310544
      10A    -11.289260    11A    -11.253793    12A     -1.367039
      13A     -1.294853    14A     -1.238489    15A     -1.197823
      16A     -1.148810    17A     -1.032839    18A     -0.986859
      19A     -0.890790    20A     -0.867238    21A     -0.803581
      22A     -0.752436    23A     -0.724194    24A     -0.681247
      25A     -0.670227    26A     -0.665835    27A     -0.624303
      28A     -0.607687    29A     -0.595014    30A     -0.589250
      31A     -0.570432    32A     -0.537893    33A     -0.493033
      34A     -0.492079    35A     -0.450468    36A     -0.415688
      37A     -0.411134    38A     -0.366468    39A     -0.311517

  @DF-RHF Final Energy:  -503.72055254469240

   => Energetics <=

    Nuclear Repulsion Energy =            593.0564414339821724
    One-Electron Energy =               -1860.5103069504925770
    Two-Electron Energy =                 763.7333129718180089
    Total Energy =                       -503.7205525446923957
  Basis Set: (AUG-CC-PVTZ AUX)
    Blend: AUG-CC-PVTZ-RI
    Molecular point group: c1

    Geometry (in Angstrom), charge = 0, multiplicity = 1:

       Center              X                  Y                   Z               Mass
    ------------   -----------------  -----------------  -----------------  -----------------
         N           -1.822067350435    -0.166993214996    -0.003146378764    14.003074004430
         N           -0.304087350435    -1.854876214996    -0.011257378764    14.003074004430
         N           -0.306258450435     1.790942485004    -0.001993878764    14.003074004430
         N            2.020470649565     1.030963785004    -0.010909378764    14.003074004430
         N            2.694053649565    -1.201935214996     0.075584621236    14.003074004430
         C           -0.581539350435     0.430685785004     0.001765621236    12.000000000000
         C            0.333864649565    -0.630974214996     0.005175621236    12.000000000000
         C           -1.589694350435    -1.520962214996    -0.009342378764    12.000000000000
         C            1.693001649565    -0.270534214996    -0.001547378764    12.000000000000
         C           -3.098231350435     0.527633785004    -0.000169378764    12.000000000000
         C            1.025119649565     1.945407785004    -0.012177378764    12.000000000000
         H           -2.411398350435    -2.228800214996    -0.015692378764     1.007825032230
         H           -3.178260350435     1.164123785004    -0.883137378764     1.007825032230
         H           -3.895379350435    -0.216997214996    -0.009734378764     1.007825032230
         H           -3.183960350435     1.147110785004     0.894360621236     1.007825032230
         H            1.313270249565     2.994673885004    -0.015674678764     1.007825032230
         H            3.603697649565    -0.868271214996    -0.222586378764     1.007825032230
         H            2.446722649565    -2.137964214996    -0.224296378764     1.007825032230

  Basis Set: AUG-CC-PVTZ
    Blend: AUG-CC-PVTZ
  Basis Set: (AUG-CC-PVTZ AUX)
    Blend: AUG-CC-PVTZ-JKFIT
	 Reference Energy          =    -503.7205525446923957 [Eh]
	 Singles Energy            =      -0.0000000000000000 [Eh]
	 Same-Spin Energy          =      -0.5493194364423175 [Eh]
	 Opposite-Spin Energy      =      -1.6342452703925987 [Eh]
	 Correlation Energy        =      -2.1835647068349164 [Eh]
	 Total Energy              =    -505.9041172515273388 [Eh]

	 ================> DF-SCS-MP2 Energies <==================
	-----------------------------------------------------------
	 SCS Same-Spin Scale       =       0.3333333333333333 [-]
	 SCS Opposite-Spin Scale   =       1.2000000000000000 [-]
	 SCS Same-Spin Energy      =      -0.1831064788141058 [Eh]
	 SCS Opposite-Spin Energy  =      -1.9610943244711183 [Eh]
	 SCS Correlation Energy    =      -2.1442008032852242 [Eh]
	 SCS Total Energy          =    -505.8647533479776257 [Eh]
	-----------------------------------------------------------

  Dipole Moment: [D]
     X:    -2.7220      Y:    -1.2866      Z:    -0.7877     Total:     3.1121

*** Psi4 exiting successfully. Buy a developer a beer!
