                               Psi4 1.3.2 release

  ==> Input File <==

--------------------------------------------------------------------------
#psi4
#
memory 32 gb

molecule  {
0 1
  N       -1.7893040    -0.1617730    -0.0001110
  N       -0.2713240    -1.8496560    -0.0082220
  N       -0.2672930     1.7497910     0.0010540
  N        2.0532340     1.0361840    -0.0078740
  N        2.7268170    -1.1967150     0.0786200
  C       -0.5487760     0.4359060     0.0048010
  C        0.3666280    -0.6257540     0.0082110
  C       -1.5569310    -1.5157420    -0.0063070
  C        1.6805421    -0.2530916     0.0016094
  C       -3.0654680     0.5328540     0.0028660
  C        1.0265763     1.9153349    -0.0087910
  H       -2.3786350    -2.2235800    -0.0126570
  H       -3.1454970     1.1693440    -0.8801020
  H       -3.8626160    -0.2117770    -0.0066990
  H       -3.1511970     1.1523310     0.8973960
  H        1.3824760     2.9891980    -0.0128990
  H        3.6364610    -0.8630510    -0.2195510
  H        2.4794860    -2.1327440    -0.2212610
units angstrom
no_reorient  #important for SAPT in psi4, default
symmetry c1  #important for SAPT in psi4, default
}

set PROPERTIES_ORIGIN ["COM"]
properties('MP2/aug-cc-pvtz', properties = ['dipole'])
--------------------------------------------------------------------------

    Molecular point group: c1
  Charge       = 0
  Multiplicity = 1
  Basis Set: AUG-CC-PVTZ
    Blend: AUG-CC-PVTZ
  Basis Set: (AUG-CC-PVTZ AUX)
    Blend: AUG-CC-PVTZ-JKFIT

    Orbital Energies [Eh]
    ---------------------

    Doubly Occupied:

       1A    -15.636907     2A    -15.573752     3A    -15.570651
       4A    -15.563468     5A    -15.554220     6A    -11.330663
       7A    -11.326551     8A    -11.318810     9A    -11.310485
      10A    -11.291716    11A    -11.251771    12A     -1.373417
      13A     -1.302128    14A     -1.241997    15A     -1.196881
      16A     -1.152226    17A     -1.040411    18A     -0.990627
      19A     -0.894905    20A     -0.872716    21A     -0.804662
      22A     -0.755419    23A     -0.717998    24A     -0.680205
      25A     -0.671024    26A     -0.666220    27A     -0.621158
      28A     -0.611548    29A     -0.598678    30A     -0.589465
      31A     -0.571462    32A     -0.536370    33A     -0.497251
      34A     -0.490974    35A     -0.454134    36A     -0.420601
      37A     -0.412036    38A     -0.370073    39A     -0.317003

  @DF-RHF Final Energy:  -503.71939500556306

   => Energetics <=

    Nuclear Repulsion Energy =            595.8841987846296888
    One-Electron Energy =               -1866.0460215228865763
    Two-Electron Energy =                 766.4424277326938864
    Total Energy =                       -503.7193950055630012
  Basis Set: (AUG-CC-PVTZ AUX)
    Blend: AUG-CC-PVTZ-RI
    Molecular point group: c1

    Geometry (in Angstrom), charge = 0, multiplicity = 1:

       Center              X                  Y                   Z               Mass
    ------------   -----------------  -----------------  -----------------  -----------------
         N           -1.816735772000    -0.160707754265    -0.003183824935    14.003074004430
         N           -0.298755772000    -1.848590754265    -0.011294824935    14.003074004430
         N           -0.294724772000     1.750856245735    -0.002018824935    14.003074004430
         N            2.025802228000     1.037249245735    -0.010946824935    14.003074004430
         N            2.699385228000    -1.195649754265     0.075547175065    14.003074004430
         C           -0.576207772000     0.436971245735     0.001728175065    12.000000000000
         C            0.339196228000    -0.624688754265     0.005138175065    12.000000000000
         C           -1.584362772000    -1.514676754265    -0.009379824935    12.000000000000
         C            1.653110328000    -0.252026354265    -0.001463424935    12.000000000000
         C           -3.092899772000     0.533919245735    -0.000206824935    12.000000000000
         C            0.999144528000     1.916400145735    -0.011863824935    12.000000000000
         H           -2.406066772000    -2.222514754265    -0.015729824935     1.007825032230
         H           -3.172928772000     1.170409245735    -0.883174824935     1.007825032230
         H           -3.890047772000    -0.210711754265    -0.009771824935     1.007825032230
         H           -3.178628772000     1.153396245735     0.894323175065     1.007825032230
         H            1.355044228000     2.990263245735    -0.015971824935     1.007825032230
         H            3.609029228000    -0.861985754265    -0.222623824935     1.007825032230
         H            2.452054228000    -2.131678754265    -0.224333824935     1.007825032230

  Basis Set: AUG-CC-PVTZ
    Blend: AUG-CC-PVTZ
  Basis Set: (AUG-CC-PVTZ AUX)
    Blend: AUG-CC-PVTZ-JKFIT
	 Reference Energy          =    -503.7193950055630580 [Eh]
	 Singles Energy            =      -0.0000000000000000 [Eh]
	 Same-Spin Energy          =      -0.5488794172358531 [Eh]
	 Opposite-Spin Energy      =      -1.6327227223542666 [Eh]
	 Correlation Energy        =      -2.1816021395901197 [Eh]
	 Total Energy              =    -505.9009971451531555 [Eh]

	 ================> DF-SCS-MP2 Energies <==================
	-----------------------------------------------------------
	 SCS Same-Spin Scale       =       0.3333333333333333 [-]
	 SCS Opposite-Spin Scale   =       1.2000000000000000 [-]
	 SCS Same-Spin Energy      =      -0.1829598057452844 [Eh]
	 SCS Opposite-Spin Energy  =      -1.9592672668251199 [Eh]
	 SCS Correlation Energy    =      -2.1422270725704040 [Eh]
	 SCS Total Energy          =    -505.8616220781334505 [Eh]
	-----------------------------------------------------------

  Dipole Moment: [D]
     X:    -3.1745      Y:    -1.0435      Z:    -0.7980     Total:     3.4356

*** Psi4 exiting successfully. Buy a developer a beer!
