                               Psi4 1.3.2 release

  ==> Input File <==

--------------------------------------------------------------------------
#psi4
#
memory 32 gb

molecule  {
0 1
  N       -1.7893040    -0.1617730    -0.0001110
  N       -0.2713240    -1.8496560    -0.0082220
  N       -0.2672930     1.7497910     0.0010540
  N        2.0532340     1.0361840    -0.0078740
  N        2.7268170    -1.1967150     0.0786200
  C       -0.5716630     0.4410190     0.0049664
  C        0.3666280    -0.6257540     0.0082110
  C       -1.5569310    -1.5157420    -0.0063070
  C        1.7257650    -0.2653140     0.0014880
  C       -3.0654680     0.5328540     0.0028660
  C        1.0541760     1.9737256    -0.0091429
  H       -2.3786350    -2.2235800    -0.0126570
  H       -3.1454970     1.1693440    -0.8801020
  H       -3.8626160    -0.2117770    -0.0066990
  H       -3.1511970     1.1523310     0.8973960
  H        1.3824760     2.9891980    -0.0128990
  H        3.6364610    -0.8630510    -0.2195510
  H        2.4794860    -2.1327440    -0.2212610
units angstrom
no_reorient  #important for SAPT in psi4, default
symmetry c1  #important for SAPT in psi4, default
}

set PROPERTIES_ORIGIN ["COM"]
properties('MP2/aug-cc-pvtz', properties = ['dipole'])
--------------------------------------------------------------------------

    Molecular point group: c1
  Charge       = 0
  Multiplicity = 1
  Basis Set: AUG-CC-PVTZ
    Blend: AUG-CC-PVTZ
  Basis Set: (AUG-CC-PVTZ AUX)
    Blend: AUG-CC-PVTZ-JKFIT

    Orbital Energies [Eh]
    ---------------------

    Doubly Occupied:

       1A    -15.635428     2A    -15.579243     3A    -15.568877
       4A    -15.560702     5A    -15.551599     6A    -11.332635
       7A    -11.322154     8A    -11.313902     9A    -11.312381
      10A    -11.289803    11A    -11.252606    12A     -1.370642
      13A     -1.292058    14A     -1.240985    15A     -1.198444
      16A     -1.146955    17A     -1.029607    18A     -0.987861
      19A     -0.890851    20A     -0.874331    21A     -0.800694
      22A     -0.752097    23A     -0.727305    24A     -0.680710
      25A     -0.674395    26A     -0.668592    27A     -0.624236
      28A     -0.604452    29A     -0.599453    30A     -0.590996
      31A     -0.575780    32A     -0.536227    33A     -0.494556
      34A     -0.493056    35A     -0.449703    36A     -0.414760
      37A     -0.404219    38A     -0.364808    39A     -0.306160

  @DF-RHF Final Energy:  -503.72240065687777

   => Energetics <=

    Nuclear Repulsion Energy =            593.7386241956094182
    One-Electron Energy =               -1861.8955296797462324
    Two-Electron Energy =                 764.4345048272590475
    Total Energy =                       -503.7224006568777668
  Basis Set: (AUG-CC-PVTZ AUX)
    Blend: AUG-CC-PVTZ-RI
    Molecular point group: c1

    Geometry (in Angstrom), charge = 0, multiplicity = 1:

       Center              X                  Y                   Z               Mass
    ------------   -----------------  -----------------  -----------------  -----------------
         N           -1.820755538661    -0.164835848452    -0.003159039288    14.003074004430
         N           -0.302775538661    -1.852718848452    -0.011270039288    14.003074004430
         N           -0.298744538661     1.746728151548    -0.001994039288    14.003074004430
         N            2.021782461339     1.033121151548    -0.010922039288    14.003074004430
         N            2.695365461339    -1.199777848452     0.075571960712    14.003074004430
         C           -0.603114538661     0.437956151548     0.001918360712    12.000000000000
         C            0.335176461339    -0.628816848452     0.005162960712    12.000000000000
         C           -1.588382538661    -1.518804848452    -0.009355039288    12.000000000000
         C            1.694313461339    -0.268376848452    -0.001560039288    12.000000000000
         C           -3.096919538661     0.529791151548    -0.000182039288    12.000000000000
         C            1.022724461339     1.970662751548    -0.012190939288    12.000000000000
         H           -2.410086538661    -2.226642848452    -0.015705039288     1.007825032230
         H           -3.176948538661     1.166281151548    -0.883150039288     1.007825032230
         H           -3.894067538661    -0.214839848452    -0.009747039288     1.007825032230
         H           -3.182648538661     1.149268151548     0.894347960712     1.007825032230
         H            1.351024461339     2.986135151548    -0.015947039288     1.007825032230
         H            3.605009461339    -0.866113848452    -0.222599039288     1.007825032230
         H            2.448034461339    -2.135806848452    -0.224309039288     1.007825032230

  Basis Set: AUG-CC-PVTZ
    Blend: AUG-CC-PVTZ
  Basis Set: (AUG-CC-PVTZ AUX)
    Blend: AUG-CC-PVTZ-JKFIT
	 Reference Energy          =    -503.7224006568777668 [Eh]
	 Singles Energy            =      -0.0000000000000000 [Eh]
	 Same-Spin Energy          =      -0.5496918217738898 [Eh]
	 Opposite-Spin Energy      =      -1.6337240599434224 [Eh]
	 Correlation Energy        =      -2.1834158817173122 [Eh]
	 Total Energy              =    -505.9058165385951042 [Eh]

	 ================> DF-SCS-MP2 Energies <==================
	-----------------------------------------------------------
	 SCS Same-Spin Scale       =       0.3333333333333333 [-]
	 SCS Opposite-Spin Scale   =       1.2000000000000000 [-]
	 SCS Same-Spin Energy      =      -0.1832306072579633 [Eh]
	 SCS Opposite-Spin Energy  =      -1.9604688719321068 [Eh]
	 SCS Correlation Energy    =      -2.1436994791900701 [Eh]
	 SCS Total Energy          =    -505.8661001360678142 [Eh]
	-----------------------------------------------------------

  Dipole Moment: [D]
     X:    -2.8582      Y:    -1.1204      Z:    -0.7900     Total:     3.1700

*** Psi4 exiting successfully. Buy a developer a beer!
