                               Psi4 1.3.2 release

  ==> Input File <==

--------------------------------------------------------------------------
#psi4
#
memory 32 gb

molecule  {
0 1
  N       -1.8016212    -0.1839380    -0.0003621
  N       -0.2713240    -1.8496560    -0.0082220
  N       -0.2672930     1.7497910     0.0010540
  N        2.0532340     1.0361840    -0.0078740
  N        2.7268170    -1.1967150     0.0786200
  C       -0.5487760     0.4359060     0.0048010
  C        0.3666280    -0.6257540     0.0082110
  C       -1.5569310    -1.5157420    -0.0063070
  C        1.7257650    -0.2653140     0.0014880
  C       -3.0654680     0.5328540     0.0028660
  C        1.0578830     1.9506280    -0.0091420
  H       -2.3786350    -2.2235800    -0.0126570
  H       -3.1454970     1.1693440    -0.8801020
  H       -3.8494980    -0.2255755    -0.0067941
  H       -3.1511970     1.1523310     0.8973960
  H        1.3824760     2.9891980    -0.0128990
  H        3.6364610    -0.8630510    -0.2195510
  H        2.4794860    -2.1327440    -0.2212610
units angstrom
no_reorient  #important for SAPT in psi4, default
symmetry c1  #important for SAPT in psi4, default
}

set PROPERTIES_ORIGIN ["COM"]
properties('MP2/aug-cc-pvtz', properties = ['dipole'])
--------------------------------------------------------------------------

    Molecular point group: c1
  Charge       = 0
  Multiplicity = 1
  Basis Set: AUG-CC-PVTZ
    Blend: AUG-CC-PVTZ
  Basis Set: (AUG-CC-PVTZ AUX)
    Blend: AUG-CC-PVTZ-JKFIT

    Orbital Energies [Eh]
    ---------------------

    Doubly Occupied:

       1A    -15.633386     2A    -15.581018     3A    -15.564312
       4A    -15.562275     5A    -15.553368     6A    -11.334555
       7A    -11.321621     8A    -11.313966     9A    -11.311688
      10A    -11.289327    11A    -11.252681    12A     -1.367637
      13A     -1.297161    14A     -1.242074    15A     -1.195978
      16A     -1.152757    17A     -1.030663    18A     -0.987096
      19A     -0.891734    20A     -0.872660    21A     -0.801656
      22A     -0.752888    23A     -0.723419    24A     -0.682177
      25A     -0.673826    26A     -0.666298    27A     -0.624403
      28A     -0.609799    29A     -0.597041    30A     -0.591643
      31A     -0.566475    32A     -0.537731    33A     -0.495795
      34A     -0.493247    35A     -0.449913    36A     -0.413164
      37A     -0.408360    38A     -0.371084    39A     -0.306751

  @DF-RHF Final Energy:  -503.72369619660788

   => Energetics <=

    Nuclear Repulsion Energy =            594.1723775020290077
    One-Electron Energy =               -1862.7488936818169805
    Two-Electron Energy =                 764.8528199831802112
    Total Energy =                       -503.7236961966078752
  Basis Set: (AUG-CC-PVTZ AUX)
    Blend: AUG-CC-PVTZ-RI
    Molecular point group: c1

    Geometry (in Angstrom), charge = 0, multiplicity = 1:

       Center              X                  Y                   Z               Mass
    ------------   -----------------  -----------------  -----------------  -----------------
         N           -1.834145186704    -0.182554540253    -0.003372666889    14.003074004430
         N           -0.303847986704    -1.848272540253    -0.011232566889    14.003074004430
         N           -0.299816986704     1.751174459747    -0.001956566889    14.003074004430
         N            2.020710013296     1.037567459747    -0.010884566889    14.003074004430
         N            2.694293013296    -1.195331540253     0.075609433111    14.003074004430
         C           -0.581299986704     0.437289459747     0.001790433111    12.000000000000
         C            0.334104013296    -0.624370540253     0.005200433111    12.000000000000
         C           -1.589454986704    -1.514358540253    -0.009317566889    12.000000000000
         C            1.693241013296    -0.263930540253    -0.001522566889    12.000000000000
         C           -3.097991986704     0.534237459747    -0.000144566889    12.000000000000
         C            1.025359013296     1.952011459747    -0.012152566889    12.000000000000
         H           -2.411158986704    -2.222196540253    -0.015667566889     1.007825032230
         H           -3.178020986704     1.170727459747    -0.883112566889     1.007825032230
         H           -3.882021986704    -0.224192040253    -0.009804666889     1.007825032230
         H           -3.183720986704     1.153714459747     0.894385433111     1.007825032230
         H            1.349952013296     2.990581459747    -0.015909566889     1.007825032230
         H            3.603937013296    -0.861667540253    -0.222561566889     1.007825032230
         H            2.446962013296    -2.131360540253    -0.224271566889     1.007825032230

  Basis Set: AUG-CC-PVTZ
    Blend: AUG-CC-PVTZ
  Basis Set: (AUG-CC-PVTZ AUX)
    Blend: AUG-CC-PVTZ-JKFIT
	 Reference Energy          =    -503.7236961966078752 [Eh]
	 Singles Energy            =      -0.0000000000000000 [Eh]
	 Same-Spin Energy          =      -0.5494443559432839 [Eh]
	 Opposite-Spin Energy      =      -1.6332935554987857 [Eh]
	 Correlation Energy        =      -2.1827379114420697 [Eh]
	 Total Energy              =    -505.9064341080499503 [Eh]

	 ================> DF-SCS-MP2 Energies <==================
	-----------------------------------------------------------
	 SCS Same-Spin Scale       =       0.3333333333333333 [-]
	 SCS Opposite-Spin Scale   =       1.2000000000000000 [-]
	 SCS Same-Spin Energy      =      -0.1831481186477613 [Eh]
	 SCS Opposite-Spin Energy  =      -1.9599522665985427 [Eh]
	 SCS Correlation Energy    =      -2.1431003852463042 [Eh]
	 SCS Total Energy          =    -505.8667965818542029 [Eh]
	-----------------------------------------------------------

  Dipole Moment: [D]
     X:    -2.7073      Y:    -1.0972      Z:    -0.7887     Total:     3.0258

*** Psi4 exiting successfully. Buy a developer a beer!
