                               Psi4 1.3.2 release

  ==> Input File <==

--------------------------------------------------------------------------
#psi4
#
memory 32 gb

molecule  {
0 1
  N       -1.7419091    -0.1544881    -0.0000930
  N       -0.2604535    -1.8045860    -0.0080216
  N       -0.2672930     1.7497910     0.0010540
  N        2.0532340     1.0361840    -0.0078740
  N        2.7268170    -1.1967150     0.0786200
  C       -0.5487760     0.4359060     0.0048010
  C        0.3666280    -0.6257540     0.0082110
  C       -1.5569310    -1.5157420    -0.0063070
  C        1.7257650    -0.2653140     0.0014880
  C       -3.0654680     0.5328540     0.0028660
  C        1.0578830     1.9506280    -0.0091420
  H       -2.3786350    -2.2235800    -0.0126570
  H       -3.1454970     1.1693440    -0.8801020
  H       -3.8626160    -0.2117770    -0.0066990
  H       -3.1511970     1.1523310     0.8973960
  H        1.3824760     2.9891980    -0.0128990
  H        3.6364610    -0.8630510    -0.2195510
  H        2.4794860    -2.1327440    -0.2212610
units angstrom
no_reorient  #important for SAPT in psi4, default
symmetry c1  #important for SAPT in psi4, default
}

set PROPERTIES_ORIGIN ["COM"]
properties('MP2/aug-cc-pvtz', properties = ['dipole'])
--------------------------------------------------------------------------

    Molecular point group: c1
  Charge       = 0
  Multiplicity = 1
  Basis Set: AUG-CC-PVTZ
    Blend: AUG-CC-PVTZ
  Basis Set: (AUG-CC-PVTZ AUX)
    Blend: AUG-CC-PVTZ-JKFIT

    Orbital Energies [Eh]
    ---------------------

    Doubly Occupied:

       1A    -15.633140     2A    -15.580480     3A    -15.562495
       4A    -15.557013     5A    -15.549756     6A    -11.333296
       7A    -11.317719     8A    -11.309741     9A    -11.304923
      10A    -11.292140    11A    -11.245418    12A     -1.378807
      13A     -1.294759    14A     -1.242943    15A     -1.197927
      16A     -1.149332    17A     -1.031814    18A     -0.986083
      19A     -0.894440    20A     -0.869996    21A     -0.803394
      22A     -0.754724    23A     -0.728516    24A     -0.677868
      25A     -0.674650    26A     -0.667713    27A     -0.626454
      28A     -0.602214    29A     -0.597042    30A     -0.592332
      31A     -0.579053    32A     -0.539345    33A     -0.495164
      34A     -0.486726    35A     -0.449750    36A     -0.418199
      37A     -0.404822    38A     -0.365224    39A     -0.303793

  @DF-RHF Final Energy:  -503.72172067728025

   => Energetics <=

    Nuclear Repulsion Energy =            596.5236774384858336
    One-Electron Energy =               -1867.4923818177576322
    Two-Electron Energy =                 767.2469837019916667
    Total Energy =                       -503.7217206772802456
  Basis Set: (AUG-CC-PVTZ AUX)
    Blend: AUG-CC-PVTZ-RI
    Molecular point group: c1

    Geometry (in Angstrom), charge = 0, multiplicity = 1:

       Center              X                  Y                   Z               Mass
    ------------   -----------------  -----------------  -----------------  -----------------
         N           -1.780974656251    -0.160198040118    -0.003148312853    14.003074004430
         N           -0.299519056251    -1.810295940118    -0.011076912853    14.003074004430
         N           -0.306358556251     1.744081059882    -0.002001312853    14.003074004430
         N            2.014168443749     1.030474059882    -0.010929312853    14.003074004430
         N            2.687751443749    -1.202424940118     0.075564687147    14.003074004430
         C           -0.587841556251     0.430196059882     0.001745687147    12.000000000000
         C            0.327562443749    -0.631463940118     0.005155687147    12.000000000000
         C           -1.595996556251    -1.521451940118    -0.009362312853    12.000000000000
         C            1.686699443749    -0.271023940118    -0.001567312853    12.000000000000
         C           -3.104533556251     0.527144059882    -0.000189312853    12.000000000000
         C            1.018817443749     1.944918059882    -0.012197312853    12.000000000000
         H           -2.417700556251    -2.229289940118    -0.015712312853     1.007825032230
         H           -3.184562556251     1.163634059882    -0.883157312853     1.007825032230
         H           -3.901681556251    -0.217486940118    -0.009754312853     1.007825032230
         H           -3.190262556251     1.146621059882     0.894340687147     1.007825032230
         H            1.343410443749     2.983488059882    -0.015954312853     1.007825032230
         H            3.597395443749    -0.868760940118    -0.222606312853     1.007825032230
         H            2.440420443749    -2.138453940118    -0.224316312853     1.007825032230

  Basis Set: AUG-CC-PVTZ
    Blend: AUG-CC-PVTZ
  Basis Set: (AUG-CC-PVTZ AUX)
    Blend: AUG-CC-PVTZ-JKFIT
	 Reference Energy          =    -503.7217206772802456 [Eh]
	 Singles Energy            =      -0.0000000000000000 [Eh]
	 Same-Spin Energy          =      -0.5496292754043726 [Eh]
	 Opposite-Spin Energy      =      -1.6324916997380388 [Eh]
	 Correlation Energy        =      -2.1821209751424115 [Eh]
	 Total Energy              =    -505.9038416524226704 [Eh]

	 ================> DF-SCS-MP2 Energies <==================
	-----------------------------------------------------------
	 SCS Same-Spin Scale       =       0.3333333333333333 [-]
	 SCS Opposite-Spin Scale   =       1.2000000000000000 [-]
	 SCS Same-Spin Energy      =      -0.1832097584681242 [Eh]
	 SCS Opposite-Spin Energy  =      -1.9589900396856463 [Eh]
	 SCS Correlation Energy    =      -2.1421997981537704 [Eh]
	 SCS Total Energy          =    -505.8639204754340426 [Eh]
	-----------------------------------------------------------

  Dipole Moment: [D]
     X:    -2.9327      Y:    -1.2815      Z:    -0.7879     Total:     3.2961

*** Psi4 exiting successfully. Buy a developer a beer!
