                               Psi4 1.3.2 release

  ==> Input File <==

--------------------------------------------------------------------------
#psi4
#
memory 32 gb

molecule  {
0 1
  N       -1.7893040    -0.1617730    -0.0001110
  N       -0.2713240    -1.8496560    -0.0082220
  N       -0.2672930     1.7497910     0.0010540
  N        2.0532340     1.0361840    -0.0078740
  N        2.7268170    -1.1967150     0.0786200
  C       -0.5487760     0.4359060     0.0048010
  C        0.3666280    -0.6257540     0.0082110
  C       -1.5569310    -1.5157420    -0.0063070
  C        1.7257650    -0.2653140     0.0014880
  C       -3.0654680     0.5328540     0.0028660
  C        1.0578830     1.9506280    -0.0091420
  H       -2.3786350    -2.2235800    -0.0126570
  H       -3.1454970     1.1693440    -0.8801020
  H       -3.8626160    -0.2117770    -0.0066990
  H       -3.1511970     1.1523310     0.8973960
  H        1.3824760     2.9891980    -0.0128990
  H        3.6349803    -0.8553961    -0.2153710
  H        2.4717225    -2.1319866    -0.2170915
units angstrom
no_reorient  #important for SAPT in psi4, default
symmetry c1  #important for SAPT in psi4, default
}

set PROPERTIES_ORIGIN ["COM"]
properties('MP2/aug-cc-pvtz', properties = ['dipole'])
--------------------------------------------------------------------------

    Molecular point group: c1
  Charge       = 0
  Multiplicity = 1
  Basis Set: AUG-CC-PVTZ
    Blend: AUG-CC-PVTZ
  Basis Set: (AUG-CC-PVTZ AUX)
    Blend: AUG-CC-PVTZ-JKFIT

    Orbital Energies [Eh]
    ---------------------

    Doubly Occupied:

       1A    -15.633092     2A    -15.581045     3A    -15.567398
       4A    -15.560644     5A    -15.552336     6A    -11.334330
       7A    -11.322541     8A    -11.313001     9A    -11.311596
      10A    -11.288731    11A    -11.251818    12A     -1.367792
      13A     -1.296221    14A     -1.242339    15A     -1.196871
      16A     -1.151863    17A     -1.031319    18A     -0.986045
      19A     -0.890557    20A     -0.872175    21A     -0.802460
      22A     -0.753918    23A     -0.723795    24A     -0.680937
      25A     -0.673651    26A     -0.666400    27A     -0.624443
      28A     -0.606643    29A     -0.596711    30A     -0.591374
      31A     -0.571849    32A     -0.536812    33A     -0.495564
      34A     -0.492672    35A     -0.450550    36A     -0.414139
      37A     -0.408578    38A     -0.368401    39A     -0.307713

  @DF-RHF Final Energy:  -503.72483853287736

   => Energetics <=

    Nuclear Repulsion Energy =            594.3564433394589059
    One-Electron Energy =               -1863.1259199685430303
    Two-Electron Energy =                 765.0446380962068815
    Total Energy =                       -503.7248385328773566
  Basis Set: (AUG-CC-PVTZ AUX)
    Blend: AUG-CC-PVTZ-RI
    Molecular point group: c1

    Geometry (in Angstrom), charge = 0, multiplicity = 1:

       Center              X                  Y                   Z               Mass
    ------------   -----------------  -----------------  -----------------  -----------------
         N           -1.822833831825    -0.162621796316    -0.003202246029    14.003074004430
         N           -0.304853831825    -1.850504796316    -0.011313246029    14.003074004430
         N           -0.300822831825     1.748942203684    -0.002037246029    14.003074004430
         N            2.019704168175     1.035335203684    -0.010965246029    14.003074004430
         N            2.693287168175    -1.197563796316     0.075528753971    14.003074004430
         C           -0.582305831825     0.435057203684     0.001709753971    12.000000000000
         C            0.333098168175    -0.626602796316     0.005119753971    12.000000000000
         C           -1.590460831825    -1.516590796316    -0.009398246029    12.000000000000
         C            1.692235168175    -0.266162796316    -0.001603246029    12.000000000000
         C           -3.098997831825     0.532005203684    -0.000225246029    12.000000000000
         C            1.024353168175     1.949779203684    -0.012233246029    12.000000000000
         H           -2.412164831825    -2.224428796316    -0.015748246029     1.007825032230
         H           -3.179026831825     1.168495203684    -0.883193246029     1.007825032230
         H           -3.896145831825    -0.212625796316    -0.009790246029     1.007825032230
         H           -3.184726831825     1.151482203684     0.894304753971     1.007825032230
         H            1.348946168175     2.988349203684    -0.015990246029     1.007825032230
         H            3.601450468175    -0.856244896316    -0.218462246029     1.007825032230
         H            2.438192668175    -2.132835396316    -0.220182746029     1.007825032230

  Basis Set: AUG-CC-PVTZ
    Blend: AUG-CC-PVTZ
  Basis Set: (AUG-CC-PVTZ AUX)
    Blend: AUG-CC-PVTZ-JKFIT
	 Reference Energy          =    -503.7248385328773566 [Eh]
	 Singles Energy            =      -0.0000000000000000 [Eh]
	 Same-Spin Energy          =      -0.5492887855734665 [Eh]
	 Opposite-Spin Energy      =      -1.6331405506351939 [Eh]
	 Correlation Energy        =      -2.1824293362086604 [Eh]
	 Total Energy              =    -505.9072678690860130 [Eh]

	 ================> DF-SCS-MP2 Energies <==================
	-----------------------------------------------------------
	 SCS Same-Spin Scale       =       0.3333333333333333 [-]
	 SCS Opposite-Spin Scale   =       1.2000000000000000 [-]
	 SCS Same-Spin Energy      =      -0.1830962618578222 [Eh]
	 SCS Opposite-Spin Energy  =      -1.9597686607622327 [Eh]
	 SCS Correlation Energy    =      -2.1428649226200549 [Eh]
	 SCS Total Energy          =    -505.8677034554974057 [Eh]
	-----------------------------------------------------------

  Dipole Moment: [D]
     X:    -2.7360      Y:    -1.1549      Z:    -0.7785     Total:     3.0701

*** Psi4 exiting successfully. Buy a developer a beer!
