                               Psi4 1.3.2 release

  ==> Input File <==

--------------------------------------------------------------------------
#psi4
#
memory 32 gb

molecule  {
0 1
  N       -1.7893040    -0.1617730    -0.0001110
  N       -0.2713240    -1.8496560    -0.0082220
  N       -0.2672930     1.7497910     0.0010540
  N        2.0611760     1.0449047    -0.0079139
  N        2.7268170    -1.1967150     0.0786200
  C       -0.5487760     0.4359060     0.0048010
  C        0.3666280    -0.6257540     0.0082110
  C       -1.5569310    -1.5157420    -0.0063070
  C        1.7257650    -0.2653140     0.0014880
  C       -3.0654680     0.5328540     0.0028660
  C        1.0578830     1.9506280    -0.0091420
  H       -2.3786350    -2.2235800    -0.0126570
  H       -3.1454970     1.1693440    -0.8801020
  H       -3.8626160    -0.2117770    -0.0066990
  H       -3.1511970     1.1523310     0.8973960
  H        1.3915268     2.9863258    -0.0129045
  H        3.6364610    -0.8630510    -0.2195510
  H        2.4794860    -2.1327440    -0.2212610
units angstrom
no_reorient  #important for SAPT in psi4, default
symmetry c1  #important for SAPT in psi4, default
}

set PROPERTIES_ORIGIN ["COM"]
properties('MP2/aug-cc-pvtz', properties = ['dipole'])
--------------------------------------------------------------------------

    Molecular point group: c1
  Charge       = 0
  Multiplicity = 1
  Basis Set: AUG-CC-PVTZ
    Blend: AUG-CC-PVTZ
  Basis Set: (AUG-CC-PVTZ AUX)
    Blend: AUG-CC-PVTZ-JKFIT

    Orbital Energies [Eh]
    ---------------------

    Doubly Occupied:

       1A    -15.633283     2A    -15.581737     3A    -15.567656
       4A    -15.560458     5A    -15.553578     6A    -11.335792
       7A    -11.322872     8A    -11.313695     9A    -11.311152
      10A    -11.288862    11A    -11.252165    12A     -1.367937
      13A     -1.294636    14A     -1.242311    15A     -1.197112
      16A     -1.151094    17A     -1.031452    18A     -0.986311
      19A     -0.890777    20A     -0.871282    21A     -0.802741
      22A     -0.753151    23A     -0.724195    24A     -0.680776
      25A     -0.673010    26A     -0.666534    27A     -0.624068
      28A     -0.606242    29A     -0.596421    30A     -0.590996
      31A     -0.571822    32A     -0.536330    33A     -0.495863
      34A     -0.492343    35A     -0.450916    36A     -0.414509
      37A     -0.409342    38A     -0.368334    39A     -0.307816

  @DF-RHF Final Energy:  -503.72430178269991

   => Energetics <=

    Nuclear Repulsion Energy =            594.0104354391718289
    One-Electron Energy =               -1862.4303280215733594
    Two-Electron Energy =                 764.6955907997016766
    Total Energy =                       -503.7243017826999676
  Basis Set: (AUG-CC-PVTZ AUX)
    Blend: AUG-CC-PVTZ-RI
    Molecular point group: c1

    Geometry (in Angstrom), charge = 0, multiplicity = 1:

       Center              X                  Y                   Z               Mass
    ------------   -----------------  -----------------  -----------------  -----------------
         N           -1.823703560451    -0.163364693599    -0.003142011964    14.003074004430
         N           -0.305723560451    -1.851247693599    -0.011253011964    14.003074004430
         N           -0.301692560451     1.748199306401    -0.001977011964    14.003074004430
         N            2.026776439549     1.043313006401    -0.010944911964    14.003074004430
         N            2.692417439549    -1.198306693599     0.075588988036    14.003074004430
         C           -0.583175560451     0.434314306401     0.001769988036    12.000000000000
         C            0.332228439549    -0.627345693599     0.005179988036    12.000000000000
         C           -1.591330560451    -1.517333693599    -0.009338011964    12.000000000000
         C            1.691365439549    -0.266905693599    -0.001543011964    12.000000000000
         C           -3.099867560451     0.531262306401    -0.000165011964    12.000000000000
         C            1.023483439549     1.949036306401    -0.012173011964    12.000000000000
         H           -2.413034560451    -2.225171693599    -0.015688011964     1.007825032230
         H           -3.179896560451     1.167752306401    -0.883133011964     1.007825032230
         H           -3.897015560451    -0.213368693599    -0.009730011964     1.007825032230
         H           -3.185596560451     1.150739306401     0.894364988036     1.007825032230
         H            1.357127239549     2.984734106401    -0.015935511964     1.007825032230
         H            3.602061439549    -0.864642693599    -0.222582011964     1.007825032230
         H            2.445086439549    -2.134335693599    -0.224292011964     1.007825032230

  Basis Set: AUG-CC-PVTZ
    Blend: AUG-CC-PVTZ
  Basis Set: (AUG-CC-PVTZ AUX)
    Blend: AUG-CC-PVTZ-JKFIT
	 Reference Energy          =    -503.7243017826999107 [Eh]
	 Singles Energy            =      -0.0000000000000000 [Eh]
	 Same-Spin Energy          =      -0.5492550855206169 [Eh]
	 Opposite-Spin Energy      =      -1.6332987352253923 [Eh]
	 Correlation Energy        =      -2.1825538207460093 [Eh]
	 Total Energy              =    -505.9068556034459334 [Eh]

	 ================> DF-SCS-MP2 Energies <==================
	-----------------------------------------------------------
	 SCS Same-Spin Scale       =       0.3333333333333333 [-]
	 SCS Opposite-Spin Scale   =       1.2000000000000000 [-]
	 SCS Same-Spin Energy      =      -0.1830850285068723 [Eh]
	 SCS Opposite-Spin Energy  =      -1.9599584822704705 [Eh]
	 SCS Correlation Energy    =      -2.1430435107773427 [Eh]
	 SCS Total Energy          =    -505.8673452934772286 [Eh]
	-----------------------------------------------------------

  Dipole Moment: [D]
     X:    -2.7385      Y:    -1.1992      Z:    -0.7875     Total:     3.0915

*** Psi4 exiting successfully. Buy a developer a beer!
