                               Psi4 1.3.2 release

  ==> Input File <==

--------------------------------------------------------------------------
#psi4
#
memory 32 gb

molecule  {
0 1
  N       -1.7181239    -0.1514684     0.0001768
  N       -0.2713240    -1.8496560    -0.0082220
  N       -0.2672930     1.7497910     0.0010540
  N        2.0532340     1.0361840    -0.0078740
  N        2.7268170    -1.1967150     0.0786200
  C       -0.5487760     0.4359060     0.0048010
  C        0.3666280    -0.6257540     0.0082110
  C       -1.5569310    -1.5157420    -0.0063070
  C        1.7257650    -0.2653140     0.0014880
  C       -3.0654680     0.5328540     0.0028660
  C        1.0578830     1.9506280    -0.0091420
  H       -2.3404625    -2.2656149    -0.0127473
  H       -3.1454970     1.1693440    -0.8801020
  H       -3.8626160    -0.2117770    -0.0066990
  H       -3.1511970     1.1523310     0.8973960
  H        1.3824760     2.9891980    -0.0128990
  H        3.6364610    -0.8630510    -0.2195510
  H        2.4794860    -2.1327440    -0.2212610
units angstrom
no_reorient  #important for SAPT in psi4, default
symmetry c1  #important for SAPT in psi4, default
}

set PROPERTIES_ORIGIN ["COM"]
properties('MP2/aug-cc-pvtz', properties = ['dipole'])
--------------------------------------------------------------------------

    Molecular point group: c1
  Charge       = 0
  Multiplicity = 1
  Basis Set: AUG-CC-PVTZ
    Blend: AUG-CC-PVTZ
  Basis Set: (AUG-CC-PVTZ AUX)
    Blend: AUG-CC-PVTZ-JKFIT

    Orbital Energies [Eh]
    ---------------------

    Doubly Occupied:

       1A    -15.634176     2A    -15.579589     3A    -15.567242
       4A    -15.556903     5A    -15.548829     6A    -11.332737
       7A    -11.317807     8A    -11.310621     9A    -11.305821
      10A    -11.294725    11A    -11.246380    12A     -1.379500
      13A     -1.294404    14A     -1.241201    15A     -1.192146
      16A     -1.148317    17A     -1.034787    18A     -0.983750
      19A     -0.892544    20A     -0.871723    21A     -0.802086
      22A     -0.755101    23A     -0.727718    24A     -0.678079
      25A     -0.671402    26A     -0.668090    27A     -0.619642
      28A     -0.600189    29A     -0.594907    30A     -0.590954
      31A     -0.580659    32A     -0.540247    33A     -0.494285
      34A     -0.488375    35A     -0.449359    36A     -0.417013
      37A     -0.406772    38A     -0.363014    39A     -0.307984

  @DF-RHF Final Energy:  -503.71869788130266

   => Energetics <=

    Nuclear Repulsion Energy =            595.6279478083849881
    One-Electron Energy =               -1865.7151287828680779
    Two-Electron Energy =                 766.3684830931804299
    Total Energy =                       -503.7186978813026599
  Basis Set: (AUG-CC-PVTZ AUX)
    Blend: AUG-CC-PVTZ-RI
    Molecular point group: c1

    Geometry (in Angstrom), charge = 0, multiplicity = 1:

       Center              X                  Y                   Z               Mass
    ------------   -----------------  -----------------  -----------------  -----------------
         N           -1.758660687801    -0.152944110077    -0.002884421526    14.003074004430
         N           -0.311860787801    -1.851131710077    -0.011283221526    14.003074004430
         N           -0.307829787801     1.748315289923    -0.002007221526    14.003074004430
         N            2.012697212199     1.034708289923    -0.010935221526    14.003074004430
         N            2.686280212199    -1.198190710077     0.075558778474    14.003074004430
         C           -0.589312787801     0.434430289923     0.001739778474    12.000000000000
         C            0.326091212199    -0.627229710077     0.005149778474    12.000000000000
         C           -1.597467787801    -1.517217710077    -0.009368221526    12.000000000000
         C            1.685228212199    -0.266789710077    -0.001573221526    12.000000000000
         C           -3.106004787801     0.531378289923    -0.000195221526    12.000000000000
         C            1.017346212199     1.949152289923    -0.012203221526    12.000000000000
         H           -2.380999287801    -2.267090610077    -0.015808521526     1.007825032230
         H           -3.186033787801     1.167868289923    -0.883163221526     1.007825032230
         H           -3.903152787801    -0.213252710077    -0.009760221526     1.007825032230
         H           -3.191733787801     1.150855289923     0.894334778474     1.007825032230
         H            1.341939212199     2.987722289923    -0.015960221526     1.007825032230
         H            3.595924212199    -0.864526710077    -0.222612221526     1.007825032230
         H            2.438949212199    -2.134219710077    -0.224322221526     1.007825032230

  Basis Set: AUG-CC-PVTZ
    Blend: AUG-CC-PVTZ
  Basis Set: (AUG-CC-PVTZ AUX)
    Blend: AUG-CC-PVTZ-JKFIT
	 Reference Energy          =    -503.7186978813026599 [Eh]
	 Singles Energy            =      -0.0000000000000000 [Eh]
	 Same-Spin Energy          =      -0.5490078938436385 [Eh]
	 Opposite-Spin Energy      =      -1.6325519807524831 [Eh]
	 Correlation Energy        =      -2.1815598745961218 [Eh]
	 Total Energy              =    -505.9002577558987923 [Eh]

	 ================> DF-SCS-MP2 Energies <==================
	-----------------------------------------------------------
	 SCS Same-Spin Scale       =       0.3333333333333333 [-]
	 SCS Opposite-Spin Scale   =       1.2000000000000000 [-]
	 SCS Same-Spin Energy      =      -0.1830026312812128 [Eh]
	 SCS Opposite-Spin Energy  =      -1.9590623769029796 [Eh]
	 SCS Correlation Energy    =      -2.1420650081841925 [Eh]
	 SCS Total Energy          =    -505.8607628894868640 [Eh]
	-----------------------------------------------------------

  Dipole Moment: [D]
     X:    -2.9705      Y:    -1.2163      Z:    -0.7881     Total:     3.3052

*** Psi4 exiting successfully. Buy a developer a beer!
