                               Psi4 1.3.2 release

  ==> Input File <==

--------------------------------------------------------------------------
#psi4
#
memory 32 gb

molecule  {
0 1
  N       -1.7893040    -0.1617730    -0.0001110
  N       -0.2713240    -1.8496560    -0.0082220
  N       -0.2672930     1.7497910     0.0010540
  N        2.0532340     1.0361840    -0.0078740
  N        2.7268170    -1.1967150     0.0786200
  C       -0.5487760     0.4359060     0.0048010
  C        0.3666280    -0.6257540     0.0082110
  C       -1.5569310    -1.5157420    -0.0063070
  C        1.7415155    -0.2493823    -0.0068438
  C       -3.0654680     0.5328540     0.0028660
  C        1.0578830     1.9506280    -0.0091420
  H       -2.3786350    -2.2235800    -0.0126570
  H       -3.1454970     1.1693440    -0.8801020
  H       -3.8626160    -0.2117770    -0.0066990
  H       -3.1511970     1.1523310     0.8973960
  H        1.3824760     2.9891980    -0.0128990
  H        3.6293563    -0.8472136    -0.2229780
  H        2.4794860    -2.1327440    -0.2212610
units angstrom
no_reorient  #important for SAPT in psi4, default
symmetry c1  #important for SAPT in psi4, default
}

set PROPERTIES_ORIGIN ["COM"]
properties('MP2/aug-cc-pvtz', properties = ['dipole'])
--------------------------------------------------------------------------

    Molecular point group: c1
  Charge       = 0
  Multiplicity = 1
  Basis Set: AUG-CC-PVTZ
    Blend: AUG-CC-PVTZ
  Basis Set: (AUG-CC-PVTZ AUX)
    Blend: AUG-CC-PVTZ-JKFIT

    Orbital Energies [Eh]
    ---------------------

    Doubly Occupied:

       1A    -15.632461     2A    -15.581036     3A    -15.567036
       4A    -15.561765     5A    -15.552141     6A    -11.334963
       7A    -11.321339     8A    -11.312867     9A    -11.310888
      10A    -11.288256    11A    -11.252726    12A     -1.366927
      13A     -1.299386    14A     -1.242484    15A     -1.196351
      16A     -1.155848    17A     -1.028836    18A     -0.984570
      19A     -0.890704    20A     -0.872011    21A     -0.801861
      22A     -0.754181    23A     -0.724022    24A     -0.678796
      25A     -0.676452    26A     -0.665719    27A     -0.626065
      28A     -0.604954    29A     -0.596633    30A     -0.590189
      31A     -0.571489    32A     -0.538282    33A     -0.495407
      34A     -0.492751    35A     -0.451296    36A     -0.413840
      37A     -0.407858    38A     -0.370149    39A     -0.306176

  @DF-RHF Final Energy:  -503.72430533704909

   => Energetics <=

    Nuclear Repulsion Energy =            594.2747612107961004
    One-Electron Energy =               -1862.9607058067185790
    Two-Electron Energy =                 764.9616392588734470
    Total Energy =                       -503.7243053370491452
  Basis Set: (AUG-CC-PVTZ AUX)
    Blend: AUG-CC-PVTZ-RI
    Molecular point group: c1

    Geometry (in Angstrom), charge = 0, multiplicity = 1:

       Center              X                  Y                   Z               Mass
    ------------   -----------------  -----------------  -----------------  -----------------
         N           -1.824116196186    -0.163954481686    -0.002451926431    14.003074004430
         N           -0.306136196186    -1.851837481686    -0.010562926431    14.003074004430
         N           -0.302105196186     1.747609518314    -0.001286926431    14.003074004430
         N            2.018421803814     1.034002518314    -0.010214926431    14.003074004430
         N            2.692004803814    -1.198896481686     0.076279073569    14.003074004430
         C           -0.583588196186     0.433724518314     0.002460073569    12.000000000000
         C            0.331815803814    -0.627935481686     0.005870073569    12.000000000000
         C           -1.591743196186    -1.517923481686    -0.008647926431    12.000000000000
         C            1.706703303814    -0.251563781686    -0.009184726431    12.000000000000
         C           -3.100280196186     0.530672518314     0.000525073569    12.000000000000
         C            1.023070803814     1.948446518314    -0.011482926431    12.000000000000
         H           -2.413447196186    -2.225761481686    -0.014997926431     1.007825032230
         H           -3.180309196186     1.167162518314    -0.882442926431     1.007825032230
         H           -3.897428196186    -0.213958481686    -0.009039926431     1.007825032230
         H           -3.186009196186     1.150149518314     0.895055073569     1.007825032230
         H            1.347663803814     2.987016518314    -0.015239926431     1.007825032230
         H            3.594544103814    -0.849395081686    -0.225318926431     1.007825032230
         H            2.444673803814    -2.134925481686    -0.223601926431     1.007825032230

  Basis Set: AUG-CC-PVTZ
    Blend: AUG-CC-PVTZ
  Basis Set: (AUG-CC-PVTZ AUX)
    Blend: AUG-CC-PVTZ-JKFIT
	 Reference Energy          =    -503.7243053370490884 [Eh]
	 Singles Energy            =      -0.0000000000000000 [Eh]
	 Same-Spin Energy          =      -0.5493016731926098 [Eh]
	 Opposite-Spin Energy      =      -1.6330441395327373 [Eh]
	 Correlation Energy        =      -2.1823458127253472 [Eh]
	 Total Energy              =    -505.9066511497744614 [Eh]

	 ================> DF-SCS-MP2 Energies <==================
	-----------------------------------------------------------
	 SCS Same-Spin Scale       =       0.3333333333333333 [-]
	 SCS Opposite-Spin Scale   =       1.2000000000000000 [-]
	 SCS Same-Spin Energy      =      -0.1831005577308699 [Eh]
	 SCS Opposite-Spin Energy  =      -1.9596529674392846 [Eh]
	 SCS Correlation Energy    =      -2.1427535251701544 [Eh]
	 SCS Total Energy          =    -505.8670588622192668 [Eh]
	-----------------------------------------------------------

  Dipole Moment: [D]
     X:    -2.7065      Y:    -1.1042      Z:    -0.8005     Total:     3.0307

*** Psi4 exiting successfully. Buy a developer a beer!
