                               Psi4 1.3.2 release

  ==> Input File <==

--------------------------------------------------------------------------
#psi4
#
memory 32 gb

molecule  {
0 1
  N       -1.7893040    -0.1617730    -0.0001110
  N       -0.2713240    -1.8496560    -0.0082220
  N       -0.2672930     1.7497910     0.0010540
  N        2.0532340     1.0361840    -0.0078740
  N        2.7268170    -1.1967150     0.0786200
  C       -0.5487760     0.4359060     0.0048010
  C        0.4128468    -0.5370838     0.0094016
  C       -1.5569310    -1.5157420    -0.0063070
  C        1.7257650    -0.2653140     0.0014880
  C       -3.0654680     0.5328540     0.0028660
  C        1.0578830     1.9506280    -0.0091420
  H       -2.3786350    -2.2235800    -0.0126570
  H       -3.1454970     1.1693440    -0.8801020
  H       -3.8626160    -0.2117770    -0.0066990
  H       -3.1511970     1.1523310     0.8973960
  H        1.3824760     2.9891980    -0.0128990
  H        3.6364610    -0.8630510    -0.2195510
  H        2.4794860    -2.1327440    -0.2212610
units angstrom
no_reorient  #important for SAPT in psi4, default
symmetry c1  #important for SAPT in psi4, default
}

set PROPERTIES_ORIGIN ["COM"]
properties('MP2/aug-cc-pvtz', properties = ['dipole'])
--------------------------------------------------------------------------

    Molecular point group: c1
  Charge       = 0
  Multiplicity = 1
  Basis Set: AUG-CC-PVTZ
    Blend: AUG-CC-PVTZ
  Basis Set: (AUG-CC-PVTZ AUX)
    Blend: AUG-CC-PVTZ-JKFIT

    Orbital Energies [Eh]
    ---------------------

    Doubly Occupied:

       1A    -15.630971     2A    -15.580777     3A    -15.568637
       4A    -15.561046     5A    -15.551762     6A    -11.327588
       7A    -11.324837     8A    -11.317073     9A    -11.311493
      10A    -11.289345    11A    -11.247213    12A     -1.363795
      13A     -1.299902    14A     -1.240480    15A     -1.181068
      16A     -1.152506    17A     -1.042637    18A     -0.984649
      19A     -0.894057    20A     -0.874168    21A     -0.807945
      22A     -0.755113    23A     -0.714981    24A     -0.681368
      25A     -0.671374    26A     -0.666642    27A     -0.626805
      28A     -0.615858    29A     -0.596765    30A     -0.592700
      31A     -0.573621    32A     -0.535278    33A     -0.494141
      34A     -0.490477    35A     -0.436148    36A     -0.414713
      37A     -0.405798    38A     -0.366343    39A     -0.322840

  @DF-RHF Final Energy:  -503.71453329565321

   => Energetics <=

    Nuclear Repulsion Energy =            594.7723378483607348
    One-Electron Energy =               -1863.9479012236138260
    Two-Electron Energy =                 765.4610300796000502
    Total Energy =                       -503.7145332956531547
  Basis Set: (AUG-CC-PVTZ AUX)
    Blend: AUG-CC-PVTZ-RI
    Molecular point group: c1

    Geometry (in Angstrom), charge = 0, multiplicity = 1:

       Center              X                  Y                   Z               Mass
    ------------   -----------------  -----------------  -----------------  -----------------
         N           -1.826616897409    -0.169702786756    -0.003241639329    14.003074004430
         N           -0.308636897409    -1.857585786756    -0.011352639329    14.003074004430
         N           -0.304605897409     1.741861213244    -0.002076639329    14.003074004430
         N            2.015921102591     1.028254213244    -0.011004639329    14.003074004430
         N            2.689504102591    -1.204644786756     0.075489360671    14.003074004430
         C           -0.586088897409     0.427976213244     0.001670360671    12.000000000000
         C            0.375533902591    -0.545013586756     0.006270960671    12.000000000000
         C           -1.594243897409    -1.523671786756    -0.009437639329    12.000000000000
         C            1.688452102591    -0.273243786756    -0.001642639329    12.000000000000
         C           -3.102780897409     0.524924213244    -0.000264639329    12.000000000000
         C            1.020570102591     1.942698213244    -0.012272639329    12.000000000000
         H           -2.415947897409    -2.231509786756    -0.015787639329     1.007825032230
         H           -3.182809897409     1.161414213244    -0.883232639329     1.007825032230
         H           -3.899928897409    -0.219706786756    -0.009829639329     1.007825032230
         H           -3.188509897409     1.144401213244     0.894265360671     1.007825032230
         H            1.345163102591     2.981268213244    -0.016029639329     1.007825032230
         H            3.599148102591    -0.870980786756    -0.222681639329     1.007825032230
         H            2.442173102591    -2.140673786756    -0.224391639329     1.007825032230

  Basis Set: AUG-CC-PVTZ
    Blend: AUG-CC-PVTZ
  Basis Set: (AUG-CC-PVTZ AUX)
    Blend: AUG-CC-PVTZ-JKFIT
	 Reference Energy          =    -503.7145332956532116 [Eh]
	 Singles Energy            =      -0.0000000000000000 [Eh]
	 Same-Spin Energy          =      -0.5481618384640272 [Eh]
	 Opposite-Spin Energy      =      -1.6330858521272997 [Eh]
	 Correlation Energy        =      -2.1812476905913272 [Eh]
	 Total Energy              =    -505.8957809862445174 [Eh]

	 ================> DF-SCS-MP2 Energies <==================
	-----------------------------------------------------------
	 SCS Same-Spin Scale       =       0.3333333333333333 [-]
	 SCS Opposite-Spin Scale   =       1.2000000000000000 [-]
	 SCS Same-Spin Energy      =      -0.1827206128213424 [Eh]
	 SCS Opposite-Spin Energy  =      -1.9597030225527596 [Eh]
	 SCS Correlation Energy    =      -2.1424236353741022 [Eh]
	 SCS Total Energy          =    -505.8569569310272982 [Eh]
	-----------------------------------------------------------

  Dipole Moment: [D]
     X:    -2.7001      Y:    -1.0558      Z:    -0.7930     Total:     3.0057

*** Psi4 exiting successfully. Buy a developer a beer!
