                               Psi4 1.3.2 release

  ==> Input File <==

--------------------------------------------------------------------------
#psi4
#
memory 32 gb

molecule  {
0 1
  N       -1.7893040    -0.1617730    -0.0001110
  N       -0.2713240    -1.8496560    -0.0082220
  N       -0.2672930     1.7497910     0.0010540
  N        2.0532340     1.0361840    -0.0078740
  N        2.7268170    -1.1967150     0.0786200
  C       -0.5487760     0.4359060     0.0048010
  C        0.3666280    -0.6257540     0.0082110
  C       -1.5569310    -1.5157420    -0.0063070
  C        1.7257650    -0.2653140     0.0014880
  C       -3.0654680     0.5328540     0.0028660
  C        1.0578830     1.9506280    -0.0091420
  H       -2.3786350    -2.2235800    -0.0126570
  H       -3.1454970     1.1693440    -0.8801020
  H       -3.8489892    -0.2249672    -0.0397168
  H       -3.1205064     1.1718286     0.8860236
  H        1.3824760     2.9891980    -0.0128990
  H        3.6364610    -0.8630510    -0.2195510
  H        2.4794860    -2.1327440    -0.2212610
units angstrom
no_reorient  #important for SAPT in psi4, default
symmetry c1  #important for SAPT in psi4, default
}

set PROPERTIES_ORIGIN ["COM"]
properties('MP2/aug-cc-pvtz', properties = ['dipole'])
--------------------------------------------------------------------------

    Molecular point group: c1
  Charge       = 0
  Multiplicity = 1
  Basis Set: AUG-CC-PVTZ
    Blend: AUG-CC-PVTZ
  Basis Set: (AUG-CC-PVTZ AUX)
    Blend: AUG-CC-PVTZ-JKFIT

    Orbital Energies [Eh]
    ---------------------

    Doubly Occupied:

       1A    -15.632605     2A    -15.580990     3A    -15.567218
       4A    -15.560767     5A    -15.552395     6A    -11.334507
       7A    -11.322428     8A    -11.312814     9A    -11.311627
      10A    -11.288869    11A    -11.251812    12A     -1.367725
      13A     -1.296183    14A     -1.242264    15A     -1.196922
      16A     -1.151928    17A     -1.031353    18A     -0.986113
      19A     -0.890801    20A     -0.872155    21A     -0.802365
      22A     -0.753074    23A     -0.724169    24A     -0.680046
      25A     -0.673422    26A     -0.666181    27A     -0.624675
      28A     -0.607799    29A     -0.596032    30A     -0.592438
      31A     -0.572339    32A     -0.536087    33A     -0.495594
      34A     -0.492699    35A     -0.450494    36A     -0.413850
      37A     -0.408595    38A     -0.368261    39A     -0.307735

  @DF-RHF Final Energy:  -503.72433489413714

   => Energetics <=

    Nuclear Repulsion Energy =            594.4196636570674173
    One-Electron Energy =               -1863.2533322291951663
    Two-Electron Energy =                 765.1093336779906622
    Total Energy =                       -503.7243348941372005
  Basis Set: (AUG-CC-PVTZ AUX)
    Blend: AUG-CC-PVTZ-RI
    Molecular point group: c1

    Geometry (in Angstrom), charge = 0, multiplicity = 1:

       Center              X                  Y                   Z               Mass
    ------------   -----------------  -----------------  -----------------  -----------------
         N           -1.823195948070    -0.162607565627    -0.002845686439    14.003074004430
         N           -0.305215948070    -1.850490565627    -0.010956686439    14.003074004430
         N           -0.301184948070     1.748956434373    -0.001680686439    14.003074004430
         N            2.019342051930     1.035349434373    -0.010608686439    14.003074004430
         N            2.692925051930    -1.197549565627     0.075885313561    14.003074004430
         C           -0.582667948070     0.435071434373     0.002066313561    12.000000000000
         C            0.332736051930    -0.626588565627     0.005476313561    12.000000000000
         C           -1.590822948070    -1.516576565627    -0.009041686439    12.000000000000
         C            1.691873051930    -0.266148565627    -0.001246686439    12.000000000000
         C           -3.099359948070     0.532019434373     0.000131313561    12.000000000000
         C            1.023991051930     1.949793434373    -0.011876686439    12.000000000000
         H           -2.412526948070    -2.224414565627    -0.015391686439     1.007825032230
         H           -3.179388948070     1.168509434373    -0.882836686439     1.007825032230
         H           -3.882881148070    -0.225801765627    -0.042451486439     1.007825032230
         H           -3.154398348070     1.170994034373     0.883288913561     1.007825032230
         H            1.348584051930     2.988363434373    -0.015633686439     1.007825032230
         H            3.602569051930    -0.863885565627    -0.222285686439     1.007825032230
         H            2.445594051930    -2.133578565627    -0.223995686439     1.007825032230

  Basis Set: AUG-CC-PVTZ
    Blend: AUG-CC-PVTZ
  Basis Set: (AUG-CC-PVTZ AUX)
    Blend: AUG-CC-PVTZ-JKFIT
	 Reference Energy          =    -503.7243348941371437 [Eh]
	 Singles Energy            =      -0.0000000000000000 [Eh]
	 Same-Spin Energy          =      -0.5493357632742615 [Eh]
	 Opposite-Spin Energy      =      -1.6332228035832692 [Eh]
	 Correlation Energy        =      -2.1825585668575309 [Eh]
	 Total Energy              =    -505.9068934609946950 [Eh]

	 ================> DF-SCS-MP2 Energies <==================
	-----------------------------------------------------------
	 SCS Same-Spin Scale       =       0.3333333333333333 [-]
	 SCS Opposite-Spin Scale   =       1.2000000000000000 [-]
	 SCS Same-Spin Energy      =      -0.1831119210914205 [Eh]
	 SCS Opposite-Spin Energy  =      -1.9598673642999229 [Eh]
	 SCS Correlation Energy    =      -2.1429792853913434 [Eh]
	 SCS Total Energy          =    -505.8673141795284778 [Eh]
	-----------------------------------------------------------

  Dipole Moment: [D]
     X:    -2.7224      Y:    -1.1493      Z:    -0.8114     Total:     3.0644

*** Psi4 exiting successfully. Buy a developer a beer!
