                               Psi4 1.4a3.dev225

  ==> Input File <==

--------------------------------------------------------------------------
#psi4
#
memory 32 gb

molecule  {
0 1
  N       -1.7889380    -0.1640290    -0.0179520
  N       -0.2703210    -1.8482040    -0.0023970
  N       -0.2671710     1.7490810    -0.0033560
  N        2.0541740     1.0368940    -0.0085470
  N        2.7206340    -1.1973270     0.0732090
  C       -0.5486140     0.4351420     0.0045870
  C        0.3650590    -0.6247560     0.0169900
  C       -1.5535436    -1.5358389    -0.0162495
  C        1.7266360    -0.2641570     0.0048060
  C       -3.0641060     0.5324820     0.0177850
  C        1.0564750     1.9508360    -0.0110870
  H       -2.3762040    -2.2259510    -0.0342240
  H       -2.9284720     1.5041700    -0.4579320
  H       -3.8067760    -0.0485880    -0.5312030
  H       -3.3972360     0.6796990     1.0480130
  H        1.3812150     2.9891510    -0.0228070
  H        3.6427950    -0.8729100    -0.1905990
  H        2.4748820    -2.1409930    -0.1987870
units angstrom
no_reorient  #important for SAPT in psi4, default
symmetry c1  #important for SAPT in psi4, default
}

set PROPERTIES_ORIGIN ["COM"]
properties('MP2/aug-cc-pvtz', properties = ['dipole'])
--------------------------------------------------------------------------

    Molecular point group: c1
  Charge       = 0
  Multiplicity = 1
  Basis Set: AUG-CC-PVTZ
    Blend: AUG-CC-PVTZ
  Basis Set: (AUG-CC-PVTZ AUX)
    Blend: AUG-CC-PVTZ-JKFIT

    Orbital Energies [Eh]
    ---------------------

    Doubly Occupied:

       1A    -15.629957     2A    -15.581615     3A    -15.568752
       4A    -15.559521     5A    -15.551419     6A    -11.335235
       7A    -11.321044     8A    -11.312953     9A    -11.311999
      10A    -11.285505    11A    -11.250641    12A     -1.364076
      13A     -1.295385    14A     -1.243303    15A     -1.196565
      16A     -1.151451    17A     -1.031675    18A     -0.982296
      19A     -0.890161    20A     -0.871198    21A     -0.803417
      22A     -0.753686    23A     -0.724373    24A     -0.679958
      25A     -0.674475    26A     -0.663701    27A     -0.627880
      28A     -0.605055    29A     -0.595663    30A     -0.592932
      31A     -0.570748    32A     -0.535744    33A     -0.495933
      34A     -0.490314    35A     -0.450511    36A     -0.414365
      37A     -0.407992    38A     -0.366085    39A     -0.308528

  @DF-RHF Final Energy:  -503.72510337415798

   => Energetics <=

    Nuclear Repulsion Energy =            594.2902546657194307
    One-Electron Energy =               -1863.0384943371250301
    Two-Electron Energy =                 765.0231362972476745
    Total Energy =                       -503.7251033741579249
  Basis Set: (AUG-CC-PVTZ AUX)
    Blend: AUG-CC-PVTZ-RI
    Molecular point group: c1

    Geometry (in Angstrom), charge = 0, multiplicity = 1:

       Center              X                  Y                   Z               Mass
    ------------   -----------------  -----------------  -----------------  -----------------
         N           -1.822604682898    -0.163201737889    -0.020534209846    14.003074004430
         N           -0.303987682898    -1.847376737889    -0.004979209846    14.003074004430
         N           -0.300837682898     1.749908262111    -0.005938209846    14.003074004430
         N            2.020507317102     1.037721262111    -0.011129209846    14.003074004430
         N            2.686967317102    -1.196499737889     0.070626790154    14.003074004430
         C           -0.582280682898     0.435969262111     0.002004790154    12.000000000000
         C            0.331392317102    -0.623928737889     0.014407790154    12.000000000000
         C           -1.587210282898    -1.535011637889    -0.018831709846    12.000000000000
         C            1.692969317102    -0.263329737889     0.002223790154    12.000000000000
         C           -3.097772682898     0.533309262111     0.015202790154    12.000000000000
         C            1.022808317102     1.951663262111    -0.013669209846    12.000000000000
         H           -2.409870682898    -2.225123737889    -0.036806209846     1.007825032230
         H           -2.962138682898     1.504997262111    -0.460514209846     1.007825032230
         H           -3.840442682898    -0.047760737889    -0.533785209846     1.007825032230
         H           -3.430902682898     0.680526262111     1.045430790154     1.007825032230
         H            1.347548317102     2.989978262111    -0.025389209846     1.007825032230
         H            3.609128317102    -0.872082737889    -0.193181209846     1.007825032230
         H            2.441215317102    -2.140165737889    -0.201369209846     1.007825032230

  Basis Set: AUG-CC-PVTZ
    Blend: AUG-CC-PVTZ
  Basis Set: (AUG-CC-PVTZ AUX)
    Blend: AUG-CC-PVTZ-JKFIT
	 Reference Energy          =    -503.7251033741579818 [Eh]
	 Singles Energy            =      -0.0000000000000000 [Eh]
	 Same-Spin Energy          =      -0.5489815390795220 [Eh]
	 Opposite-Spin Energy      =      -1.6325896134037312 [Eh]
	 Correlation Energy        =      -2.1815711524832531 [Eh]
	 Total Energy              =    -505.9066745266412113 [Eh]

	 ================> DF-SCS-MP2 Energies <==================
	-----------------------------------------------------------
	 SCS Same-Spin Scale       =       0.3333333333333333 [-]
	 SCS Opposite-Spin Scale   =       1.2000000000000000 [-]
	 SCS Same-Spin Energy      =      -0.1829938463598406 [Eh]
	 SCS Opposite-Spin Energy  =      -1.9591075360844774 [Eh]
	 SCS Correlation Energy    =      -2.1421013824443182 [Eh]
	 SCS Total Energy          =    -505.8672047566022911 [Eh]
	-----------------------------------------------------------

  Dipole Moment: [D]
     X:    -2.5960      Y:    -1.2651      Z:    -0.7131     Total:     2.9746

*** Psi4 exiting successfully. Buy a developer a beer!
