                               Psi4 1.4a3.dev225

  ==> Input File <==

--------------------------------------------------------------------------
#psi4
#
memory 32 gb

molecule  {
0 1
  N       -1.7889380    -0.1640290    -0.0179520
  N       -0.2703210    -1.8482040    -0.0023970
  N       -0.2671710     1.7490810    -0.0033560
  N        2.0541740     1.0368940    -0.0085470
  N        2.7206340    -1.1973270     0.0732090
  C       -0.5486140     0.4351420     0.0045870
  C        0.3520010    -0.6096082     0.0168127
  C       -1.5569260    -1.5161270    -0.0162740
  C        1.7266360    -0.2641570     0.0048060
  C       -3.0641060     0.5324820     0.0177850
  C        1.0564750     1.9508360    -0.0110870
  H       -2.3762040    -2.2259510    -0.0342240
  H       -2.9284720     1.5041700    -0.4579320
  H       -3.8067760    -0.0485880    -0.5312030
  H       -3.3972360     0.6796990     1.0480130
  H        1.3812150     2.9891510    -0.0228070
  H        3.6427950    -0.8729100    -0.1905990
  H        2.4748820    -2.1409930    -0.1987870
units angstrom
no_reorient  #important for SAPT in psi4, default
symmetry c1  #important for SAPT in psi4, default
}

set PROPERTIES_ORIGIN ["COM"]
properties('MP2/aug-cc-pvtz', properties = ['dipole'])
--------------------------------------------------------------------------

    Molecular point group: c1
  Charge       = 0
  Multiplicity = 1
  Basis Set: AUG-CC-PVTZ
    Blend: AUG-CC-PVTZ
  Basis Set: (AUG-CC-PVTZ AUX)
    Blend: AUG-CC-PVTZ-JKFIT

    Orbital Energies [Eh]
    ---------------------

    Doubly Occupied:

       1A    -15.630794     2A    -15.583021     3A    -15.567081
       4A    -15.559351     5A    -15.551396     6A    -11.336498
       7A    -11.320495     8A    -11.311336     9A    -11.309785
      10A    -11.286400    11A    -11.249712    12A     -1.367951
      13A     -1.296202    14A     -1.242556    15A     -1.195288
      16A     -1.151943    17A     -1.032443    18A     -0.984040
      19A     -0.889939    20A     -0.870706    21A     -0.805049
      22A     -0.754222    23A     -0.723753    24A     -0.681664
      25A     -0.673221    26A     -0.666154    27A     -0.624679
      28A     -0.606398    29A     -0.594765    30A     -0.591807
      31A     -0.570930    32A     -0.536861    33A     -0.495139
      34A     -0.490813    35A     -0.450680    36A     -0.413419
      37A     -0.408068    38A     -0.367998    39A     -0.308571

  @DF-RHF Final Energy:  -503.72507766035278

   => Energetics <=

    Nuclear Repulsion Energy =            594.7926647886639557
    One-Electron Energy =               -1864.0332276701537921
    Two-Electron Energy =                 765.5154852211371690
    Total Energy =                       -503.7250776603527811
  Basis Set: (AUG-CC-PVTZ AUX)
    Blend: AUG-CC-PVTZ-RI
    Molecular point group: c1

    Geometry (in Angstrom), charge = 0, multiplicity = 1:

       Center              X                  Y                   Z               Mass
    ------------   -----------------  -----------------  -----------------  -----------------
         N           -1.821281246876    -0.166007909435    -0.020517965145    14.003074004430
         N           -0.302664246876    -1.850182909435    -0.004962965145    14.003074004430
         N           -0.299514246876     1.747102090565    -0.005921965145    14.003074004430
         N            2.021830753124     1.034915090565    -0.011112965145    14.003074004430
         N            2.688290753124    -1.199305909435     0.070643034855    14.003074004430
         C           -0.580957246876     0.433163090565     0.002021034855    12.000000000000
         C            0.319657753124    -0.611587109435     0.014246734855    12.000000000000
         C           -1.589269246876    -1.518105909435    -0.018839965145    12.000000000000
         C            1.694292753124    -0.266135909435     0.002240034855    12.000000000000
         C           -3.096449246876     0.530503090565     0.015219034855    12.000000000000
         C            1.024131753124     1.948857090565    -0.013652965145    12.000000000000
         H           -2.408547246876    -2.227929909435    -0.036789965145     1.007825032230
         H           -2.960815246876     1.502191090565    -0.460497965145     1.007825032230
         H           -3.839119246876    -0.050566909435    -0.533768965145     1.007825032230
         H           -3.429579246876     0.677720090565     1.045447034855     1.007825032230
         H            1.348871753124     2.987172090565    -0.025372965145     1.007825032230
         H            3.610451753124    -0.874888909435    -0.193164965145     1.007825032230
         H            2.442538753124    -2.142971909435    -0.201352965145     1.007825032230

  Basis Set: AUG-CC-PVTZ
    Blend: AUG-CC-PVTZ
  Basis Set: (AUG-CC-PVTZ AUX)
    Blend: AUG-CC-PVTZ-JKFIT
	 Reference Energy          =    -503.7250776603527811 [Eh]
	 Singles Energy            =      -0.0000000000000000 [Eh]
	 Same-Spin Energy          =      -0.5490025675425132 [Eh]
	 Opposite-Spin Energy      =      -1.6326529608194522 [Eh]
	 Correlation Energy        =      -2.1816555283619654 [Eh]
	 Total Energy              =    -505.9067331887147247 [Eh]

	 ================> DF-SCS-MP2 Energies <==================
	-----------------------------------------------------------
	 SCS Same-Spin Scale       =       0.3333333333333333 [-]
	 SCS Opposite-Spin Scale   =       1.2000000000000000 [-]
	 SCS Same-Spin Energy      =      -0.1830008558475044 [Eh]
	 SCS Opposite-Spin Energy  =      -1.9591835529833426 [Eh]
	 SCS Correlation Energy    =      -2.1421844088308468 [Eh]
	 SCS Total Energy          =    -505.8672620691836528 [Eh]
	-----------------------------------------------------------

  Dipole Moment: [D]
     X:    -2.5818      Y:    -1.2134      Z:    -0.7127     Total:     2.9404

*** Psi4 exiting successfully. Buy a developer a beer!
