                               Psi4 1.3.2 release

  ==> Input File <==

--------------------------------------------------------------------------
#psi4
#
memory 32 gb

molecule  {
0 1
  N       -1.7893040    -0.1617730    -0.0001110
  N       -0.2684590    -1.8384248    -0.0081278
  N       -0.2672930     1.7497910     0.0010540
  N        2.0532340     1.0361840    -0.0078740
  N        2.7268170    -1.1967150     0.0786200
  C       -0.5487760     0.4359060     0.0048010
  C        0.3666280    -0.6257540     0.0082110
  C       -1.5569310    -1.5157420    -0.0063070
  C        1.7257650    -0.2653140     0.0014880
  C       -3.0654680     0.5328540     0.0028660
  C        1.0578830     1.9506280    -0.0091420
  H       -2.3847809    -2.2163826    -0.0126018
  H       -3.1454970     1.1693440    -0.8801020
  H       -3.8626160    -0.2117770    -0.0066990
  H       -3.1511970     1.1523310     0.8973960
  H        1.3824760     2.9891980    -0.0128990
  H        3.6364610    -0.8630510    -0.2195510
  H        2.4794860    -2.1327440    -0.2212610
units angstrom
no_reorient  #important for SAPT in psi4, default
symmetry c1  #important for SAPT in psi4, default
}

set PROPERTIES_ORIGIN ["COM"]
properties('MP2/aug-cc-pvtz', properties = ['dipole'])
--------------------------------------------------------------------------

    Molecular point group: c1
  Charge       = 0
  Multiplicity = 1
  Basis Set: AUG-CC-PVTZ
    Blend: AUG-CC-PVTZ
  Basis Set: (AUG-CC-PVTZ AUX)
    Blend: AUG-CC-PVTZ-JKFIT

    Orbital Energies [Eh]
    ---------------------

    Doubly Occupied:

       1A    -15.632926     2A    -15.581065     3A    -15.566212
       4A    -15.560403     5A    -15.552281     6A    -11.334464
       7A    -11.322214     8A    -11.312199     9A    -11.311256
      10A    -11.288615    11A    -11.251203    12A     -1.368661
      13A     -1.296102    14A     -1.242539    15A     -1.198041
      16A     -1.151798    17A     -1.030897    18A     -0.986461
      19A     -0.891323    20A     -0.871711    21A     -0.803058
      22A     -0.753520    23A     -0.724681    24A     -0.680310
      25A     -0.674029    26A     -0.666468    27A     -0.625658
      28A     -0.606557    29A     -0.597340    30A     -0.591792
      31A     -0.571790    32A     -0.536912    33A     -0.495645
      34A     -0.491849    35A     -0.450575    36A     -0.414557
      37A     -0.408095    38A     -0.368484    39A     -0.306707

  @DF-RHF Final Energy:  -503.72491338276853

   => Energetics <=

    Nuclear Repulsion Energy =            594.6590992894416559
    One-Electron Energy =               -1863.7312258294887215
    Two-Electron Energy =                 765.3472131572784747
    Total Energy =                       -503.7249133827685910
  Basis Set: (AUG-CC-PVTZ AUX)
    Blend: AUG-CC-PVTZ-RI
    Molecular point group: c1

    Geometry (in Angstrom), charge = 0, multiplicity = 1:

       Center              X                  Y                   Z               Mass
    ------------   -----------------  -----------------  -----------------  -----------------
         N           -1.823123905677    -0.163668598262    -0.003155019178    14.003074004430
         N           -0.302278905677    -1.840320398262    -0.011171819178    14.003074004430
         N           -0.301112905677     1.747895401738    -0.001990019178    14.003074004430
         N            2.019414094323     1.034288401738    -0.010918019178    14.003074004430
         N            2.692997094323    -1.198610598262     0.075575980822    14.003074004430
         C           -0.582595905677     0.434010401738     0.001756980822    12.000000000000
         C            0.332808094323    -0.627649598262     0.005166980822    12.000000000000
         C           -1.590750905677    -1.517637598262    -0.009351019178    12.000000000000
         C            1.691945094323    -0.267209598262    -0.001556019178    12.000000000000
         C           -3.099287905677     0.530958401738    -0.000178019178    12.000000000000
         C            1.024063094323     1.948732401738    -0.012186019178    12.000000000000
         H           -2.418600805677    -2.218278198262    -0.015645819178     1.007825032230
         H           -3.179316905677     1.167448401738    -0.883146019178     1.007825032230
         H           -3.896435905677    -0.213672598262    -0.009743019178     1.007825032230
         H           -3.185016905677     1.150435401738     0.894351980822     1.007825032230
         H            1.348656094323     2.987302401738    -0.015943019178     1.007825032230
         H            3.602641094323    -0.864946598262    -0.222595019178     1.007825032230
         H            2.445666094323    -2.134639598262    -0.224305019178     1.007825032230

  Basis Set: AUG-CC-PVTZ
    Blend: AUG-CC-PVTZ
  Basis Set: (AUG-CC-PVTZ AUX)
    Blend: AUG-CC-PVTZ-JKFIT
	 Reference Energy          =    -503.7249133827685341 [Eh]
	 Singles Energy            =      -0.0000000000000000 [Eh]
	 Same-Spin Energy          =      -0.5494170981493839 [Eh]
	 Opposite-Spin Energy      =      -1.6330817261882207 [Eh]
	 Correlation Energy        =      -2.1824988243376047 [Eh]
	 Total Energy              =    -505.9074122071061197 [Eh]

	 ================> DF-SCS-MP2 Energies <==================
	-----------------------------------------------------------
	 SCS Same-Spin Scale       =       0.3333333333333333 [-]
	 SCS Opposite-Spin Scale   =       1.2000000000000000 [-]
	 SCS Same-Spin Energy      =      -0.1831390327164613 [Eh]
	 SCS Opposite-Spin Energy  =      -1.9596980714258647 [Eh]
	 SCS Correlation Energy    =      -2.1428371041423260 [Eh]
	 SCS Total Energy          =    -505.8677504869108361 [Eh]
	-----------------------------------------------------------

  Dipole Moment: [D]
     X:    -2.7460      Y:    -1.1789      Z:    -0.7889     Total:     3.0907

*** Psi4 exiting successfully. Buy a developer a beer!
