                               Psi4 1.3.2 release

  ==> Input File <==

--------------------------------------------------------------------------
#psi4
#
memory 32 gb

molecule  {
0 1
  N       -1.7893040    -0.1617730    -0.0001110
  N       -0.2713240    -1.8496560    -0.0082220
  N       -0.2672930     1.7497910     0.0010540
  N        2.0532340     1.0361840    -0.0078740
  N        2.7268170    -1.1967150     0.0786200
  C       -0.5671650     0.4197689     0.0049605
  C        0.3666280    -0.6257540     0.0082110
  C       -1.5569310    -1.5157420    -0.0063070
  C        1.7318491    -0.2890889     0.0016124
  C       -3.0654680     0.5328540     0.0028660
  C        1.0578830     1.9506280    -0.0091420
  H       -2.3786350    -2.2235800    -0.0126570
  H       -3.1454970     1.1693440    -0.8801020
  H       -3.8626160    -0.2117770    -0.0066990
  H       -3.1511970     1.1523310     0.8973960
  H        1.3824760     2.9891980    -0.0128990
  H        3.6364610    -0.8630510    -0.2195510
  H        2.4794860    -2.1327440    -0.2212610
units angstrom
no_reorient  #important for SAPT in psi4, default
symmetry c1  #important for SAPT in psi4, default
}

set PROPERTIES_ORIGIN ["COM"]
properties('MP2/aug-cc-pvtz', properties = ['dipole'])
--------------------------------------------------------------------------

    Molecular point group: c1
  Charge       = 0
  Multiplicity = 1
  Basis Set: AUG-CC-PVTZ
    Blend: AUG-CC-PVTZ
  Basis Set: (AUG-CC-PVTZ AUX)
    Blend: AUG-CC-PVTZ-JKFIT

    Orbital Energies [Eh]
    ---------------------

    Doubly Occupied:

       1A    -15.634760     2A    -15.585336     3A    -15.567797
       4A    -15.557217     5A    -15.549709     6A    -11.336160
       7A    -11.321058     8A    -11.312366     9A    -11.308642
      10A    -11.289979    11A    -11.250565    12A     -1.372116
      13A     -1.293059    14A     -1.242364    15A     -1.200511
      16A     -1.144943    17A     -1.030740    18A     -0.988993
      19A     -0.891510    20A     -0.866979    21A     -0.804647
      22A     -0.754146    23A     -0.727301    24A     -0.682570
      25A     -0.673331    26A     -0.668642    27A     -0.624973
      28A     -0.605641    29A     -0.596150    30A     -0.591027
      31A     -0.575722    32A     -0.538443    33A     -0.494779
      34A     -0.489308    35A     -0.446222    36A     -0.415416
      37A     -0.406023    38A     -0.363305    39A     -0.307398

  @DF-RHF Final Energy:  -503.72275631428460

   => Energetics <=

    Nuclear Repulsion Energy =            594.2001168551267938
    One-Electron Energy =               -1862.8260459666166753
    Two-Electron Energy =                 764.9031727972052295
    Total Energy =                       -503.7227563142845383
  Basis Set: (AUG-CC-PVTZ AUX)
    Blend: AUG-CC-PVTZ-RI
    Molecular point group: c1

    Geometry (in Angstrom), charge = 0, multiplicity = 1:

       Center              X                  Y                   Z               Mass
    ------------   -----------------  -----------------  -----------------  -----------------
         N           -1.821905797149    -0.159352046188    -0.003168650871    14.003074004430
         N           -0.303925797149    -1.847235046188    -0.011279650871    14.003074004430
         N           -0.299894797149     1.752211953812    -0.002003650871    14.003074004430
         N            2.020632202851     1.038604953812    -0.010931650871    14.003074004430
         N            2.694215202851    -1.194294046188     0.075562349129    14.003074004430
         C           -0.599766797149     0.422189853812     0.001902849129    12.000000000000
         C            0.334026202851    -0.623333046188     0.005153349129    12.000000000000
         C           -1.589532797149    -1.513321046188    -0.009364650871    12.000000000000
         C            1.699247302851    -0.286667946188    -0.001445250871    12.000000000000
         C           -3.098069797149     0.535274953812    -0.000191650871    12.000000000000
         C            1.025281202851     1.953048953812    -0.012199650871    12.000000000000
         H           -2.411236797149    -2.221159046188    -0.015714650871     1.007825032230
         H           -3.178098797149     1.171764953812    -0.883159650871     1.007825032230
         H           -3.895217797149    -0.209356046188    -0.009756650871     1.007825032230
         H           -3.183798797149     1.154751953812     0.894338349129     1.007825032230
         H            1.349874202851     2.991618953812    -0.015956650871     1.007825032230
         H            3.603859202851    -0.860630046188    -0.222608650871     1.007825032230
         H            2.446884202851    -2.130323046188    -0.224318650871     1.007825032230

  Basis Set: AUG-CC-PVTZ
    Blend: AUG-CC-PVTZ
  Basis Set: (AUG-CC-PVTZ AUX)
    Blend: AUG-CC-PVTZ-JKFIT
	 Reference Energy          =    -503.7227563142845952 [Eh]
	 Singles Energy            =      -0.0000000000000000 [Eh]
	 Same-Spin Energy          =      -0.5493327656118696 [Eh]
	 Opposite-Spin Energy      =      -1.6333888242845176 [Eh]
	 Correlation Energy        =      -2.1827215898963872 [Eh]
	 Total Energy              =    -505.9054779041809979 [Eh]

	 ================> DF-SCS-MP2 Energies <==================
	-----------------------------------------------------------
	 SCS Same-Spin Scale       =       0.3333333333333333 [-]
	 SCS Opposite-Spin Scale   =       1.2000000000000000 [-]
	 SCS Same-Spin Energy      =      -0.1831109218706232 [Eh]
	 SCS Opposite-Spin Energy  =      -1.9600665891414211 [Eh]
	 SCS Correlation Energy    =      -2.1431775110120443 [Eh]
	 SCS Total Energy          =    -505.8659338252966222 [Eh]
	-----------------------------------------------------------

  Dipole Moment: [D]
     X:    -2.6742      Y:    -1.3589      Z:    -0.7822     Total:     3.0999

*** Psi4 exiting successfully. Buy a developer a beer!
