                               Psi4 1.3.2 release

  ==> Input File <==

--------------------------------------------------------------------------
#psi4
#
memory 32 gb

molecule  {
0 1
  N       -1.7893040    -0.1617730    -0.0001110
  N       -0.2713240    -1.8496560    -0.0082220
  N       -0.2672930     1.7497910     0.0010540
  N        2.0532340     1.0361840    -0.0078740
  N        2.7268170    -1.1967150     0.0786200
  C       -0.5487760     0.4359060     0.0048010
  C        0.3666280    -0.6257540     0.0082110
  C       -1.7505079    -1.4654638    -0.0060187
  C        1.7257650    -0.2653140     0.0014880
  C       -3.0654680     0.5328540     0.0028660
  C        1.0578830     1.9506280    -0.0091420
  H       -2.3786350    -2.2235800    -0.0126570
  H       -3.1454970     1.1693440    -0.8801020
  H       -3.8626160    -0.2117770    -0.0066990
  H       -3.1511970     1.1523310     0.8973960
  H        1.3824760     2.9891980    -0.0128990
  H        3.6364610    -0.8630510    -0.2195510
  H        2.4794860    -2.1327440    -0.2212610
units angstrom
no_reorient  #important for SAPT in psi4, default
symmetry c1  #important for SAPT in psi4, default
}

set PROPERTIES_ORIGIN ["COM"]
properties('MP2/aug-cc-pvtz', properties = ['dipole'])
--------------------------------------------------------------------------

    Molecular point group: c1
  Charge       = 0
  Multiplicity = 1
  Basis Set: AUG-CC-PVTZ
    Blend: AUG-CC-PVTZ
  Basis Set: (AUG-CC-PVTZ AUX)
    Blend: AUG-CC-PVTZ-JKFIT

    Orbital Energies [Eh]
    ---------------------

    Doubly Occupied:

       1A    -15.654985     2A    -15.581534     3A    -15.566036
       4A    -15.564173     5A    -15.555327     6A    -11.335916
       7A    -11.327364     8A    -11.310002     9A    -11.309069
      10A    -11.292892    11A    -11.255511    12A     -1.373445
      13A     -1.300216    14A     -1.238309    15A     -1.165919
      16A     -1.154926    17A     -1.025748    18A     -0.992889
      19A     -0.911601    20A     -0.865305    21A     -0.813547
      22A     -0.760266    23A     -0.740324    24A     -0.694781
      25A     -0.674889    26A     -0.670758    27A     -0.617826
      28A     -0.613180    29A     -0.592654    30A     -0.582938
      31A     -0.576574    32A     -0.536140    33A     -0.491407
      34A     -0.480202    35A     -0.441850    36A     -0.408478
      37A     -0.402302    38A     -0.377162    39A     -0.286565

  @DF-RHF Final Energy:  -503.66642635968168

   => Energetics <=

    Nuclear Repulsion Energy =            592.3203946425850290
    One-Electron Energy =               -1858.8876159122023637
    Two-Electron Energy =                 762.9007949099354846
    Total Energy =                       -503.6664263596817364
  Basis Set: (AUG-CC-PVTZ AUX)
    Blend: AUG-CC-PVTZ-RI
    Molecular point group: c1

    Geometry (in Angstrom), charge = 0, multiplicity = 1:

       Center              X                  Y                   Z               Mass
    ------------   -----------------  -----------------  -----------------  -----------------
         N           -1.807313579530    -0.166612268536    -0.003169005066    14.003074004430
         N           -0.289333579530    -1.854495268536    -0.011280005066    14.003074004430
         N           -0.285302579530     1.744951731464    -0.002004005066    14.003074004430
         N            2.035224420470     1.031344731464    -0.010932005066    14.003074004430
         N            2.708807420470    -1.201554268536     0.075561994934    14.003074004430
         C           -0.566785579530     0.431066731464     0.001742994934    12.000000000000
         C            0.348618420470    -0.630593268536     0.005152994934    12.000000000000
         C           -1.768517479530    -1.470303068536    -0.009076705066    12.000000000000
         C            1.707755420470    -0.270153268536    -0.001570005066    12.000000000000
         C           -3.083477579530     0.528014731464    -0.000192005066    12.000000000000
         C            1.039873420470     1.945788731464    -0.012200005066    12.000000000000
         H           -2.396644579530    -2.228419268536    -0.015715005066     1.007825032230
         H           -3.163506579530     1.164504731464    -0.883160005066     1.007825032230
         H           -3.880625579530    -0.216616268536    -0.009757005066     1.007825032230
         H           -3.169206579530     1.147491731464     0.894337994934     1.007825032230
         H            1.364466420470     2.984358731464    -0.015957005066     1.007825032230
         H            3.618451420470    -0.867890268536    -0.222609005066     1.007825032230
         H            2.461476420470    -2.137583268536    -0.224319005066     1.007825032230

  Basis Set: AUG-CC-PVTZ
    Blend: AUG-CC-PVTZ
  Basis Set: (AUG-CC-PVTZ AUX)
    Blend: AUG-CC-PVTZ-JKFIT
	 Reference Energy          =    -503.6664263596816795 [Eh]
	 Singles Energy            =      -0.0000000000000000 [Eh]
	 Same-Spin Energy          =      -0.5556028360114420 [Eh]
	 Opposite-Spin Energy      =      -1.6447003339055670 [Eh]
	 Correlation Energy        =      -2.2003031699170092 [Eh]
	 Total Energy              =    -505.8667295295986719 [Eh]

	 ================> DF-SCS-MP2 Energies <==================
	-----------------------------------------------------------
	 SCS Same-Spin Scale       =       0.3333333333333333 [-]
	 SCS Opposite-Spin Scale   =       1.2000000000000000 [-]
	 SCS Same-Spin Energy      =      -0.1852009453371473 [Eh]
	 SCS Opposite-Spin Energy  =      -1.9736404006866803 [Eh]
	 SCS Correlation Energy    =      -2.1588413460238276 [Eh]
	 SCS Total Energy          =    -505.8252677057055280 [Eh]
	-----------------------------------------------------------

  Dipole Moment: [D]
     X:    -2.8666      Y:    -0.7691      Z:    -0.7841     Total:     3.0698

*** Psi4 exiting successfully. Buy a developer a beer!
