                               Psi4 1.4a3.dev225

  ==> Input File <==

--------------------------------------------------------------------------
#psi4
#
memory 32 gb

molecule  {
0 1
  N       -1.7889380    -0.1640290    -0.0179520
  N       -0.2703210    -1.8482040    -0.0023970
  N       -0.2671710     1.7490810    -0.0033560
  N        2.0541740     1.0368940    -0.0085470
  N        2.7206340    -1.1973270     0.0732090
  C       -0.5486140     0.4351420     0.0045870
  C        0.3650590    -0.6247560     0.0169900
  C       -1.5569260    -1.5161270    -0.0162740
  C        1.7266360    -0.2641570     0.0048060
  C       -3.0641060     0.5324820     0.0177850
  C        1.0564750     1.9508360    -0.0110870
  H       -2.3762040    -2.2259510    -0.0342240
  H       -2.9284720     1.5041700    -0.4579320
  H       -3.8067760    -0.0485880    -0.5312030
  H       -3.3972360     0.6796990     1.0480130
  H        1.3812150     2.9891510    -0.0228070
  H        3.6245801    -0.8793180    -0.1853881
  H        2.4748820    -2.1409930    -0.1987870
units angstrom
no_reorient  #important for SAPT in psi4, default
symmetry c1  #important for SAPT in psi4, default
}

set PROPERTIES_ORIGIN ["COM"]
properties('MP2/aug-cc-pvtz', properties = ['dipole'])
--------------------------------------------------------------------------

    Molecular point group: c1
  Charge       = 0
  Multiplicity = 1
  Basis Set: AUG-CC-PVTZ
    Blend: AUG-CC-PVTZ
  Basis Set: (AUG-CC-PVTZ AUX)
    Blend: AUG-CC-PVTZ-JKFIT

    Orbital Energies [Eh]
    ---------------------

    Doubly Occupied:

       1A    -15.632156     2A    -15.579593     3A    -15.567361
       4A    -15.559981     5A    -15.551693     6A    -11.334880
       7A    -11.320941     8A    -11.312571     9A    -11.311501
      10A    -11.287090    11A    -11.250790    12A     -1.367708
      13A     -1.296594    14A     -1.243867    15A     -1.197113
      16A     -1.152549    17A     -1.031147    18A     -0.985462
      19A     -0.891017    20A     -0.872199    21A     -0.803647
      22A     -0.754746    23A     -0.725704    24A     -0.683814
      25A     -0.674282    26A     -0.666269    27A     -0.625012
      28A     -0.607056    29A     -0.595135    30A     -0.592655
      31A     -0.571472    32A     -0.536907    33A     -0.495767
      34A     -0.491287    35A     -0.450415    36A     -0.414275
      37A     -0.408206    38A     -0.367638    39A     -0.306988

  @DF-RHF Final Energy:  -503.72538677046401

   => Energetics <=

    Nuclear Repulsion Energy =            594.7210947995671404
    One-Electron Energy =               -1863.8579870183077674
    Two-Electron Energy =                 765.4115054482766709
    Total Energy =                       -503.7253867704640697
  Basis Set: (AUG-CC-PVTZ AUX)
    Blend: AUG-CC-PVTZ-RI
    Molecular point group: c1

    Geometry (in Angstrom), charge = 0, multiplicity = 1:

       Center              X                  Y                   Z               Mass
    ------------   -----------------  -----------------  -----------------  -----------------
         N           -1.822209256758    -0.164745203596    -0.020567467179    14.003074004430
         N           -0.303592256758    -1.848920203596    -0.005012467179    14.003074004430
         N           -0.300442256758     1.748364796404    -0.005971467179    14.003074004430
         N            2.020902743242     1.036177796404    -0.011162467179    14.003074004430
         N            2.687362743242    -1.198043203596     0.070593532821    14.003074004430
         C           -0.581885256758     0.434425796404     0.001971532821    12.000000000000
         C            0.331787743242    -0.625472203596     0.014374532821    12.000000000000
         C           -1.590197256758    -1.516843203596    -0.018889467179    12.000000000000
         C            1.693364743242    -0.264873203596     0.002190532821    12.000000000000
         C           -3.097377256758     0.531765796404     0.015169532821    12.000000000000
         C            1.023203743242     1.950119796404    -0.013702467179    12.000000000000
         H           -2.409475256758    -2.226667203596    -0.036839467179     1.007825032230
         H           -2.961743256758     1.503453796404    -0.460547467179     1.007825032230
         H           -3.840047256758    -0.049304203596    -0.533818467179     1.007825032230
         H           -3.430507256758     0.678982796404     1.045397532821     1.007825032230
         H            1.347943743242     2.988434796404    -0.025422467179     1.007825032230
         H            3.591308843242    -0.880034203596    -0.188003567179     1.007825032230
         H            2.441610743242    -2.141709203596    -0.201402467179     1.007825032230

  Basis Set: AUG-CC-PVTZ
    Blend: AUG-CC-PVTZ
  Basis Set: (AUG-CC-PVTZ AUX)
    Blend: AUG-CC-PVTZ-JKFIT
	 Reference Energy          =    -503.7253867704640129 [Eh]
	 Singles Energy            =      -0.0000000000000000 [Eh]
	 Same-Spin Energy          =      -0.5491870374118974 [Eh]
	 Opposite-Spin Energy      =      -1.6325630949126269 [Eh]
	 Correlation Energy        =      -2.1817501323245243 [Eh]
	 Total Energy              =    -505.9071369027885225 [Eh]

	 ================> DF-SCS-MP2 Energies <==================
	-----------------------------------------------------------
	 SCS Same-Spin Scale       =       0.3333333333333333 [-]
	 SCS Opposite-Spin Scale   =       1.2000000000000000 [-]
	 SCS Same-Spin Energy      =      -0.1830623458039658 [Eh]
	 SCS Opposite-Spin Energy  =      -1.9590757138951522 [Eh]
	 SCS Correlation Energy    =      -2.1421380596991182 [Eh]
	 SCS Total Energy          =    -505.8675248301631200 [Eh]
	-----------------------------------------------------------

  Dipole Moment: [D]
     X:    -2.6607      Y:    -1.2081      Z:    -0.7096     Total:     3.0070

*** Psi4 exiting successfully. Buy a developer a beer!
