                               Psi4 1.3.2 release

  ==> Input File <==

--------------------------------------------------------------------------
#psi4
#
memory 32 gb

molecule  {
0 1
  N       -1.8094069    -0.1181148    -0.0001830
  N       -0.2713240    -1.8496560    -0.0082220
  N       -0.2672930     1.7497910     0.0010540
  N        2.0532340     1.0361840    -0.0078740
  N        2.7268170    -1.1967150     0.0786200
  C       -0.5487760     0.4359060     0.0048010
  C        0.4031215    -0.5931599     0.0083576
  C       -1.5569310    -1.5157420    -0.0063070
  C        1.7257650    -0.2653140     0.0014880
  C       -3.0654680     0.5328540     0.0028660
  C        1.0578830     1.9506280    -0.0091420
  H       -2.3786350    -2.2235800    -0.0126570
  H       -3.1454970     1.1693440    -0.8801020
  H       -3.8626160    -0.2117770    -0.0066990
  H       -3.1511970     1.1523310     0.8973960
  H        1.3824760     2.9891980    -0.0128990
  H        3.6364610    -0.8630510    -0.2195510
  H        2.4794860    -2.1327440    -0.2212610
units angstrom
no_reorient  #important for SAPT in psi4, default
symmetry c1  #important for SAPT in psi4, default
}

set PROPERTIES_ORIGIN ["COM"]
properties('MP2/aug-cc-pvtz', properties = ['dipole'])
--------------------------------------------------------------------------

    Molecular point group: c1
  Charge       = 0
  Multiplicity = 1
  Basis Set: AUG-CC-PVTZ
    Blend: AUG-CC-PVTZ
  Basis Set: (AUG-CC-PVTZ AUX)
    Blend: AUG-CC-PVTZ-JKFIT

    Orbital Energies [Eh]
    ---------------------

    Doubly Occupied:

       1A    -15.631434     2A    -15.580008     3A    -15.575096
       4A    -15.560150     5A    -15.551869     6A    -11.329901
       7A    -11.329375     8A    -11.319888     9A    -11.312004
      10A    -11.284743    11A    -11.251731    12A     -1.359886
      13A     -1.296622    14A     -1.241869    15A     -1.196282
      16A     -1.152242    17A     -1.036275    18A     -0.986235
      19A     -0.887570    20A     -0.873680    21A     -0.805257
      22A     -0.754174    23A     -0.721303    24A     -0.679406
      25A     -0.672510    26A     -0.667043    27A     -0.627852
      28A     -0.611613    29A     -0.597919    30A     -0.593341
      31A     -0.572178    32A     -0.531136    33A     -0.495300
      34A     -0.492731    35A     -0.445275    36A     -0.414464
      37A     -0.409721    38A     -0.364281    39A     -0.316594

  @DF-RHF Final Energy:  -503.71808939003773

   => Energetics <=

    Nuclear Repulsion Energy =            593.9798633715286087
    One-Electron Energy =               -1862.3379877407653566
    Two-Electron Energy =                 764.6400349791990720
    Total Energy =                       -503.7180893900376759
  Basis Set: (AUG-CC-PVTZ AUX)
    Blend: AUG-CC-PVTZ-RI
    Molecular point group: c1

    Geometry (in Angstrom), charge = 0, multiplicity = 1:

       Center              X                  Y                   Z               Mass
    ------------   -----------------  -----------------  -----------------  -----------------
         N           -1.844048531505    -0.125631598667    -0.003222834954    14.003074004430
         N           -0.305965631505    -1.857172798667    -0.011261834954    14.003074004430
         N           -0.301934631505     1.742274201333    -0.001985834954    14.003074004430
         N            2.018592368495     1.028667201333    -0.010913834954    14.003074004430
         N            2.692175368495    -1.204231798667     0.075580165046    14.003074004430
         C           -0.583417631505     0.428389201333     0.001761165046    12.000000000000
         C            0.368479868495    -0.600676698667     0.005317765046    12.000000000000
         C           -1.591572631505    -1.523258798667    -0.009346834954    12.000000000000
         C            1.691123368495    -0.272830798667    -0.001551834954    12.000000000000
         C           -3.100109631505     0.525337201333    -0.000173834954    12.000000000000
         C            1.023241368495     1.943111201333    -0.012181834954    12.000000000000
         H           -2.413276631505    -2.231096798667    -0.015696834954     1.007825032230
         H           -3.180138631505     1.161827201333    -0.883141834954     1.007825032230
         H           -3.897257631505    -0.219293798667    -0.009738834954     1.007825032230
         H           -3.185838631505     1.144814201333     0.894356165046     1.007825032230
         H            1.347834368495     2.981681201333    -0.015938834954     1.007825032230
         H            3.601819368495    -0.870567798667    -0.222590834954     1.007825032230
         H            2.444844368495    -2.140260798667    -0.224300834954     1.007825032230

  Basis Set: AUG-CC-PVTZ
    Blend: AUG-CC-PVTZ
  Basis Set: (AUG-CC-PVTZ AUX)
    Blend: AUG-CC-PVTZ-JKFIT
	 Reference Energy          =    -503.7180893900377328 [Eh]
	 Singles Energy            =      -0.0000000000000000 [Eh]
	 Same-Spin Energy          =      -0.5487974232175645 [Eh]
	 Opposite-Spin Energy      =      -1.6337065654281373 [Eh]
	 Correlation Energy        =      -2.1825039886457018 [Eh]
	 Total Energy              =    -505.9005933786834248 [Eh]

	 ================> DF-SCS-MP2 Energies <==================
	-----------------------------------------------------------
	 SCS Same-Spin Scale       =       0.3333333333333333 [-]
	 SCS Opposite-Spin Scale   =       1.2000000000000000 [-]
	 SCS Same-Spin Energy      =      -0.1829324744058548 [Eh]
	 SCS Opposite-Spin Energy  =      -1.9604478785137647 [Eh]
	 SCS Correlation Energy    =      -2.1433803529196194 [Eh]
	 SCS Total Energy          =    -505.8614697429573539 [Eh]
	-----------------------------------------------------------

  Dipole Moment: [D]
     X:    -2.6600      Y:    -1.2143      Z:    -0.7930     Total:     3.0296

*** Psi4 exiting successfully. Buy a developer a beer!
