                               Psi4 1.3.2 release

  ==> Input File <==

--------------------------------------------------------------------------
#psi4
#
memory 32 gb

molecule  {
0 1
  N       -1.7893040    -0.1617730    -0.0001110
  N       -0.2713240    -1.8496560    -0.0082220
  N       -0.2672930     1.7497910     0.0010540
  N        2.0532340     1.0361840    -0.0078740
  N        2.7268170    -1.1967150     0.0786200
  C       -0.5602307     0.4384126     0.0048839
  C        0.3666280    -0.6257540     0.0082110
  C       -1.5569310    -1.5157420    -0.0063070
  C        1.7257650    -0.2653140     0.0014880
  C       -3.0654680     0.5328540     0.0028660
  C        1.0560799     1.9621849    -0.0091428
  H       -2.3786350    -2.2235800    -0.0126570
  H       -3.1454970     1.1693440    -0.8801020
  H       -3.8626160    -0.2117770    -0.0066990
  H       -3.1511970     1.1523310     0.8973960
  H        1.3824760     2.9891980    -0.0128990
  H        3.6364610    -0.8630510    -0.2195510
  H        2.4794860    -2.1327440    -0.2212610
units angstrom
no_reorient  #important for SAPT in psi4, default
symmetry c1  #important for SAPT in psi4, default
}

set PROPERTIES_ORIGIN ["COM"]
properties('MP2/aug-cc-pvtz', properties = ['dipole'])
--------------------------------------------------------------------------

    Molecular point group: c1
  Charge       = 0
  Multiplicity = 1
  Basis Set: AUG-CC-PVTZ
    Blend: AUG-CC-PVTZ
  Basis Set: (AUG-CC-PVTZ AUX)
    Blend: AUG-CC-PVTZ-JKFIT

    Orbital Energies [Eh]
    ---------------------

    Doubly Occupied:

       1A    -15.634258     2A    -15.580116     3A    -15.568107
       4A    -15.560681     5A    -15.551988     6A    -11.333570
       7A    -11.322342     8A    -11.313441     9A    -11.311958
      10A    -11.289267    11A    -11.252241    12A     -1.369161
      13A     -1.294103    14A     -1.241603    15A     -1.197648
      16A     -1.149412    17A     -1.030432    18A     -0.986973
      19A     -0.890743    20A     -0.873204    21A     -0.801764
      22A     -0.752787    23A     -0.725677    24A     -0.680710
      25A     -0.673781    26A     -0.667472    27A     -0.624436
      28A     -0.605380    29A     -0.597880    30A     -0.591390
      31A     -0.573925    32A     -0.536513    33A     -0.495050
      34A     -0.492882    35A     -0.450158    36A     -0.414365
      37A     -0.406533    38A     -0.366583    39A     -0.306978

  @DF-RHF Final Energy:  -503.72403545891808

   => Energetics <=

    Nuclear Repulsion Energy =            594.0315929741276477
    One-Electron Energy =               -1862.4802364194622442
    Two-Electron Energy =                 764.7246079864165722
    Total Energy =                       -503.7240354589181379
  Basis Set: (AUG-CC-PVTZ AUX)
    Blend: AUG-CC-PVTZ-RI
    Molecular point group: c1

    Geometry (in Angstrom), charge = 0, multiplicity = 1:

       Center              X                  Y                   Z               Mass
    ------------   -----------------  -----------------  -----------------  -----------------
         N           -1.821829089637    -0.163697020823    -0.003152406169    14.003074004430
         N           -0.303849089637    -1.851580020823    -0.011263406169    14.003074004430
         N           -0.299818089637     1.747866979177    -0.001987406169    14.003074004430
         N            2.020708910363     1.034259979177    -0.010915406169    14.003074004430
         N            2.694291910363    -1.198639020823     0.075578593831    14.003074004430
         C           -0.592755789637     0.436488579177     0.001842493831    12.000000000000
         C            0.334102910363    -0.627678020823     0.005169593831    12.000000000000
         C           -1.589456089637    -1.517666020823    -0.009348406169    12.000000000000
         C            1.693239910363    -0.267238020823    -0.001553406169    12.000000000000
         C           -3.097993089637     0.530929979177    -0.000175406169    12.000000000000
         C            1.023554810363     1.960260879177    -0.012184206169    12.000000000000
         H           -2.411160089637    -2.225504020823    -0.015698406169     1.007825032230
         H           -3.178022089637     1.167419979177    -0.883143406169     1.007825032230
         H           -3.895141089637    -0.213701020823    -0.009740406169     1.007825032230
         H           -3.183722089637     1.150406979177     0.894354593831     1.007825032230
         H            1.349950910363     2.987273979177    -0.015940406169     1.007825032230
         H            3.603935910363    -0.864975020823    -0.222592406169     1.007825032230
         H            2.446960910363    -2.134668020823    -0.224302406169     1.007825032230

  Basis Set: AUG-CC-PVTZ
    Blend: AUG-CC-PVTZ
  Basis Set: (AUG-CC-PVTZ AUX)
    Blend: AUG-CC-PVTZ-JKFIT
	 Reference Energy          =    -503.7240354589180811 [Eh]
	 Singles Energy            =      -0.0000000000000000 [Eh]
	 Same-Spin Energy          =      -0.5494688566645597 [Eh]
	 Opposite-Spin Energy      =      -1.6333973267172048 [Eh]
	 Correlation Energy        =      -2.1828661833817646 [Eh]
	 Total Energy              =    -505.9069016422998288 [Eh]

	 ================> DF-SCS-MP2 Energies <==================
	-----------------------------------------------------------
	 SCS Same-Spin Scale       =       0.3333333333333333 [-]
	 SCS Opposite-Spin Scale   =       1.2000000000000000 [-]
	 SCS Same-Spin Energy      =      -0.1831562855548532 [Eh]
	 SCS Opposite-Spin Energy  =      -1.9600767920606457 [Eh]
	 SCS Correlation Energy    =      -2.1432330776154989 [Eh]
	 SCS Total Energy          =    -505.8672685365335724 [Eh]
	-----------------------------------------------------------

  Dipole Moment: [D]
     X:    -2.7960      Y:    -1.1387      Z:    -0.7895     Total:     3.1205

*** Psi4 exiting successfully. Buy a developer a beer!
