                               Psi4 1.3.2 release

  ==> Input File <==

--------------------------------------------------------------------------
#psi4
#
memory 32 gb

molecule  {
0 1
  N       -1.7893040    -0.1617730    -0.0001110
  N       -0.2713240    -1.8496560    -0.0082220
  N       -0.2902664     1.7545034     0.0010325
  N        2.0532340     1.0361840    -0.0078740
  N        2.7268170    -1.1967150     0.0786200
  C       -0.5487760     0.4359060     0.0048010
  C        0.3479600    -0.6415683     0.0082510
  C       -1.5569310    -1.5157420    -0.0063070
  C        1.7257650    -0.2653140     0.0014880
  C       -3.0654680     0.5328540     0.0028660
  C        1.0578830     1.9506280    -0.0091420
  H       -2.3786350    -2.2235800    -0.0126570
  H       -3.1454970     1.1693440    -0.8801020
  H       -3.8626160    -0.2117770    -0.0066990
  H       -3.1511970     1.1523310     0.8973960
  H        1.3824760     2.9891980    -0.0128990
  H        3.6364610    -0.8630510    -0.2195510
  H        2.4794860    -2.1327440    -0.2212610
units angstrom
no_reorient  #important for SAPT in psi4, default
symmetry c1  #important for SAPT in psi4, default
}

set PROPERTIES_ORIGIN ["COM"]
properties('MP2/aug-cc-pvtz', properties = ['dipole'])
--------------------------------------------------------------------------

    Molecular point group: c1
  Charge       = 0
  Multiplicity = 1
  Basis Set: AUG-CC-PVTZ
    Blend: AUG-CC-PVTZ
  Basis Set: (AUG-CC-PVTZ AUX)
    Blend: AUG-CC-PVTZ-JKFIT

    Orbital Energies [Eh]
    ---------------------

    Doubly Occupied:

       1A    -15.631878     2A    -15.582567     3A    -15.566413
       4A    -15.562875     5A    -15.554891     6A    -11.337728
       7A    -11.321332     8A    -11.315117     9A    -11.310518
      10A    -11.287641    11A    -11.252867    12A     -1.369096
      13A     -1.294310    14A     -1.241249    15A     -1.200116
      16A     -1.152434    17A     -1.027565    18A     -0.985561
      19A     -0.890573    20A     -0.869559    21A     -0.802110
      22A     -0.752147    23A     -0.726297    24A     -0.680163
      25A     -0.672396    26A     -0.665773    27A     -0.624840
      28A     -0.603476    29A     -0.595088    30A     -0.588897
      31A     -0.569843    32A     -0.537314    33A     -0.494980
      34A     -0.493861    35A     -0.455174    36A     -0.415730
      37A     -0.409226    38A     -0.370088    39A     -0.302928

  @DF-RHF Final Energy:  -503.72146804662310

   => Energetics <=

    Nuclear Repulsion Energy =            593.9347817749969636
    One-Electron Energy =               -1862.2832642753337495
    Two-Electron Energy =                 764.6270144537136275
    Total Energy =                       -503.7214680466231584
  Basis Set: (AUG-CC-PVTZ AUX)
    Blend: AUG-CC-PVTZ-RI
    Molecular point group: c1

    Geometry (in Angstrom), charge = 0, multiplicity = 1:

       Center              X                  Y                   Z               Mass
    ------------   -----------------  -----------------  -----------------  -----------------
         N           -1.819235541347    -0.161734551990    -0.003146997534    14.003074004430
         N           -0.301255541347    -1.849617551990    -0.011257997534    14.003074004430
         N           -0.320197941347     1.754541848010    -0.002003497534    14.003074004430
         N            2.023302458653     1.036222448010    -0.010909997534    14.003074004430
         N            2.696885458653    -1.196676551990     0.075584002466    14.003074004430
         C           -0.578707541347     0.435944448010     0.001765002466    12.000000000000
         C            0.318028458653    -0.641529851990     0.005215002466    12.000000000000
         C           -1.586862541347    -1.515703551990    -0.009342997534    12.000000000000
         C            1.695833458653    -0.265275551990    -0.001547997534    12.000000000000
         C           -3.095399541347     0.532892448010    -0.000169997534    12.000000000000
         C            1.027951458653     1.950666448010    -0.012177997534    12.000000000000
         H           -2.408566541347    -2.223541551990    -0.015692997534     1.007825032230
         H           -3.175428541347     1.169382448010    -0.883137997534     1.007825032230
         H           -3.892547541347    -0.211738551990    -0.009734997534     1.007825032230
         H           -3.181128541347     1.152369448010     0.894360002466     1.007825032230
         H            1.352544458653     2.989236448010    -0.015934997534     1.007825032230
         H            3.606529458653    -0.863012551990    -0.222586997534     1.007825032230
         H            2.449554458653    -2.132705551990    -0.224296997534     1.007825032230

  Basis Set: AUG-CC-PVTZ
    Blend: AUG-CC-PVTZ
  Basis Set: (AUG-CC-PVTZ AUX)
    Blend: AUG-CC-PVTZ-JKFIT
	 Reference Energy          =    -503.7214680466231016 [Eh]
	 Singles Energy            =      -0.0000000000000000 [Eh]
	 Same-Spin Energy          =      -0.5498955776658059 [Eh]
	 Opposite-Spin Energy      =      -1.6341532592468213 [Eh]
	 Correlation Energy        =      -2.1840488369126270 [Eh]
	 Total Energy              =    -505.9055168835357108 [Eh]

	 ================> DF-SCS-MP2 Energies <==================
	-----------------------------------------------------------
	 SCS Same-Spin Scale       =       0.3333333333333333 [-]
	 SCS Opposite-Spin Scale   =       1.2000000000000000 [-]
	 SCS Same-Spin Energy      =      -0.1832985258886020 [Eh]
	 SCS Opposite-Spin Energy  =      -1.9609839110961855 [Eh]
	 SCS Correlation Energy    =      -2.1442824369847875 [Eh]
	 SCS Total Energy          =    -505.8657504836078829 [Eh]
	-----------------------------------------------------------

  Dipole Moment: [D]
     X:    -2.6463      Y:    -1.2111      Z:    -0.7872     Total:     3.0149

*** Psi4 exiting successfully. Buy a developer a beer!
