                               Psi4 1.3.2 release

  ==> Input File <==

--------------------------------------------------------------------------
#psi4
#
memory 32 gb

molecule  {
0 1
  N       -1.7893040    -0.1617730    -0.0001110
  N       -0.2713240    -1.8496560    -0.0082220
  N       -0.2635860     1.7266934     0.0010556
  N        2.0532340     1.0361840    -0.0078740
  N        2.7268170    -1.1967150     0.0786200
  C       -0.5487760     0.4359060     0.0048010
  C        0.3666280    -0.6257540     0.0082110
  C       -1.5569310    -1.5157420    -0.0063070
  C        1.7257650    -0.2653140     0.0014880
  C       -3.0654680     0.5328540     0.0028660
  C        1.0578830     1.9506280    -0.0091420
  H       -2.3786350    -2.2235800    -0.0126570
  H       -3.1454970     1.1693440    -0.8801020
  H       -3.8626160    -0.2117770    -0.0066990
  H       -3.1511970     1.1523310     0.8973960
  H        1.4005517     2.9833746    -0.0130272
  H        3.6364610    -0.8630510    -0.2195510
  H        2.4794860    -2.1327440    -0.2212610
units angstrom
no_reorient  #important for SAPT in psi4, default
symmetry c1  #important for SAPT in psi4, default
}

set PROPERTIES_ORIGIN ["COM"]
properties('MP2/aug-cc-pvtz', properties = ['dipole'])
--------------------------------------------------------------------------

    Molecular point group: c1
  Charge       = 0
  Multiplicity = 1
  Basis Set: AUG-CC-PVTZ
    Blend: AUG-CC-PVTZ
  Basis Set: (AUG-CC-PVTZ AUX)
    Blend: AUG-CC-PVTZ-JKFIT

    Orbital Energies [Eh]
    ---------------------

    Doubly Occupied:

       1A    -15.631952     2A    -15.579853     3A    -15.566602
       4A    -15.558410     5A    -15.552477     6A    -11.332985
       7A    -11.322479     8A    -11.312159     9A    -11.311166
      10A    -11.288436    11A    -11.250869    12A     -1.368286
      13A     -1.297109    14A     -1.244206    15A     -1.196316
      16A     -1.153489    17A     -1.030592    18A     -0.985614
      19A     -0.890925    20A     -0.874391    21A     -0.802423
      22A     -0.754126    23A     -0.724042    24A     -0.680634
      25A     -0.674710    26A     -0.666666    27A     -0.624765
      28A     -0.605759    29A     -0.597810    30A     -0.592260
      31A     -0.572302    32A     -0.536226    33A     -0.497026
      34A     -0.492650    35A     -0.450412    36A     -0.413793
      37A     -0.406755    38A     -0.369389    39A     -0.305873

  @DF-RHF Final Energy:  -503.72529216794368

   => Energetics <=

    Nuclear Repulsion Energy =            594.9797151313027825
    One-Electron Energy =               -1864.3781370673370930
    Two-Electron Energy =                 765.6731297680905755
    Total Energy =                       -503.7252921679437350
  Basis Set: (AUG-CC-PVTZ AUX)
    Blend: AUG-CC-PVTZ-RI
    Molecular point group: c1

    Geometry (in Angstrom), charge = 0, multiplicity = 1:

       Center              X                  Y                   Z               Mass
    ------------   -----------------  -----------------  -----------------  -----------------
         N           -1.823366755934    -0.160355853015    -0.003145080771    14.003074004430
         N           -0.305386755934    -1.848238853015    -0.011256080771    14.003074004430
         N           -0.297648755934     1.728110546985    -0.001978480771    14.003074004430
         N            2.019171244066     1.037601146985    -0.010908080771    14.003074004430
         N            2.692754244066    -1.195297853015     0.075585919229    14.003074004430
         C           -0.582838755934     0.437323146985     0.001766919229    12.000000000000
         C            0.332565244066    -0.624336853015     0.005176919229    12.000000000000
         C           -1.590993755934    -1.514324853015    -0.009341080771    12.000000000000
         C            1.691702244066    -0.263896853015    -0.001546080771    12.000000000000
         C           -3.099530755934     0.534271146985    -0.000168080771    12.000000000000
         C            1.023820244066     1.952045146985    -0.012176080771    12.000000000000
         H           -2.412697755934    -2.222162853015    -0.015691080771     1.007825032230
         H           -3.179559755934     1.170761146985    -0.883136080771     1.007825032230
         H           -3.896678755934    -0.210359853015    -0.009733080771     1.007825032230
         H           -3.185259755934     1.153748146985     0.894361919229     1.007825032230
         H            1.366488944066     2.984791746985    -0.016061280771     1.007825032230
         H            3.602398244066    -0.861633853015    -0.222585080771     1.007825032230
         H            2.445423244066    -2.131326853015    -0.224295080771     1.007825032230

  Basis Set: AUG-CC-PVTZ
    Blend: AUG-CC-PVTZ
  Basis Set: (AUG-CC-PVTZ AUX)
    Blend: AUG-CC-PVTZ-JKFIT
	 Reference Energy          =    -503.7252921679436781 [Eh]
	 Singles Energy            =      -0.0000000000000000 [Eh]
	 Same-Spin Energy          =      -0.5492896325830889 [Eh]
	 Opposite-Spin Energy      =      -1.6326744142856027 [Eh]
	 Correlation Energy        =      -2.1819640468686918 [Eh]
	 Total Energy              =    -505.9072562148123779 [Eh]

	 ================> DF-SCS-MP2 Energies <==================
	-----------------------------------------------------------
	 SCS Same-Spin Scale       =       0.3333333333333333 [-]
	 SCS Opposite-Spin Scale   =       1.2000000000000000 [-]
	 SCS Same-Spin Energy      =      -0.1830965441943630 [Eh]
	 SCS Opposite-Spin Energy  =      -1.9592092971427231 [Eh]
	 SCS Correlation Energy    =      -2.1423058413370861 [Eh]
	 SCS Total Energy          =    -505.8675980092807549 [Eh]
	-----------------------------------------------------------

  Dipole Moment: [D]
     X:    -2.7408      Y:    -1.0903      Z:    -0.7896     Total:     3.0535

*** Psi4 exiting successfully. Buy a developer a beer!
