                               Psi4 1.3.2 release

  ==> Input File <==

--------------------------------------------------------------------------
#psi4
#
memory 32 gb

molecule  {
0 1
  N       -1.7893040    -0.1617730    -0.0001110
  N       -0.2713240    -1.8496560    -0.0082220
  N       -0.2672930     1.7497910     0.0010540
  N        2.0532340     1.0361840    -0.0078740
  N        2.7268170    -1.1967150     0.0786200
  C       -0.5487760     0.4359060     0.0048010
  C        0.4590657    -0.4484136     0.0105921
  C       -1.5569310    -1.5157420    -0.0063070
  C        1.7257650    -0.2653140     0.0014880
  C       -3.0654680     0.5328540     0.0028660
  C        1.0578830     1.9506280    -0.0091420
  H       -2.3786350    -2.2235800    -0.0126570
  H       -3.1454970     1.1693440    -0.8801020
  H       -3.8626160    -0.2117770    -0.0066990
  H       -3.1511970     1.1523310     0.8973960
  H        1.3824760     2.9891980    -0.0128990
  H        3.6364610    -0.8630510    -0.2195510
  H        2.4794860    -2.1327440    -0.2212610
units angstrom
no_reorient  #important for SAPT in psi4, default
symmetry c1  #important for SAPT in psi4, default
}

set PROPERTIES_ORIGIN ["COM"]
properties('MP2/aug-cc-pvtz', properties = ['dipole'])
--------------------------------------------------------------------------

    Molecular point group: c1
  Charge       = 0
  Multiplicity = 1
  Basis Set: AUG-CC-PVTZ
    Blend: AUG-CC-PVTZ
  Basis Set: (AUG-CC-PVTZ AUX)
    Blend: AUG-CC-PVTZ-JKFIT

    Orbital Energies [Eh]
    ---------------------

    Doubly Occupied:

       1A    -15.629773     2A    -15.580890     3A    -15.567861
       4A    -15.562001     5A    -15.552214     6A    -11.325585
       7A    -11.321444     8A    -11.320609     9A    -11.311238
      10A    -11.289995    11A    -11.244842    12A     -1.362474
      13A     -1.305068    14A     -1.240821    15A     -1.169201
      16A     -1.153089    17A     -1.052648    18A     -0.984650
      19A     -0.899237    20A     -0.873762    21A     -0.815365
      22A     -0.756858    23A     -0.710736    24A     -0.681453
      25A     -0.671496    26A     -0.667360    27A     -0.639097
      28A     -0.613403    29A     -0.600480    30A     -0.587185
      31A     -0.574652    32A     -0.534711    33A     -0.493397
      34A     -0.488513    35A     -0.420375    36A     -0.414890
      37A     -0.401941    38A     -0.364733    39A     -0.335516

  @DF-RHF Final Energy:  -503.68074398584793

   => Energetics <=

    Nuclear Repulsion Energy =            595.3621410441841135
    One-Electron Energy =               -1865.0466454528539089
    Two-Electron Energy =                 766.0037604228219834
    Total Energy =                       -503.6807439858479256
  Basis Set: (AUG-CC-PVTZ AUX)
    Blend: AUG-CC-PVTZ-RI
    Molecular point group: c1

    Geometry (in Angstrom), charge = 0, multiplicity = 1:

       Center              X                  Y                   Z               Mass
    ------------   -----------------  -----------------  -----------------  -----------------
         N           -1.830337473378    -0.176840650601    -0.003337473407    14.003074004430
         N           -0.312357473378    -1.864723650601    -0.011448473407    14.003074004430
         N           -0.308326473378     1.734723349399    -0.002172473407    14.003074004430
         N            2.012200526622     1.021116349399    -0.011100473407    14.003074004430
         N            2.685783526622    -1.211782650601     0.075393526593    14.003074004430
         C           -0.589809473378     0.420838349399     0.001574526593    12.000000000000
         C            0.418032226622    -0.463481250601     0.007365626593    12.000000000000
         C           -1.597964473378    -1.530809650601    -0.009533473407    12.000000000000
         C            1.684731526622    -0.280381650601    -0.001738473407    12.000000000000
         C           -3.106501473378     0.517786349399    -0.000360473407    12.000000000000
         C            1.016849526622     1.935560349399    -0.012368473407    12.000000000000
         H           -2.419668473378    -2.238647650601    -0.015883473407     1.007825032230
         H           -3.186530473378     1.154276349399    -0.883328473407     1.007825032230
         H           -3.903649473378    -0.226844650601    -0.009925473407     1.007825032230
         H           -3.192230473378     1.137263349399     0.894169526593     1.007825032230
         H            1.341442526622     2.974130349399    -0.016125473407     1.007825032230
         H            3.595427526622    -0.878118650601    -0.222777473407     1.007825032230
         H            2.438452526622    -2.147811650601    -0.224487473407     1.007825032230

  Basis Set: AUG-CC-PVTZ
    Blend: AUG-CC-PVTZ
  Basis Set: (AUG-CC-PVTZ AUX)
    Blend: AUG-CC-PVTZ-JKFIT
	 Reference Energy          =    -503.6807439858479256 [Eh]
	 Singles Energy            =      -0.0000000000000000 [Eh]
	 Same-Spin Energy          =      -0.5483944122649278 [Eh]
	 Opposite-Spin Energy      =      -1.6349844969546554 [Eh]
	 Correlation Energy        =      -2.1833789092195834 [Eh]
	 Total Energy              =    -505.8641228950675099 [Eh]

	 ================> DF-SCS-MP2 Energies <==================
	-----------------------------------------------------------
	 SCS Same-Spin Scale       =       0.3333333333333333 [-]
	 SCS Opposite-Spin Scale   =       1.2000000000000000 [-]
	 SCS Same-Spin Energy      =      -0.1827981374216426 [Eh]
	 SCS Opposite-Spin Energy  =      -1.9619813963455863 [Eh]
	 SCS Correlation Energy    =      -2.1447795337672289 [Eh]
	 SCS Total Energy          =    -505.8255235196151602 [Eh]
	-----------------------------------------------------------

  Dipole Moment: [D]
     X:    -2.6651      Y:    -0.9527      Z:    -0.7968     Total:     2.9403

*** Psi4 exiting successfully. Buy a developer a beer!
