                               Psi4 1.3.2 release

  ==> Input File <==

--------------------------------------------------------------------------
#psi4
#
memory 32 gb

molecule  {
0 1
  N       -1.7893040    -0.1617730    -0.0001110
  N       -0.2713240    -1.8496560    -0.0082220
  N       -0.2444053     1.7446784     0.0010766
  N        2.0532340     1.0361840    -0.0078740
  N        2.7268170    -1.1967150     0.0786200
  C       -0.5487760     0.4359060     0.0048010
  C        0.3850172    -0.6096164     0.0081700
  C       -1.5569310    -1.5157420    -0.0063070
  C        1.7257650    -0.2653140     0.0014880
  C       -3.0654680     0.5328540     0.0028660
  C        1.0578830     1.9506280    -0.0091420
  H       -2.3786350    -2.2235800    -0.0126570
  H       -3.1454970     1.1693440    -0.8801020
  H       -3.8626160    -0.2117770    -0.0066990
  H       -3.1511970     1.1523310     0.8973960
  H        1.3824760     2.9891980    -0.0128990
  H        3.6364610    -0.8630510    -0.2195510
  H        2.4794860    -2.1327440    -0.2212610
units angstrom
no_reorient  #important for SAPT in psi4, default
symmetry c1  #important for SAPT in psi4, default
}

set PROPERTIES_ORIGIN ["COM"]
properties('MP2/aug-cc-pvtz', properties = ['dipole'])
--------------------------------------------------------------------------

    Molecular point group: c1
  Charge       = 0
  Multiplicity = 1
  Basis Set: AUG-CC-PVTZ
    Blend: AUG-CC-PVTZ
  Basis Set: (AUG-CC-PVTZ AUX)
    Blend: AUG-CC-PVTZ-JKFIT

    Orbital Energies [Eh]
    ---------------------

    Doubly Occupied:

       1A    -15.634322     2A    -15.579447     3A    -15.568233
       4A    -15.558429     5A    -15.549848     6A    -11.331137
       7A    -11.323671     8A    -11.315609     9A    -11.307958
      10A    -11.289821    11A    -11.250962    12A     -1.366889
      13A     -1.298459    14A     -1.243602    15A     -1.193397
      16A     -1.151226    17A     -1.035321    18A     -0.986623
      19A     -0.891642    20A     -0.873952    21A     -0.803767
      22A     -0.754796    23A     -0.721989    24A     -0.681336
      25A     -0.673944    26A     -0.667112    27A     -0.624375
      28A     -0.609754    29A     -0.598242    30A     -0.593459
      31A     -0.573798    32A     -0.536410    33A     -0.497369
      34A     -0.490362    35A     -0.445818    36A     -0.412703
      37A     -0.407431    38A     -0.366606    39A     -0.312630

  @DF-RHF Final Energy:  -503.72524209607610

   => Energetics <=

    Nuclear Repulsion Energy =            594.7566751345129887
    One-Electron Energy =               -1863.9189391805061859
    Two-Electron Energy =                 765.4370219499171526
    Total Energy =                       -503.7252420960760446
  Basis Set: (AUG-CC-PVTZ AUX)
    Blend: AUG-CC-PVTZ-RI
    Molecular point group: c1

    Geometry (in Angstrom), charge = 0, multiplicity = 1:

       Center              X                  Y                   Z               Mass
    ------------   -----------------  -----------------  -----------------  -----------------
         N           -1.826526624182    -0.163383725924    -0.003144619697    14.003074004430
         N           -0.308546624182    -1.851266725924    -0.011255619697    14.003074004430
         N           -0.281627924182     1.743067674076    -0.001957019697    14.003074004430
         N            2.016011375818     1.034573274076    -0.010907619697    14.003074004430
         N            2.689594375818    -1.198325725924     0.075586380303    14.003074004430
         C           -0.585998624182     0.434295274076     0.001767380303    12.000000000000
         C            0.347794575818    -0.611227125924     0.005136380303    12.000000000000
         C           -1.594153624182    -1.517352725924    -0.009340619697    12.000000000000
         C            1.688542375818    -0.266924725924    -0.001545619697    12.000000000000
         C           -3.102690624182     0.531243274076    -0.000167619697    12.000000000000
         C            1.020660375818     1.949017274076    -0.012175619697    12.000000000000
         H           -2.415857624182    -2.225190725924    -0.015690619697     1.007825032230
         H           -3.182719624182     1.167733274076    -0.883135619697     1.007825032230
         H           -3.899838624182    -0.213387725924    -0.009732619697     1.007825032230
         H           -3.188419624182     1.150720274076     0.894362380303     1.007825032230
         H            1.345253375818     2.987587274076    -0.015932619697     1.007825032230
         H            3.599238375818    -0.864661725924    -0.222584619697     1.007825032230
         H            2.442263375818    -2.134354725924    -0.224294619697     1.007825032230

  Basis Set: AUG-CC-PVTZ
    Blend: AUG-CC-PVTZ
  Basis Set: (AUG-CC-PVTZ AUX)
    Blend: AUG-CC-PVTZ-JKFIT
	 Reference Energy          =    -503.7252420960761015 [Eh]
	 Singles Energy            =      -0.0000000000000000 [Eh]
	 Same-Spin Energy          =      -0.5487605793839614 [Eh]
	 Opposite-Spin Energy      =      -1.6323014737955652 [Eh]
	 Correlation Energy        =      -2.1810620531795264 [Eh]
	 Total Energy              =    -505.9063041492556181 [Eh]

	 ================> DF-SCS-MP2 Energies <==================
	-----------------------------------------------------------
	 SCS Same-Spin Scale       =       0.3333333333333333 [-]
	 SCS Opposite-Spin Scale   =       1.2000000000000000 [-]
	 SCS Same-Spin Energy      =      -0.1829201931279871 [Eh]
	 SCS Opposite-Spin Energy  =      -1.9587617685546781 [Eh]
	 SCS Correlation Energy    =      -2.1416819616826652 [Eh]
	 SCS Total Energy          =    -505.8669240577587516 [Eh]
	-----------------------------------------------------------

  Dipole Moment: [D]
     X:    -2.8272      Y:    -1.1063      Z:    -0.7908     Total:     3.1373

*** Psi4 exiting successfully. Buy a developer a beer!
