                               Psi4 1.3.2 release

  ==> Input File <==

--------------------------------------------------------------------------
#psi4
#
memory 32 gb

molecule  {
0 1
  N       -1.7893040    -0.1617730    -0.0001110
  N       -0.2713240    -1.8496560    -0.0082220
  N       -0.2672930     1.7497910     0.0010540
  N        2.0532340     1.0361840    -0.0078740
  N        2.7268170    -1.1967150     0.0786200
  C       -0.5487760     0.4359060     0.0048010
  C        0.3666280    -0.6257540     0.0082110
  C       -1.5569310    -1.5157420    -0.0063070
  C        1.8719561    -0.4013334     0.0127522
  C       -3.0654680     0.5328540     0.0028660
  C        1.0578830     1.9506280    -0.0091420
  H       -2.3786350    -2.2235800    -0.0126570
  H       -3.1454970     1.1693440    -0.8801020
  H       -3.8626160    -0.2117770    -0.0066990
  H       -3.1511970     1.1523310     0.8973960
  H        1.3824760     2.9891980    -0.0128990
  H        3.6364610    -0.8630510    -0.2195510
  H        2.4794860    -2.1327440    -0.2212610
units angstrom
no_reorient  #important for SAPT in psi4, default
symmetry c1  #important for SAPT in psi4, default
}

set PROPERTIES_ORIGIN ["COM"]
properties('MP2/aug-cc-pvtz', properties = ['dipole'])
--------------------------------------------------------------------------

    Molecular point group: c1
  Charge       = 0
  Multiplicity = 1
  Basis Set: AUG-CC-PVTZ
    Blend: AUG-CC-PVTZ
  Basis Set: (AUG-CC-PVTZ AUX)
    Blend: AUG-CC-PVTZ-JKFIT

    Orbital Energies [Eh]
    ---------------------

    Doubly Occupied:

       1A    -15.622823     2A    -15.622348     3A    -15.557371
       4A    -15.539595     5A    -15.537707     6A    -11.348699
       7A    -11.306821     8A    -11.301576     9A    -11.300281
      10A    -11.280459    11A    -11.249808    12A     -1.370764
      13A     -1.349468    14A     -1.248200    15A     -1.192578
      16A     -1.127535    17A     -1.008763    18A     -0.974291
      19A     -0.888728    20A     -0.855603    21A     -0.817726
      22A     -0.778998    23A     -0.750969    24A     -0.679517
      25A     -0.676770    26A     -0.656444    27A     -0.626495
      28A     -0.613098    29A     -0.589993    30A     -0.575594
      31A     -0.560993    32A     -0.555893    33A     -0.497366
      34A     -0.476353    35A     -0.427526    36A     -0.406241
      37A     -0.383403    38A     -0.354290    39A     -0.284921

  @DF-RHF Final Energy:  -503.65318774736238

   => Energetics <=

    Nuclear Repulsion Energy =            592.7200995305852302
    One-Electron Energy =               -1859.9545568025835109
    Two-Electron Energy =                 763.5812695246358999
    Total Energy =                       -503.6531877473623808
  Basis Set: (AUG-CC-PVTZ AUX)
    Blend: AUG-CC-PVTZ-RI
    Molecular point group: c1

    Geometry (in Angstrom), charge = 0, multiplicity = 1:

       Center              X                  Y                   Z               Mass
    ------------   -----------------  -----------------  -----------------  -----------------
         N           -1.834664569182    -0.151615495062    -0.004052554216    14.003074004430
         N           -0.316684569182    -1.839498495062    -0.012163554216    14.003074004430
         N           -0.312653569182     1.759948504938    -0.002887554216    14.003074004430
         N            2.007873430818     1.046341504938    -0.011815554216    14.003074004430
         N            2.681456430818    -1.186557495062     0.074678445784    14.003074004430
         C           -0.594136569182     0.446063504938     0.000859445784    12.000000000000
         C            0.321267430818    -0.615596495062     0.004269445784    12.000000000000
         C           -1.602291569182    -1.505584495062    -0.010248554216    12.000000000000
         C            1.826595530818    -0.391175895062     0.008810645784    12.000000000000
         C           -3.110828569182     0.543011504938    -0.001075554216    12.000000000000
         C            1.012522430818     1.960785504938    -0.013083554216    12.000000000000
         H           -2.423995569182    -2.213422495062    -0.016598554216     1.007825032230
         H           -3.190857569182     1.179501504938    -0.884043554216     1.007825032230
         H           -3.907976569182    -0.201619495062    -0.010640554216     1.007825032230
         H           -3.196557569182     1.162488504938     0.893454445784     1.007825032230
         H            1.337115430818     2.999355504938    -0.016840554216     1.007825032230
         H            3.591100430818    -0.852893495062    -0.223492554216     1.007825032230
         H            2.434125430818    -2.122586495062    -0.225202554216     1.007825032230

  Basis Set: AUG-CC-PVTZ
    Blend: AUG-CC-PVTZ
  Basis Set: (AUG-CC-PVTZ AUX)
    Blend: AUG-CC-PVTZ-JKFIT
	 Reference Energy          =    -503.6531877473623808 [Eh]
	 Singles Energy            =      -0.0000000000000000 [Eh]
	 Same-Spin Energy          =      -0.5504510564947814 [Eh]
	 Opposite-Spin Energy      =      -1.6349253274571298 [Eh]
	 Correlation Energy        =      -2.1853763839519114 [Eh]
	 Total Energy              =    -505.8385641313142855 [Eh]

	 ================> DF-SCS-MP2 Energies <==================
	-----------------------------------------------------------
	 SCS Same-Spin Scale       =       0.3333333333333333 [-]
	 SCS Opposite-Spin Scale   =       1.2000000000000000 [-]
	 SCS Same-Spin Energy      =      -0.1834836854982605 [Eh]
	 SCS Opposite-Spin Energy  =      -1.9619103929485557 [Eh]
	 SCS Correlation Energy    =      -2.1453940784468162 [Eh]
	 SCS Total Energy          =    -505.7985818258092081 [Eh]
	-----------------------------------------------------------

  Dipole Moment: [D]
     X:    -1.0404      Y:    -2.4720      Z:    -0.7134     Total:     2.7753

*** Psi4 exiting successfully. Buy a developer a beer!
