                               Psi4 1.3.2 release

  ==> Input File <==

--------------------------------------------------------------------------
#psi4
#
memory 32 gb

molecule  {
0 1
  N       -1.7893040    -0.1617730    -0.0001110
  N       -0.2742869    -1.8608618    -0.0083160
  N       -0.2672930     1.7497910     0.0010540
  N        2.0532340     1.0361840    -0.0078740
  N        2.7268170    -1.1967150     0.0786200
  C       -0.5487760     0.4359060     0.0048010
  C        0.3666280    -0.6257540     0.0082110
  C       -1.5569310    -1.5157420    -0.0063070
  C        1.7257650    -0.2653140     0.0014880
  C       -3.0654680     0.5328540     0.0028660
  C        1.0578830     1.9506280    -0.0091420
  H       -2.3724265    -2.2307235    -0.0127117
  H       -3.1454970     1.1693440    -0.8801020
  H       -3.8626160    -0.2117770    -0.0066990
  H       -3.1511970     1.1523310     0.8973960
  H        1.3824760     2.9891980    -0.0128990
  H        3.6364610    -0.8630510    -0.2195510
  H        2.4794860    -2.1327440    -0.2212610
units angstrom
no_reorient  #important for SAPT in psi4, default
symmetry c1  #important for SAPT in psi4, default
}

set PROPERTIES_ORIGIN ["COM"]
properties('MP2/aug-cc-pvtz', properties = ['dipole'])
--------------------------------------------------------------------------

    Molecular point group: c1
  Charge       = 0
  Multiplicity = 1
  Basis Set: AUG-CC-PVTZ
    Blend: AUG-CC-PVTZ
  Basis Set: (AUG-CC-PVTZ AUX)
    Blend: AUG-CC-PVTZ-JKFIT

    Orbital Energies [Eh]
    ---------------------

    Doubly Occupied:

       1A    -15.633232     2A    -15.580948     3A    -15.568468
       4A    -15.561005     5A    -15.552483     6A    -11.334586
       7A    -11.322825     8A    -11.313834     9A    -11.311914
      10A    -11.288838    11A    -11.252544    12A     -1.366964
      13A     -1.296255    14A     -1.242012    15A     -1.195659
      16A     -1.152003    17A     -1.031859    18A     -0.985649
      19A     -0.890170    20A     -0.872482    21A     -0.802543
      22A     -0.753450    23A     -0.723572    24A     -0.680957
      25A     -0.672611    26A     -0.666331    27A     -0.623603
      28A     -0.606288    29A     -0.596081    30A     -0.590979
      31A     -0.571836    32A     -0.536689    33A     -0.495528
      34A     -0.493457    35A     -0.450431    36A     -0.413975
      37A     -0.408929    38A     -0.368298    39A     -0.308836

  @DF-RHF Final Energy:  -503.72455587571267

   => Energetics <=

    Nuclear Repulsion Energy =            594.0003916321689985
    One-Electron Energy =               -1862.4136437156403190
    Two-Electron Energy =                 764.6886962077587668
    Total Energy =                       -503.7245558757126673
  Basis Set: (AUG-CC-PVTZ AUX)
    Blend: AUG-CC-PVTZ-RI
    Molecular point group: c1

    Geometry (in Angstrom), charge = 0, multiplicity = 1:

       Center              X                  Y                   Z               Mass
    ------------   -----------------  -----------------  -----------------  -----------------
         N           -1.822659980179    -0.161463997945    -0.003136597390    14.003074004430
         N           -0.307642880179    -1.860552797945    -0.011341597390    14.003074004430
         N           -0.300648980179     1.750100002055    -0.001971597390    14.003074004430
         N            2.019878019821     1.036493002055    -0.010899597390    14.003074004430
         N            2.693461019821    -1.196405997945     0.075594402610    14.003074004430
         C           -0.582131980179     0.436215002055     0.001775402610    12.000000000000
         C            0.333272019821    -0.625444997945     0.005185402610    12.000000000000
         C           -1.590286980179    -1.515432997945    -0.009332597390    12.000000000000
         C            1.692409019821    -0.265004997945    -0.001537597390    12.000000000000
         C           -3.098823980179     0.533163002055    -0.000159597390    12.000000000000
         C            1.024527019821     1.950937002055    -0.012167597390    12.000000000000
         H           -2.405782480179    -2.230414497945    -0.015737297390     1.007825032230
         H           -3.178852980179     1.169653002055    -0.883127597390     1.007825032230
         H           -3.895971980179    -0.211467997945    -0.009724597390     1.007825032230
         H           -3.184552980179     1.152640002055     0.894370402610     1.007825032230
         H            1.349120019821     2.989507002055    -0.015924597390     1.007825032230
         H            3.603105019821    -0.862741997945    -0.222576597390     1.007825032230
         H            2.446130019821    -2.132434997945    -0.224286597390     1.007825032230

  Basis Set: AUG-CC-PVTZ
    Blend: AUG-CC-PVTZ
  Basis Set: (AUG-CC-PVTZ AUX)
    Blend: AUG-CC-PVTZ-JKFIT
	 Reference Energy          =    -503.7245558757126673 [Eh]
	 Singles Energy            =      -0.0000000000000000 [Eh]
	 Same-Spin Energy          =      -0.5491367437756409 [Eh]
	 Opposite-Spin Energy      =      -1.6331888519010413 [Eh]
	 Correlation Energy        =      -2.1823255956766823 [Eh]
	 Total Energy              =    -505.9068814713893403 [Eh]

	 ================> DF-SCS-MP2 Energies <==================
	-----------------------------------------------------------
	 SCS Same-Spin Scale       =       0.3333333333333333 [-]
	 SCS Opposite-Spin Scale   =       1.2000000000000000 [-]
	 SCS Same-Spin Energy      =      -0.1830455812585470 [Eh]
	 SCS Opposite-Spin Energy  =      -1.9598266222812495 [Eh]
	 SCS Correlation Energy    =      -2.1428722035397962 [Eh]
	 SCS Total Energy          =    -505.8674280792524769 [Eh]
	-----------------------------------------------------------

  Dipole Moment: [D]
     X:    -2.7217      Y:    -1.1374      Z:    -0.7890     Total:     3.0535

*** Psi4 exiting successfully. Buy a developer a beer!
