                               Psi4 1.4a3.dev225

  ==> Input File <==

--------------------------------------------------------------------------
#psi4
#
memory 32 gb

molecule  {
0 1
  N       -1.7889380    -0.1640290    -0.0179520
  N       -0.2703210    -1.8482040    -0.0023970
  N       -0.2671710     1.7490810    -0.0033560
  N        2.0541740     1.0368940    -0.0085470
  N        2.7206340    -1.1973270     0.0732090
  C       -0.5486140     0.4351420     0.0045870
  C        0.3650590    -0.6247560     0.0169900
  C       -1.5569260    -1.5161270    -0.0162740
  C        1.7266360    -0.2641570     0.0048060
  C       -3.0641060     0.5324820     0.0177850
  C        1.0564750     1.9508360    -0.0110870
  H       -2.3762040    -2.2259510    -0.0342240
  H       -2.9284720     1.5041700    -0.4579320
  H       -3.7727442    -0.0219613    -0.5060464
  H       -3.3972360     0.6796990     1.0480130
  H        1.3812150     2.9891510    -0.0228070
  H        3.6427950    -0.8729100    -0.1905990
  H        2.4748820    -2.1409930    -0.1987870
units angstrom
no_reorient  #important for SAPT in psi4, default
symmetry c1  #important for SAPT in psi4, default
}

set PROPERTIES_ORIGIN ["COM"]
properties('MP2/aug-cc-pvtz', properties = ['dipole'])
--------------------------------------------------------------------------

    Molecular point group: c1
  Charge       = 0
  Multiplicity = 1
  Basis Set: AUG-CC-PVTZ
    Blend: AUG-CC-PVTZ
  Basis Set: (AUG-CC-PVTZ AUX)
    Blend: AUG-CC-PVTZ-JKFIT

    Orbital Energies [Eh]
    ---------------------

    Doubly Occupied:

       1A    -15.631703     2A    -15.581287     3A    -15.567154
       4A    -15.559685     5A    -15.551434     6A    -11.334674
       7A    -11.320785     8A    -11.312209     9A    -11.311259
      10A    -11.281109    11A    -11.250570    12A     -1.367462
      13A     -1.295947    14A     -1.242634    15A     -1.196694
      16A     -1.151683    17A     -1.030915    18A     -0.989357
      19A     -0.890298    20A     -0.871805    21A     -0.804105
      22A     -0.754553    23A     -0.724592    24A     -0.682897
      25A     -0.673779    26A     -0.667236    27A     -0.624791
      28A     -0.606642    29A     -0.595767    30A     -0.594468
      31A     -0.574732    32A     -0.537079    33A     -0.495410
      34A     -0.491069    35A     -0.450198    36A     -0.413993
      37A     -0.407975    38A     -0.367424    39A     -0.306698

  @DF-RHF Final Energy:  -503.72404319864262

   => Energetics <=

    Nuclear Repulsion Energy =            594.8490392800097197
    One-Electron Energy =               -1864.1220157248073974
    Two-Electron Energy =                 765.5489332461550021
    Total Energy =                       -503.7240431986426756
  Basis Set: (AUG-CC-PVTZ AUX)
    Blend: AUG-CC-PVTZ-RI
    Molecular point group: c1

    Geometry (in Angstrom), charge = 0, multiplicity = 1:

       Center              X                  Y                   Z               Mass
    ------------   -----------------  -----------------  -----------------  -----------------
         N           -1.822562483301    -0.164968542733    -0.020702314943    14.003074004430
         N           -0.303945483301    -1.849143542733    -0.005147314943    14.003074004430
         N           -0.300795483301     1.748141457267    -0.006106314943    14.003074004430
         N            2.020549516699     1.035954457267    -0.011297314943    14.003074004430
         N            2.687009516699    -1.198266542733     0.070458685057    14.003074004430
         C           -0.582238483301     0.434202457267     0.001836685057    12.000000000000
         C            0.331434516699    -0.625695542733     0.014239685057    12.000000000000
         C           -1.590550483301    -1.517066542733    -0.019024314943    12.000000000000
         C            1.693011516699    -0.265096542733     0.002055685057    12.000000000000
         C           -3.097730483301     0.531542457267     0.015034685057    12.000000000000
         C            1.022850516699     1.949896457267    -0.013837314943    12.000000000000
         H           -2.409828483301    -2.226890542733    -0.036974314943     1.007825032230
         H           -2.962096483301     1.503230457267    -0.460682314943     1.007825032230
         H           -3.806368683301    -0.022900842733    -0.508796714943     1.007825032230
         H           -3.430860483301     0.678759457267     1.045262685057     1.007825032230
         H            1.347590516699     2.988211457267    -0.025557314943     1.007825032230
         H            3.609170516699    -0.873849542733    -0.193349314943     1.007825032230
         H            2.441257516699    -2.141932542733    -0.201537314943     1.007825032230

  Basis Set: AUG-CC-PVTZ
    Blend: AUG-CC-PVTZ
  Basis Set: (AUG-CC-PVTZ AUX)
    Blend: AUG-CC-PVTZ-JKFIT
	 Reference Energy          =    -503.7240431986426188 [Eh]
	 Singles Energy            =      -0.0000000000000000 [Eh]
	 Same-Spin Energy          =      -0.5493107427613253 [Eh]
	 Opposite-Spin Energy      =      -1.6326064548392973 [Eh]
	 Correlation Energy        =      -2.1819171976006224 [Eh]
	 Total Energy              =    -505.9059603962432448 [Eh]

	 ================> DF-SCS-MP2 Energies <==================
	-----------------------------------------------------------
	 SCS Same-Spin Scale       =       0.3333333333333333 [-]
	 SCS Opposite-Spin Scale   =       1.2000000000000000 [-]
	 SCS Same-Spin Energy      =      -0.1831035809204418 [Eh]
	 SCS Opposite-Spin Energy  =      -1.9591277458071568 [Eh]
	 SCS Correlation Energy    =      -2.1422313267275985 [Eh]
	 SCS Total Energy          =    -505.8662745253702155 [Eh]
	-----------------------------------------------------------

  Dipole Moment: [D]
     X:    -2.6596      Y:    -1.2054      Z:    -0.7178     Total:     3.0069

*** Psi4 exiting successfully. Buy a developer a beer!
