                               Psi4 1.3.2 release

  ==> Input File <==

--------------------------------------------------------------------------
#psi4
#
memory 32 gb

molecule  {
0 1
  N       -1.7676909    -0.2047026     0.0001947
  N       -0.2713240    -1.8496560    -0.0082220
  N       -0.2216112     1.7391680     0.0013695
  N        2.0532340     1.0361840    -0.0078740
  N        2.7268170    -1.1967150     0.0786200
  C       -0.5487760     0.4359060     0.0048010
  C        0.3666280    -0.6257540     0.0082110
  C       -1.5569310    -1.5157420    -0.0063070
  C        1.7257650    -0.2653140     0.0014880
  C       -3.0654680     0.5328540     0.0028660
  C        1.0578830     1.9506280    -0.0091420
  H       -2.3786350    -2.2235800    -0.0126570
  H       -3.1454970     1.1693440    -0.8801020
  H       -3.8626160    -0.2117770    -0.0066990
  H       -3.1511970     1.1523310     0.8973960
  H        1.3824760     2.9891980    -0.0128990
  H        3.6364610    -0.8630510    -0.2195510
  H        2.4794860    -2.1327440    -0.2212610
units angstrom
no_reorient  #important for SAPT in psi4, default
symmetry c1  #important for SAPT in psi4, default
}

set PROPERTIES_ORIGIN ["COM"]
properties('MP2/aug-cc-pvtz', properties = ['dipole'])
--------------------------------------------------------------------------

    Molecular point group: c1
  Charge       = 0
  Multiplicity = 1
  Basis Set: AUG-CC-PVTZ
    Blend: AUG-CC-PVTZ
  Basis Set: (AUG-CC-PVTZ AUX)
    Blend: AUG-CC-PVTZ-JKFIT

    Orbital Energies [Eh]
    ---------------------

    Doubly Occupied:

       1A    -15.636980     2A    -15.578798     3A    -15.561168
       4A    -15.556512     5A    -15.547620     6A    -11.332063
       7A    -11.317573     8A    -11.311190     9A    -11.303514
      10A    -11.295030    11A    -11.250400    12A     -1.375960
      13A     -1.300932    14A     -1.244801    15A     -1.191134
      16A     -1.150143    17A     -1.035425    18A     -0.987535
      19A     -0.895440    20A     -0.873437    21A     -0.802365
      22A     -0.755338    23A     -0.724048    24A     -0.683593
      25A     -0.675166    26A     -0.668191    27A     -0.621882
      28A     -0.609394    29A     -0.598478    30A     -0.593955
      31A     -0.570376    32A     -0.541997    33A     -0.499229
      34A     -0.486901    35A     -0.446125    36A     -0.411778
      37A     -0.403990    38A     -0.368476    39A     -0.308882

  @DF-RHF Final Energy:  -503.72286009057609

   => Energetics <=

    Nuclear Repulsion Energy =            595.6409933791079538
    One-Electron Energy =               -1865.6960648459951244
    Two-Electron Energy =                 766.3322113763109655
    Total Energy =                       -503.7228600905760914
  Basis Set: (AUG-CC-PVTZ AUX)
    Blend: AUG-CC-PVTZ-RI
    Molecular point group: c1

    Geometry (in Angstrom), charge = 0, multiplicity = 1:

       Center              X                  Y                   Z               Mass
    ------------   -----------------  -----------------  -----------------  -----------------
         N           -1.807604652625    -0.200463998392    -0.002898450330    14.003074004430
         N           -0.311237752625    -1.845417398392    -0.011315150330    14.003074004430
         N           -0.261524952625     1.743406601608    -0.001723650330    14.003074004430
         N            2.013320247375     1.040422601608    -0.010967150330    14.003074004430
         N            2.686903247375    -1.192476398392     0.075526849670    14.003074004430
         C           -0.588689752625     0.440144601608     0.001707849670    12.000000000000
         C            0.326714247375    -0.621515398392     0.005117849670    12.000000000000
         C           -1.596844752625    -1.511503398392    -0.009400150330    12.000000000000
         C            1.685851247375    -0.261075398392    -0.001605150330    12.000000000000
         C           -3.105381752625     0.537092601608    -0.000227150330    12.000000000000
         C            1.017969247375     1.954866601608    -0.012235150330    12.000000000000
         H           -2.418548752625    -2.219341398392    -0.015750150330     1.007825032230
         H           -3.185410752625     1.173582601608    -0.883195150330     1.007825032230
         H           -3.902529752625    -0.207538398392    -0.009792150330     1.007825032230
         H           -3.191110752625     1.156569601608     0.894302849670     1.007825032230
         H            1.342562247375     2.993436601608    -0.015992150330     1.007825032230
         H            3.596547247375    -0.858812398392    -0.222644150330     1.007825032230
         H            2.439572247375    -2.128505398392    -0.224354150330     1.007825032230

  Basis Set: AUG-CC-PVTZ
    Blend: AUG-CC-PVTZ
  Basis Set: (AUG-CC-PVTZ AUX)
    Blend: AUG-CC-PVTZ-JKFIT
	 Reference Energy          =    -503.7228600905760914 [Eh]
	 Singles Energy            =      -0.0000000000000000 [Eh]
	 Same-Spin Energy          =      -0.5489092502839197 [Eh]
	 Opposite-Spin Energy      =      -1.6313730138200073 [Eh]
	 Correlation Energy        =      -2.1802822641039272 [Eh]
	 Total Energy              =    -505.9031423546800283 [Eh]

	 ================> DF-SCS-MP2 Energies <==================
	-----------------------------------------------------------
	 SCS Same-Spin Scale       =       0.3333333333333333 [-]
	 SCS Opposite-Spin Scale   =       1.2000000000000000 [-]
	 SCS Same-Spin Energy      =      -0.1829697500946399 [Eh]
	 SCS Opposite-Spin Energy  =      -1.9576476165840087 [Eh]
	 SCS Correlation Energy    =      -2.1406173666786485 [Eh]
	 SCS Total Energy          =    -505.8634774572547599 [Eh]
	-----------------------------------------------------------

  Dipole Moment: [D]
     X:    -3.0062      Y:    -1.0114      Z:    -0.7891     Total:     3.2684

*** Psi4 exiting successfully. Buy a developer a beer!
