                               Psi4 1.3.2 release

  ==> Input File <==

--------------------------------------------------------------------------
#psi4
#
memory 32 gb

molecule  {
0 1
  N       -1.7893040    -0.1617730    -0.0001110
  N       -0.2713240    -1.8496560    -0.0082220
  N       -0.2672930     1.7497910     0.0010540
  N        2.0532340     1.0361840    -0.0078740
  N        2.7268170    -1.1967150     0.0786200
  C       -0.5487760     0.4359060     0.0048010
  C        0.3666280    -0.6257540     0.0082110
  C       -1.6537195    -1.4906029    -0.0061628
  C        1.7257650    -0.2653140     0.0014880
  C       -3.0654680     0.5328540     0.0028660
  C        1.0578830     1.9506280    -0.0091420
  H       -2.3786350    -2.2235800    -0.0126570
  H       -3.1454970     1.1693440    -0.8801020
  H       -3.8626160    -0.2117770    -0.0066990
  H       -3.1511970     1.1523310     0.8973960
  H        1.3824760     2.9891980    -0.0128990
  H        3.6364610    -0.8630510    -0.2195510
  H        2.4794860    -2.1327440    -0.2212610
units angstrom
no_reorient  #important for SAPT in psi4, default
symmetry c1  #important for SAPT in psi4, default
}

set PROPERTIES_ORIGIN ["COM"]
properties('MP2/aug-cc-pvtz', properties = ['dipole'])
--------------------------------------------------------------------------

    Molecular point group: c1
  Charge       = 0
  Multiplicity = 1
  Basis Set: AUG-CC-PVTZ
    Blend: AUG-CC-PVTZ
  Basis Set: (AUG-CC-PVTZ AUX)
    Blend: AUG-CC-PVTZ-JKFIT

    Orbital Energies [Eh]
    ---------------------

    Doubly Occupied:

       1A    -15.644001     2A    -15.581150     3A    -15.567447
       4A    -15.562424     5A    -15.553826     6A    -11.335061
       7A    -11.324794     8A    -11.311467     9A    -11.310293
      10A    -11.290967    11A    -11.253314    12A     -1.368935
      13A     -1.297909    14A     -1.239070    15A     -1.180067
      16A     -1.153391    17A     -1.027573    18A     -0.990202
      19A     -0.901899    20A     -0.868241    21A     -0.807530
      22A     -0.755307    23A     -0.730244    24A     -0.688352
      25A     -0.672058    26A     -0.669680    27A     -0.618160
      28A     -0.613312    29A     -0.594028    30A     -0.590637
      31A     -0.575127    32A     -0.535504    33A     -0.492874
      34A     -0.487778    35A     -0.446893    36A     -0.410806
      37A     -0.405598    38A     -0.373014    39A     -0.296997

  @DF-RHF Final Energy:  -503.70530743886297

   => Energetics <=

    Nuclear Repulsion Energy =            593.2709423336889358
    One-Electron Energy =               -1860.9006426890828152
    Two-Electron Energy =                 763.9243929165309055
    Total Energy =                       -503.7053074388629739
  Basis Set: (AUG-CC-PVTZ AUX)
    Blend: AUG-CC-PVTZ-RI
    Molecular point group: c1

    Geometry (in Angstrom), charge = 0, multiplicity = 1:

       Center              X                  Y                   Z               Mass
    ------------   -----------------  -----------------  -----------------  -----------------
         N           -1.815104950486    -0.164588595724    -0.003157405158    14.003074004430
         N           -0.297124950486    -1.852471595724    -0.011268405158    14.003074004430
         N           -0.293093950486     1.746975404276    -0.001992405158    14.003074004430
         N            2.027433049514     1.033368404276    -0.010920405158    14.003074004430
         N            2.701016049514    -1.199530595724     0.075573594842    14.003074004430
         C           -0.574576950486     0.433090404276     0.001754594842    12.000000000000
         C            0.340827049514    -0.628569595724     0.005164594842    12.000000000000
         C           -1.679520450486    -1.493418495724    -0.009209205158    12.000000000000
         C            1.699964049514    -0.268129595724    -0.001558405158    12.000000000000
         C           -3.091268950486     0.530038404276    -0.000180405158    12.000000000000
         C            1.032082049514     1.947812404276    -0.012188405158    12.000000000000
         H           -2.404435950486    -2.226395595724    -0.015703405158     1.007825032230
         H           -3.171297950486     1.166528404276    -0.883148405158     1.007825032230
         H           -3.888416950486    -0.214592595724    -0.009745405158     1.007825032230
         H           -3.176997950486     1.149515404276     0.894349594842     1.007825032230
         H            1.356675049514     2.986382404276    -0.015945405158     1.007825032230
         H            3.610660049514    -0.865866595724    -0.222597405158     1.007825032230
         H            2.453685049514    -2.135559595724    -0.224307405158     1.007825032230

  Basis Set: AUG-CC-PVTZ
    Blend: AUG-CC-PVTZ
  Basis Set: (AUG-CC-PVTZ AUX)
    Blend: AUG-CC-PVTZ-JKFIT
	 Reference Energy          =    -503.7053074388629739 [Eh]
	 Singles Energy            =      -0.0000000000000000 [Eh]
	 Same-Spin Energy          =      -0.5522406104572938 [Eh]
	 Opposite-Spin Energy      =      -1.6383681415288853 [Eh]
	 Correlation Energy        =      -2.1906087519861792 [Eh]
	 Total Energy              =    -505.8959161908491637 [Eh]

	 ================> DF-SCS-MP2 Energies <==================
	-----------------------------------------------------------
	 SCS Same-Spin Scale       =       0.3333333333333333 [-]
	 SCS Opposite-Spin Scale   =       1.2000000000000000 [-]
	 SCS Same-Spin Energy      =      -0.1840802034857646 [Eh]
	 SCS Opposite-Spin Energy  =      -1.9660417698346624 [Eh]
	 SCS Correlation Energy    =      -2.1501219733204269 [Eh]
	 SCS Total Energy          =    -505.8554294121834118 [Eh]
	-----------------------------------------------------------

  Dipole Moment: [D]
     X:    -2.8456      Y:    -0.9518      Z:    -0.7864     Total:     3.1019

*** Psi4 exiting successfully. Buy a developer a beer!
