                               Psi4 1.3.2 release

  ==> Input File <==

--------------------------------------------------------------------------
#psi4
#
memory 32 gb

molecule  {
0 1
  N       -1.7893040    -0.1617730    -0.0001110
  N       -0.2713240    -1.8496560    -0.0082220
  N       -0.2672930     1.7497910     0.0010540
  N        2.0532340     1.0361840    -0.0078740
  N        2.7268170    -1.1967150     0.0786200
  C       -0.5487760     0.4359060     0.0048010
  C        0.2741903    -0.8030944     0.0058299
  C       -1.5569310    -1.5157420    -0.0063070
  C        1.7257650    -0.2653140     0.0014880
  C       -3.0654680     0.5328540     0.0028660
  C        1.0578830     1.9506280    -0.0091420
  H       -2.3786350    -2.2235800    -0.0126570
  H       -3.1454970     1.1693440    -0.8801020
  H       -3.8626160    -0.2117770    -0.0066990
  H       -3.1511970     1.1523310     0.8973960
  H        1.3824760     2.9891980    -0.0128990
  H        3.6364610    -0.8630510    -0.2195510
  H        2.4794860    -2.1327440    -0.2212610
units angstrom
no_reorient  #important for SAPT in psi4, default
symmetry c1  #important for SAPT in psi4, default
}

set PROPERTIES_ORIGIN ["COM"]
properties('MP2/aug-cc-pvtz', properties = ['dipole'])
--------------------------------------------------------------------------

    Molecular point group: c1
  Charge       = 0
  Multiplicity = 1
  Basis Set: AUG-CC-PVTZ
    Blend: AUG-CC-PVTZ
  Basis Set: (AUG-CC-PVTZ AUX)
    Blend: AUG-CC-PVTZ-JKFIT

    Orbital Energies [Eh]
    ---------------------

    Doubly Occupied:

       1A    -15.641538     2A    -15.581849     3A    -15.561993
       4A    -15.560327     5A    -15.554139     6A    -11.344145
       7A    -11.314715     8A    -11.309308     9A    -11.303222
      10A    -11.288165    11A    -11.263913    12A     -1.393123
      13A     -1.292243    14A     -1.264342    15A     -1.221981
      16A     -1.150645    17A     -1.009460    18A     -0.993182
      19A     -0.890402    20A     -0.857846    21A     -0.801445
      22A     -0.753557    23A     -0.743565    24A     -0.678170
      25A     -0.675101    26A     -0.669164    27A     -0.630277
      28A     -0.599132    29A     -0.595999    30A     -0.575984
      31A     -0.566533    32A     -0.544062    33A     -0.500579
      34A     -0.493928    35A     -0.469185    36A     -0.433468
      37A     -0.390221    38A     -0.371129    39A     -0.274389

  @DF-RHF Final Energy:  -503.65446045442127

   => Energetics <=

    Nuclear Repulsion Energy =            594.0782048746469854
    One-Electron Energy =               -1862.3404780106982344
    Two-Electron Energy =                 764.6078126816298663
    Total Energy =                       -503.6544604544212689
  Basis Set: (AUG-CC-PVTZ AUX)
    Blend: AUG-CC-PVTZ-RI
    Molecular point group: c1

    Geometry (in Angstrom), charge = 0, multiplicity = 1:

       Center              X                  Y                   Z               Mass
    ------------   -----------------  -----------------  -----------------  -----------------
         N           -1.815455185604    -0.148289195224    -0.002954120993    14.003074004430
         N           -0.297475185604    -1.836172195224    -0.011065120993    14.003074004430
         N           -0.293444185604     1.763274804776    -0.001789120993    14.003074004430
         N            2.027082814396     1.049667804776    -0.010717120993    14.003074004430
         N            2.700665814396    -1.183231195224     0.075776879007    14.003074004430
         C           -0.574927185604     0.449389804776     0.001957879007    12.000000000000
         C            0.248039114396    -0.789610595224     0.002986779007    12.000000000000
         C           -1.583082185604    -1.502258195224    -0.009150120993    12.000000000000
         C            1.699613814396    -0.251830195224    -0.001355120993    12.000000000000
         C           -3.091619185604     0.546337804776     0.000022879007    12.000000000000
         C            1.031731814396     1.964111804776    -0.011985120993    12.000000000000
         H           -2.404786185604    -2.210096195224    -0.015500120993     1.007825032230
         H           -3.171648185604     1.182827804776    -0.882945120993     1.007825032230
         H           -3.888767185604    -0.198293195224    -0.009542120993     1.007825032230
         H           -3.177348185604     1.165814804776     0.894552879007     1.007825032230
         H            1.356324814396     3.002681804776    -0.015742120993     1.007825032230
         H            3.610309814396    -0.849567195224    -0.222394120993     1.007825032230
         H            2.453334814396    -2.119260195224    -0.224104120993     1.007825032230

  Basis Set: AUG-CC-PVTZ
    Blend: AUG-CC-PVTZ
  Basis Set: (AUG-CC-PVTZ AUX)
    Blend: AUG-CC-PVTZ-JKFIT
	 Reference Energy          =    -503.6544604544212689 [Eh]
	 Singles Energy            =      -0.0000000000000000 [Eh]
	 Same-Spin Energy          =      -0.5544077447046524 [Eh]
	 Opposite-Spin Energy      =      -1.6386274493446336 [Eh]
	 Correlation Energy        =      -2.1930351940492860 [Eh]
	 Total Energy              =    -505.8474956484705558 [Eh]

	 ================> DF-SCS-MP2 Energies <==================
	-----------------------------------------------------------
	 SCS Same-Spin Scale       =       0.3333333333333333 [-]
	 SCS Opposite-Spin Scale   =       1.2000000000000000 [-]
	 SCS Same-Spin Energy      =      -0.1848025815682174 [Eh]
	 SCS Opposite-Spin Energy  =      -1.9663529392135601 [Eh]
	 SCS Correlation Energy    =      -2.1511555207817774 [Eh]
	 SCS Total Energy          =    -505.8056159752030680 [Eh]
	-----------------------------------------------------------

  Dipole Moment: [D]
     X:    -2.8955      Y:    -1.5069      Z:    -0.7809     Total:     3.3563

*** Psi4 exiting successfully. Buy a developer a beer!
