                               Psi4 1.3.2 release

  ==> Input File <==

--------------------------------------------------------------------------
#psi4
#
memory 32 gb

molecule  {
0 1
  N       -1.7893040    -0.1617730    -0.0001110
  N       -0.2713240    -1.8496560    -0.0082220
  N       -0.2672930     1.7497910     0.0010540
  N        2.0532340     1.0361840    -0.0078740
  N        2.7268170    -1.1967150     0.0786200
  C       -0.5487760     0.4359060     0.0048010
  C        0.4298134    -0.6608180     0.0078835
  C       -1.5726447    -1.5834775    -0.0071820
  C        1.7257650    -0.2653140     0.0014880
  C       -3.0654680     0.5328540     0.0028660
  C        1.0578830     1.9506280    -0.0091420
  H       -2.3786350    -2.2235800    -0.0126570
  H       -3.1454970     1.1693440    -0.8801020
  H       -3.8626160    -0.2117770    -0.0066990
  H       -3.1511970     1.1523310     0.8973960
  H        1.3824760     2.9891980    -0.0128990
  H        3.6364610    -0.8630510    -0.2195510
  H        2.4794860    -2.1327440    -0.2212610
units angstrom
no_reorient  #important for SAPT in psi4, default
symmetry c1  #important for SAPT in psi4, default
}

set PROPERTIES_ORIGIN ["COM"]
properties('MP2/aug-cc-pvtz', properties = ['dipole'])
--------------------------------------------------------------------------

    Molecular point group: c1
  Charge       = 0
  Multiplicity = 1
  Basis Set: AUG-CC-PVTZ
    Blend: AUG-CC-PVTZ
  Basis Set: (AUG-CC-PVTZ AUX)
    Blend: AUG-CC-PVTZ-JKFIT

    Orbital Energies [Eh]
    ---------------------

    Doubly Occupied:

       1A    -15.631763     2A    -15.575436     3A    -15.575394
       4A    -15.561474     5A    -15.552238     6A    -11.327626
       7A    -11.327264     8A    -11.324417     9A    -11.314034
      10A    -11.286133    11A    -11.254635    12A     -1.352253
      13A     -1.293652    14A     -1.242916    15A     -1.192439
      16A     -1.150492    17A     -1.032142    18A     -0.980686
      19A     -0.897131    20A     -0.874459    21A     -0.798674
      22A     -0.751658    23A     -0.724024    24A     -0.679909
      25A     -0.675744    26A     -0.658667    27A     -0.638634
      28A     -0.605843    29A     -0.597188    30A     -0.591738
      31A     -0.571245    32A     -0.530963    33A     -0.497325
      34A     -0.489722    35A     -0.445254    36A     -0.415456
      37A     -0.405674    38A     -0.362695    39A     -0.310010

  @DF-RHF Final Energy:  -503.70873799027470

   => Energetics <=

    Nuclear Repulsion Energy =            592.2346119280138055
    One-Electron Energy =               -1858.8926793048681247
    Two-Electron Energy =                 762.9493293865797341
    Total Energy =                       -503.7087379902746989
  Basis Set: (AUG-CC-PVTZ AUX)
    Blend: AUG-CC-PVTZ-RI
    Molecular point group: c1

    Geometry (in Angstrom), charge = 0, multiplicity = 1:

       Center              X                  Y                   Z               Mass
    ------------   -----------------  -----------------  -----------------  -----------------
         N           -1.826717754626    -0.154289664322    -0.003048997133    14.003074004430
         N           -0.308737754626    -1.842172664322    -0.011159997133    14.003074004430
         N           -0.304706754626     1.757274335678    -0.001883997133    14.003074004430
         N            2.015820245374     1.043667335678    -0.010811997133    14.003074004430
         N            2.689403245374    -1.189231664322     0.075682002867    14.003074004430
         C           -0.586189754626     0.443389335678     0.001863002867    12.000000000000
         C            0.392399645374    -0.653334664322     0.004945502867    12.000000000000
         C           -1.610058454626    -1.575994164322    -0.010119997133    12.000000000000
         C            1.688351245374    -0.257830664322    -0.001449997133    12.000000000000
         C           -3.102881754626     0.540337335678    -0.000071997133    12.000000000000
         C            1.020469245374     1.958111335678    -0.012079997133    12.000000000000
         H           -2.416048754626    -2.216096664322    -0.015594997133     1.007825032230
         H           -3.182910754626     1.176827335678    -0.883039997133     1.007825032230
         H           -3.900029754626    -0.204293664322    -0.009636997133     1.007825032230
         H           -3.188610754626     1.159814335678     0.894458002867     1.007825032230
         H            1.345062245374     2.996681335678    -0.015836997133     1.007825032230
         H            3.599047245374    -0.855567664322    -0.222488997133     1.007825032230
         H            2.442072245374    -2.125260664322    -0.224198997133     1.007825032230

  Basis Set: AUG-CC-PVTZ
    Blend: AUG-CC-PVTZ
  Basis Set: (AUG-CC-PVTZ AUX)
    Blend: AUG-CC-PVTZ-JKFIT
	 Reference Energy          =    -503.7087379902746989 [Eh]
	 Singles Energy            =      -0.0000000000000000 [Eh]
	 Same-Spin Energy          =      -0.5495561212782364 [Eh]
	 Opposite-Spin Energy      =      -1.6345758555381029 [Eh]
	 Correlation Energy        =      -2.1841319768163392 [Eh]
	 Total Energy              =    -505.8928699670910305 [Eh]

	 ================> DF-SCS-MP2 Energies <==================
	-----------------------------------------------------------
	 SCS Same-Spin Scale       =       0.3333333333333333 [-]
	 SCS Opposite-Spin Scale   =       1.2000000000000000 [-]
	 SCS Same-Spin Energy      =      -0.1831853737594121 [Eh]
	 SCS Opposite-Spin Energy  =      -1.9614910266457235 [Eh]
	 SCS Correlation Energy    =      -2.1446764004051357 [Eh]
	 SCS Total Energy          =    -505.8534143906798590 [Eh]
	-----------------------------------------------------------

  Dipole Moment: [D]
     X:    -2.8111      Y:    -1.2537      Z:    -0.7938     Total:     3.1787

*** Psi4 exiting successfully. Buy a developer a beer!
