                               Psi4 1.3.2 release

  ==> Input File <==

--------------------------------------------------------------------------
#psi4
#
memory 32 gb

molecule  {
0 1
  N       -1.7893040    -0.1617730    -0.0001110
  N       -0.2713240    -1.8496560    -0.0082220
  N       -0.2672930     1.7497910     0.0010540
  N        2.0532340     1.0361840    -0.0078740
  N        2.7268170    -1.1967150     0.0786200
  C       -0.5278277     0.5336868     0.0045221
  C        0.3666280    -0.6257540     0.0082110
  C       -1.5569310    -1.5157420    -0.0063070
  C        1.7257650    -0.2653140     0.0014880
  C       -3.0654680     0.5328540     0.0028660
  C        1.0578830     1.9506280    -0.0091420
  H       -2.3786350    -2.2235800    -0.0126570
  H       -3.1454970     1.1693440    -0.8801020
  H       -3.8626160    -0.2117770    -0.0066990
  H       -3.1511970     1.1523310     0.8973960
  H        1.3824760     2.9891980    -0.0128990
  H        3.6364610    -0.8630510    -0.2195510
  H        2.4794860    -2.1327440    -0.2212610
units angstrom
no_reorient  #important for SAPT in psi4, default
symmetry c1  #important for SAPT in psi4, default
}

set PROPERTIES_ORIGIN ["COM"]
properties('MP2/aug-cc-pvtz', properties = ['dipole'])
--------------------------------------------------------------------------

    Molecular point group: c1
  Charge       = 0
  Multiplicity = 1
  Basis Set: AUG-CC-PVTZ
    Blend: AUG-CC-PVTZ
  Basis Set: (AUG-CC-PVTZ AUX)
    Blend: AUG-CC-PVTZ-JKFIT

    Orbital Energies [Eh]
    ---------------------

    Doubly Occupied:

       1A    -15.626453     2A    -15.576395     3A    -15.565299
       4A    -15.562159     5A    -15.559647     6A    -11.328519
       7A    -11.324899     8A    -11.318799     9A    -11.317600
      10A    -11.283272    11A    -11.256328    12A     -1.359123
      13A     -1.304159    14A     -1.257848    15A     -1.189882
      16A     -1.164391    17A     -1.022620    18A     -0.976352
      19A     -0.892671    20A     -0.880177    21A     -0.795009
      22A     -0.753659    23A     -0.722031    24A     -0.685442
      25A     -0.671941    26A     -0.660014    27A     -0.629187
      28A     -0.602085    29A     -0.596559    30A     -0.593855
      31A     -0.556557    32A     -0.531791    33A     -0.509808
      34A     -0.498616    35A     -0.452592    36A     -0.413832
      37A     -0.408058    38A     -0.375640    39A     -0.296599

  @DF-RHF Final Energy:  -503.70692535252022

   => Energetics <=

    Nuclear Repulsion Energy =            593.9253019093313242
    One-Electron Energy =               -1862.2247175640357000
    Two-Electron Energy =                 764.5924903021840464
    Total Energy =                       -503.7069253525202157
  Basis Set: (AUG-CC-PVTZ AUX)
    Blend: AUG-CC-PVTZ-RI
    Molecular point group: c1

    Geometry (in Angstrom), charge = 0, multiplicity = 1:

       Center              X                  Y                   Z               Mass
    ------------   -----------------  -----------------  -----------------  -----------------
         N           -1.824582647027    -0.170436181091    -0.003123346025    14.003074004430
         N           -0.306602647027    -1.858319181091    -0.011234346025    14.003074004430
         N           -0.302571647027     1.741127818909    -0.001958346025    14.003074004430
         N            2.017955352973     1.027520818909    -0.010886346025    14.003074004430
         N            2.691538352973    -1.205378181091     0.075607653975    14.003074004430
         C           -0.563106347027     0.525023618909     0.001509753975    12.000000000000
         C            0.331349352973    -0.634417181091     0.005198653975    12.000000000000
         C           -1.592209647027    -1.524405181091    -0.009319346025    12.000000000000
         C            1.690486352973    -0.273977181091    -0.001524346025    12.000000000000
         C           -3.100746647027     0.524190818909    -0.000146346025    12.000000000000
         C            1.022604352973     1.941964818909    -0.012154346025    12.000000000000
         H           -2.413913647027    -2.232243181091    -0.015669346025     1.007825032230
         H           -3.180775647027     1.160680818909    -0.883114346025     1.007825032230
         H           -3.897894647027    -0.220440181091    -0.009711346025     1.007825032230
         H           -3.186475647027     1.143667818909     0.894383653975     1.007825032230
         H            1.347197352973     2.980534818909    -0.015911346025     1.007825032230
         H            3.601182352973    -0.871714181091    -0.222563346025     1.007825032230
         H            2.444207352973    -2.141407181091    -0.224273346025     1.007825032230

  Basis Set: AUG-CC-PVTZ
    Blend: AUG-CC-PVTZ
  Basis Set: (AUG-CC-PVTZ AUX)
    Blend: AUG-CC-PVTZ-JKFIT
	 Reference Energy          =    -503.7069253525202157 [Eh]
	 Singles Energy            =      -0.0000000000000000 [Eh]
	 Same-Spin Energy          =      -0.5503352047861056 [Eh]
	 Opposite-Spin Energy      =      -1.6339498555189302 [Eh]
	 Correlation Energy        =      -2.1842850603050357 [Eh]
	 Total Energy              =    -505.8912104128252736 [Eh]

	 ================> DF-SCS-MP2 Energies <==================
	-----------------------------------------------------------
	 SCS Same-Spin Scale       =       0.3333333333333333 [-]
	 SCS Opposite-Spin Scale   =       1.2000000000000000 [-]
	 SCS Same-Spin Energy      =      -0.1834450682620352 [Eh]
	 SCS Opposite-Spin Energy  =      -1.9607398266227163 [Eh]
	 SCS Correlation Energy    =      -2.1441848948847513 [Eh]
	 SCS Total Energy          =    -505.8511102474049608 [Eh]
	-----------------------------------------------------------

  Dipole Moment: [D]
     X:    -2.5917      Y:    -0.9402      Z:    -0.7918     Total:     2.8684

*** Psi4 exiting successfully. Buy a developer a beer!
