                               Psi4 1.4a3.dev225

  ==> Input File <==

--------------------------------------------------------------------------
#psi4
#
memory 32 gb

molecule  {
0 1
  N       -1.7889380    -0.1640290    -0.0179520
  N       -0.2703210    -1.8482040    -0.0023970
  N       -0.2671710     1.7490810    -0.0033560
  N        2.0541740     1.0368940    -0.0085470
  N        2.7206340    -1.1973270     0.0732090
  C       -0.5486140     0.4351420     0.0045870
  C        0.3650590    -0.6247560     0.0169900
  C       -1.5569260    -1.5161270    -0.0162740
  C        1.7459687    -0.2590369     0.0046330
  C       -3.0641060     0.5324820     0.0177850
  C        1.0564750     1.9508360    -0.0110870
  H       -2.3762040    -2.2259510    -0.0342240
  H       -2.9284720     1.5041700    -0.4579320
  H       -3.8067760    -0.0485880    -0.5312030
  H       -3.3972360     0.6796990     1.0480130
  H        1.3812150     2.9891510    -0.0228070
  H        3.6427950    -0.8729100    -0.1905990
  H        2.4748820    -2.1409930    -0.1987870
units angstrom
no_reorient  #important for SAPT in psi4, default
symmetry c1  #important for SAPT in psi4, default
}

set PROPERTIES_ORIGIN ["COM"]
properties('MP2/aug-cc-pvtz', properties = ['dipole'])
--------------------------------------------------------------------------

    Molecular point group: c1
  Charge       = 0
  Multiplicity = 1
  Basis Set: AUG-CC-PVTZ
    Blend: AUG-CC-PVTZ
  Basis Set: (AUG-CC-PVTZ AUX)
    Blend: AUG-CC-PVTZ-JKFIT

    Orbital Energies [Eh]
    ---------------------

    Doubly Occupied:

       1A    -15.631105     2A    -15.583401     3A    -15.566512
       4A    -15.559577     5A    -15.550671     6A    -11.336109
       7A    -11.319186     8A    -11.311797     9A    -11.310274
      10A    -11.286275    11A    -11.251265    12A     -1.366268
      13A     -1.297949    14A     -1.244682    15A     -1.196415
      16A     -1.154230    17A     -1.027690    18A     -0.983635
      19A     -0.889982    20A     -0.870591    21A     -0.802743
      22A     -0.754464    23A     -0.726266    24A     -0.680806
      25A     -0.676509    26A     -0.665106    27A     -0.626401
      28A     -0.604057    29A     -0.594804    30A     -0.591549
      31A     -0.570517    32A     -0.538253    33A     -0.496121
      34A     -0.490353    35A     -0.449633    36A     -0.413409
      37A     -0.406893    38A     -0.368059    39A     -0.304516

  @DF-RHF Final Energy:  -503.72458262640282

   => Energetics <=

    Nuclear Repulsion Energy =            594.4387600691655962
    One-Electron Energy =               -1863.3305400527522124
    Two-Electron Energy =                 765.1671973571839089
    Total Energy =                       -503.7245826264028210
  Basis Set: (AUG-CC-PVTZ AUX)
    Blend: AUG-CC-PVTZ-RI
    Molecular point group: c1

    Geometry (in Angstrom), charge = 0, multiplicity = 1:

       Center              X                  Y                   Z               Mass
    ------------   -----------------  -----------------  -----------------  -----------------
         N           -1.823888666352    -0.165200689453    -0.020518311291    14.003074004430
         N           -0.305271666352    -1.849375689453    -0.004963311291    14.003074004430
         N           -0.302121666352     1.747909310547    -0.005922311291    14.003074004430
         N            2.019223333648     1.035722310547    -0.011113311291    14.003074004430
         N            2.685683333648    -1.198498689453     0.070642688709    14.003074004430
         C           -0.583564666352     0.433970310547     0.002020688709    12.000000000000
         C            0.330108333648    -0.625927689453     0.014423688709    12.000000000000
         C           -1.591876666352    -1.517298689453    -0.018840311291    12.000000000000
         C            1.711018033648    -0.260208589453     0.002066688709    12.000000000000
         C           -3.099056666352     0.531310310547     0.015218688709    12.000000000000
         C            1.021524333648     1.949664310547    -0.013653311291    12.000000000000
         H           -2.411154666352    -2.227122689453    -0.036790311291     1.007825032230
         H           -2.963422666352     1.502998310547    -0.460498311291     1.007825032230
         H           -3.841726666352    -0.049759689453    -0.533769311291     1.007825032230
         H           -3.432186666352     0.678527310547     1.045446688709     1.007825032230
         H            1.346264333648     2.987979310547    -0.025373311291     1.007825032230
         H            3.607844333648    -0.874081689453    -0.193165311291     1.007825032230
         H            2.439931333648    -2.142164689453    -0.201353311291     1.007825032230

  Basis Set: AUG-CC-PVTZ
    Blend: AUG-CC-PVTZ
  Basis Set: (AUG-CC-PVTZ AUX)
    Blend: AUG-CC-PVTZ-JKFIT
	 Reference Energy          =    -503.7245826264028210 [Eh]
	 Singles Energy            =      -0.0000000000000000 [Eh]
	 Same-Spin Energy          =      -0.5493482437921848 [Eh]
	 Opposite-Spin Energy      =      -1.6328235762396230 [Eh]
	 Correlation Energy        =      -2.1821718200318081 [Eh]
	 Total Energy              =    -505.9067544464346042 [Eh]

	 ================> DF-SCS-MP2 Energies <==================
	-----------------------------------------------------------
	 SCS Same-Spin Scale       =       0.3333333333333333 [-]
	 SCS Opposite-Spin Scale   =       1.2000000000000000 [-]
	 SCS Same-Spin Energy      =      -0.1831160812640616 [Eh]
	 SCS Opposite-Spin Energy  =      -1.9593882914875476 [Eh]
	 SCS Correlation Energy    =      -2.1425043727516093 [Eh]
	 SCS Total Energy          =    -505.8670869991544237 [Eh]
	-----------------------------------------------------------

  Dipole Moment: [D]
     X:    -2.5249      Y:    -1.2361      Z:    -0.7109     Total:     2.8997

*** Psi4 exiting successfully. Buy a developer a beer!
