                               Psi4 1.4a3.dev225

  ==> Input File <==

--------------------------------------------------------------------------
#psi4
#
memory 32 gb

molecule  {
0 1
  N       -1.7889380    -0.1640290    -0.0179520
  N       -0.2703210    -1.8482040    -0.0023970
  N       -0.2671710     1.7490810    -0.0033560
  N        2.0541740     1.0368940    -0.0085470
  N        2.7206340    -1.1973270     0.0732090
  C       -0.5486140     0.4351420     0.0045870
  C        0.3650590    -0.6247560     0.0169900
  C       -1.5569260    -1.5161270    -0.0162740
  C        1.7266360    -0.2641570     0.0048060
  C       -3.0641060     0.5324820     0.0177850
  C        1.1059033     1.9583700    -0.0113757
  H       -2.3762040    -2.2259510    -0.0342240
  H       -2.9284720     1.5041700    -0.4579320
  H       -3.8067760    -0.0485880    -0.5312030
  H       -3.3972360     0.6796990     1.0480130
  H        1.3812150     2.9891510    -0.0228070
  H        3.6427950    -0.8729100    -0.1905990
  H        2.4748820    -2.1409930    -0.1987870
units angstrom
no_reorient  #important for SAPT in psi4, default
symmetry c1  #important for SAPT in psi4, default
}

set PROPERTIES_ORIGIN ["COM"]
properties('MP2/aug-cc-pvtz', properties = ['dipole'])
--------------------------------------------------------------------------

    Molecular point group: c1
  Charge       = 0
  Multiplicity = 1
  Basis Set: AUG-CC-PVTZ
    Blend: AUG-CC-PVTZ
  Basis Set: (AUG-CC-PVTZ AUX)
    Blend: AUG-CC-PVTZ-JKFIT

    Orbital Energies [Eh]
    ---------------------

    Doubly Occupied:

       1A    -15.630039     2A    -15.582245     3A    -15.566305
       4A    -15.558464     5A    -15.553498     6A    -11.336390
       7A    -11.321487     8A    -11.312714     9A    -11.311555
      10A    -11.285783    11A    -11.249905    12A     -1.366166
      13A     -1.297359    14A     -1.235724    15A     -1.195780
      16A     -1.152445    17A     -1.028648    18A     -0.984442
      19A     -0.895114    20A     -0.870476    21A     -0.801514
      22A     -0.752927    23A     -0.726242    24A     -0.682393
      25A     -0.673356    26A     -0.664822    27A     -0.624921
      28A     -0.607201    29A     -0.595760    30A     -0.591694
      31A     -0.571170    32A     -0.537740    33A     -0.492718
      34A     -0.490022    35A     -0.450618    36A     -0.414339
      37A     -0.404832    38A     -0.370444    39A     -0.302091

  @DF-RHF Final Energy:  -503.72125806840529

   => Energetics <=

    Nuclear Repulsion Energy =            594.0740533816926927
    One-Electron Energy =               -1862.6119424852090560
    Two-Electron Energy =                 764.8166310351110724
    Total Energy =                       -503.7212580684052909
  Basis Set: (AUG-CC-PVTZ AUX)
    Blend: AUG-CC-PVTZ-RI
    Molecular point group: c1

    Geometry (in Angstrom), charge = 0, multiplicity = 1:

       Center              X                  Y                   Z               Mass
    ------------   -----------------  -----------------  -----------------  -----------------
         N           -1.826311332537    -0.165395006028    -0.020508997554    14.003074004430
         N           -0.307694332537    -1.849570006028    -0.004953997554    14.003074004430
         N           -0.304544332537     1.747714993972    -0.005912997554    14.003074004430
         N            2.016800667463     1.035527993972    -0.011103997554    14.003074004430
         N            2.683260667463    -1.198693006028     0.070652002446    14.003074004430
         C           -0.585987332537     0.433775993972     0.002030002446    12.000000000000
         C            0.327685667463    -0.626122006028     0.014433002446    12.000000000000
         C           -1.594299332537    -1.517493006028    -0.018830997554    12.000000000000
         C            1.689262667463    -0.265523006028     0.002249002446    12.000000000000
         C           -3.101479332537     0.531115993972     0.015228002446    12.000000000000
         C            1.068529967463     1.957003993972    -0.013932697554    12.000000000000
         H           -2.413577332537    -2.227317006028    -0.036780997554     1.007825032230
         H           -2.965845332537     1.502803993972    -0.460488997554     1.007825032230
         H           -3.844149332537    -0.049954006028    -0.533759997554     1.007825032230
         H           -3.434609332537     0.678332993972     1.045456002446     1.007825032230
         H            1.343841667463     2.987784993972    -0.025363997554     1.007825032230
         H            3.605421667463    -0.874276006028    -0.193155997554     1.007825032230
         H            2.437508667463    -2.142359006028    -0.201343997554     1.007825032230

  Basis Set: AUG-CC-PVTZ
    Blend: AUG-CC-PVTZ
  Basis Set: (AUG-CC-PVTZ AUX)
    Blend: AUG-CC-PVTZ-JKFIT
	 Reference Energy          =    -503.7212580684052909 [Eh]
	 Singles Energy            =      -0.0000000000000000 [Eh]
	 Same-Spin Energy          =      -0.5496047098112695 [Eh]
	 Opposite-Spin Energy      =      -1.6335292833181891 [Eh]
	 Correlation Energy        =      -2.1831339931294584 [Eh]
	 Total Energy              =    -505.9043920615347361 [Eh]

	 ================> DF-SCS-MP2 Energies <==================
	-----------------------------------------------------------
	 SCS Same-Spin Scale       =       0.3333333333333333 [-]
	 SCS Opposite-Spin Scale   =       1.2000000000000000 [-]
	 SCS Same-Spin Energy      =      -0.1832015699370898 [Eh]
	 SCS Opposite-Spin Energy  =      -1.9602351399818270 [Eh]
	 SCS Correlation Energy    =      -2.1434367099189169 [Eh]
	 SCS Total Energy          =    -505.8646947783242354 [Eh]
	-----------------------------------------------------------

  Dipole Moment: [D]
     X:    -2.4808      Y:    -1.2124      Z:    -0.7142     Total:     2.8521

*** Psi4 exiting successfully. Buy a developer a beer!
