                               Psi4 1.3.2 release

  ==> Input File <==

--------------------------------------------------------------------------
#psi4
#
memory 32 gb

molecule  {
0 1
  N       -1.7893040    -0.1617730    -0.0001110
  N       -0.2713240    -1.8496560    -0.0082220
  N       -0.2672930     1.7497910     0.0010540
  N        2.0532340     1.0361840    -0.0078740
  N        2.7429723    -1.1791271     0.0776277
  C       -0.5487760     0.4359060     0.0048010
  C        0.3605517    -0.6020381     0.0065041
  C       -1.5569310    -1.5157420    -0.0063070
  C        1.7257650    -0.2653140     0.0014880
  C       -3.0654680     0.5328540     0.0028660
  C        1.0578830     1.9506280    -0.0091420
  H       -2.3786350    -2.2235800    -0.0126570
  H       -3.1454970     1.1693440    -0.8801020
  H       -3.8626160    -0.2117770    -0.0066990
  H       -3.1511970     1.1523310     0.8973960
  H        1.3824760     2.9891980    -0.0128990
  H        3.6364610    -0.8630510    -0.2195510
  H        2.4794860    -2.1327440    -0.2212610
units angstrom
no_reorient  #important for SAPT in psi4, default
symmetry c1  #important for SAPT in psi4, default
}

set PROPERTIES_ORIGIN ["COM"]
properties('MP2/aug-cc-pvtz', properties = ['dipole'])
--------------------------------------------------------------------------

    Molecular point group: c1
  Charge       = 0
  Multiplicity = 1
  Basis Set: AUG-CC-PVTZ
    Blend: AUG-CC-PVTZ
  Basis Set: (AUG-CC-PVTZ AUX)
    Blend: AUG-CC-PVTZ-JKFIT

    Orbital Energies [Eh]
    ---------------------

    Doubly Occupied:

       1A    -15.631845     2A    -15.582156     3A    -15.567592
       4A    -15.560134     5A    -15.551468     6A    -11.335298
       7A    -11.322663     8A    -11.311497     9A    -11.311181
      10A    -11.288358    11A    -11.251064    12A     -1.367627
      13A     -1.296846    14A     -1.241640    15A     -1.194179
      16A     -1.151384    17A     -1.034539    18A     -0.985006
      19A     -0.890594    20A     -0.871457    21A     -0.805788
      22A     -0.753106    23A     -0.723321    24A     -0.683282
      25A     -0.669267    26A     -0.666299    27A     -0.623945
      28A     -0.609249    29A     -0.596089    30A     -0.591477
      31A     -0.571818    32A     -0.536736    33A     -0.494869
      34A     -0.492111    35A     -0.449240    36A     -0.413209
      37A     -0.408864    38A     -0.368309    39A     -0.311331

  @DF-RHF Final Energy:  -503.72415615546248

   => Energetics <=

    Nuclear Repulsion Energy =            594.4621804724151843
    One-Electron Energy =               -1863.3429977952505396
    Two-Electron Energy =                 765.1566611673728175
    Total Energy =                       -503.7241561554625378
  Basis Set: (AUG-CC-PVTZ AUX)
    Blend: AUG-CC-PVTZ-RI
    Molecular point group: c1

    Geometry (in Angstrom), charge = 0, multiplicity = 1:

       Center              X                  Y                   Z               Mass
    ------------   -----------------  -----------------  -----------------  -----------------
         N           -1.823924759840    -0.166126168958    -0.002915180598    14.003074004430
         N           -0.305944759840    -1.854009168958    -0.011026180598    14.003074004430
         N           -0.301913759840     1.745437831042    -0.001750180598    14.003074004430
         N            2.018613240160     1.031830831042    -0.010678180598    14.003074004430
         N            2.708351540160    -1.183480268958     0.074823519402    14.003074004430
         C           -0.583396759840     0.431552831042     0.001996819402    12.000000000000
         C            0.325930940160    -0.606391268958     0.003699919402    12.000000000000
         C           -1.591551759840    -1.520095168958    -0.009111180598    12.000000000000
         C            1.691144240160    -0.269667168958    -0.001316180598    12.000000000000
         C           -3.100088759840     0.528500831042     0.000061819402    12.000000000000
         C            1.023262240160     1.946274831042    -0.011946180598    12.000000000000
         H           -2.413255759840    -2.227933168958    -0.015461180598     1.007825032230
         H           -3.180117759840     1.164990831042    -0.882906180598     1.007825032230
         H           -3.897236759840    -0.216130168958    -0.009503180598     1.007825032230
         H           -3.185817759840     1.147977831042     0.894591819402     1.007825032230
         H            1.347855240160     2.984844831042    -0.015703180598     1.007825032230
         H            3.601840240160    -0.867404168958    -0.222355180598     1.007825032230
         H            2.444865240160    -2.137097168958    -0.224065180598     1.007825032230

  Basis Set: AUG-CC-PVTZ
    Blend: AUG-CC-PVTZ
  Basis Set: (AUG-CC-PVTZ AUX)
    Blend: AUG-CC-PVTZ-JKFIT
	 Reference Energy          =    -503.7241561554624809 [Eh]
	 Singles Energy            =      -0.0000000000000000 [Eh]
	 Same-Spin Energy          =      -0.5487966751476795 [Eh]
	 Opposite-Spin Energy      =      -1.6328233138898736 [Eh]
	 Correlation Energy        =      -2.1816199890375532 [Eh]
	 Total Energy              =    -505.9057761445000097 [Eh]

	 ================> DF-SCS-MP2 Energies <==================
	-----------------------------------------------------------
	 SCS Same-Spin Scale       =       0.3333333333333333 [-]
	 SCS Opposite-Spin Scale   =       1.2000000000000000 [-]
	 SCS Same-Spin Energy      =      -0.1829322250492265 [Eh]
	 SCS Opposite-Spin Energy  =      -1.9593879766678481 [Eh]
	 SCS Correlation Energy    =      -2.1423202017170748 [Eh]
	 SCS Total Energy          =    -505.8664763571795788 [Eh]
	-----------------------------------------------------------

  Dipole Moment: [D]
     X:    -2.6980      Y:    -1.1692      Z:    -0.7877     Total:     3.0441

*** Psi4 exiting successfully. Buy a developer a beer!
