                               Psi4 1.3.2 release

  ==> Input File <==

--------------------------------------------------------------------------
#psi4
#
memory 32 gb

molecule  {
0 1
  N       -1.7893040    -0.1617730    -0.0001110
  N       -0.2713240    -1.8496560    -0.0082220
  N       -0.2672930     1.7497910     0.0010540
  N        2.0418832     1.0389822    -0.0085814
  N        2.7186516    -1.2054374     0.0783423
  C       -0.5487760     0.4359060     0.0048010
  C        0.3666280    -0.6257540     0.0082110
  C       -1.5569310    -1.5157420    -0.0063070
  C        1.7257650    -0.2653140     0.0014880
  C       -3.0654680     0.5328540     0.0028660
  C        1.0578830     1.9506280    -0.0091420
  H       -2.3786350    -2.2235800    -0.0126570
  H       -3.1454970     1.1693440    -0.8801020
  H       -3.8626160    -0.2117770    -0.0066990
  H       -3.1511970     1.1523310     0.8973960
  H        1.3824760     2.9891980    -0.0128990
  H        3.6364610    -0.8630510    -0.2195510
  H        2.4794860    -2.1327440    -0.2212610
units angstrom
no_reorient  #important for SAPT in psi4, default
symmetry c1  #important for SAPT in psi4, default
}

set PROPERTIES_ORIGIN ["COM"]
properties('MP2/aug-cc-pvtz', properties = ['dipole'])
--------------------------------------------------------------------------

    Molecular point group: c1
  Charge       = 0
  Multiplicity = 1
  Basis Set: AUG-CC-PVTZ
    Blend: AUG-CC-PVTZ
  Basis Set: (AUG-CC-PVTZ AUX)
    Blend: AUG-CC-PVTZ-JKFIT

    Orbital Energies [Eh]
    ---------------------

    Doubly Occupied:

       1A    -15.632649     2A    -15.581755     3A    -15.566940
       4A    -15.559679     5A    -15.551539     6A    -11.335000
       7A    -11.322446     8A    -11.312532     9A    -11.310247
      10A    -11.288443    11A    -11.251314    12A     -1.367593
      13A     -1.297247    14A     -1.242284    15A     -1.196634
      16A     -1.153304    17A     -1.031458    18A     -0.985769
      19A     -0.891977    20A     -0.871379    21A     -0.802880
      22A     -0.754208    23A     -0.723878    24A     -0.679423
      25A     -0.675864    26A     -0.666177    27A     -0.625755
      28A     -0.605856    29A     -0.596896    30A     -0.591585
      31A     -0.571818    32A     -0.537053    33A     -0.495877
      34A     -0.492147    35A     -0.449386    36A     -0.414172
      37A     -0.407829    38A     -0.368778    39A     -0.307416

  @DF-RHF Final Energy:  -503.72504680677469

   => Energetics <=

    Nuclear Repulsion Energy =            594.6231666198044650
    One-Electron Energy =               -1863.6620596700711303
    Two-Electron Energy =                 765.3138462434920939
    Total Energy =                       -503.7250468067746851
  Basis Set: (AUG-CC-PVTZ AUX)
    Blend: AUG-CC-PVTZ-RI
    Molecular point group: c1

    Geometry (in Angstrom), charge = 0, multiplicity = 1:

       Center              X                  Y                   Z               Mass
    ------------   -----------------  -----------------  -----------------  -----------------
         N           -1.821063052999    -0.162008426433    -0.003053260709    14.003074004430
         N           -0.303083052999    -1.849891426433    -0.011164260709    14.003074004430
         N           -0.299052052999     1.749555573567    -0.001888260709    14.003074004430
         N            2.010124147001     1.038746773567    -0.011523660709    14.003074004430
         N            2.686892547001    -1.205672826433     0.075400039291    14.003074004430
         C           -0.580535052999     0.435670573567     0.001858739291    12.000000000000
         C            0.334868947001    -0.625989426433     0.005268739291    12.000000000000
         C           -1.588690052999    -1.515977426433    -0.009249260709    12.000000000000
         C            1.694005947001    -0.265549426433    -0.001454260709    12.000000000000
         C           -3.097227052999     0.532618573567    -0.000076260709    12.000000000000
         C            1.026123947001     1.950392573567    -0.012084260709    12.000000000000
         H           -2.410394052999    -2.223815426433    -0.015599260709     1.007825032230
         H           -3.177256052999     1.169108573567    -0.883044260709     1.007825032230
         H           -3.894375052999    -0.212012426433    -0.009641260709     1.007825032230
         H           -3.182956052999     1.152095573567     0.894453739291     1.007825032230
         H            1.350716947001     2.988962573567    -0.015841260709     1.007825032230
         H            3.604701947001    -0.863286426433    -0.222493260709     1.007825032230
         H            2.447726947001    -2.132979426433    -0.224203260709     1.007825032230

  Basis Set: AUG-CC-PVTZ
    Blend: AUG-CC-PVTZ
  Basis Set: (AUG-CC-PVTZ AUX)
    Blend: AUG-CC-PVTZ-JKFIT
	 Reference Energy          =    -503.7250468067746851 [Eh]
	 Singles Energy            =      -0.0000000000000000 [Eh]
	 Same-Spin Energy          =      -0.5492435228648116 [Eh]
	 Opposite-Spin Energy      =      -1.6328616403185290 [Eh]
	 Correlation Energy        =      -2.1821051631833406 [Eh]
	 Total Energy              =    -505.9071519699580222 [Eh]

	 ================> DF-SCS-MP2 Energies <==================
	-----------------------------------------------------------
	 SCS Same-Spin Scale       =       0.3333333333333333 [-]
	 SCS Opposite-Spin Scale   =       1.2000000000000000 [-]
	 SCS Same-Spin Energy      =      -0.1830811742882705 [Eh]
	 SCS Opposite-Spin Energy  =      -1.9594339683822346 [Eh]
	 SCS Correlation Energy    =      -2.1425151426705051 [Eh]
	 SCS Total Energy          =    -505.8675619494451894 [Eh]
	-----------------------------------------------------------

  Dipole Moment: [D]
     X:    -2.6830      Y:    -1.1634      Z:    -0.7875     Total:     3.0286

*** Psi4 exiting successfully. Buy a developer a beer!
