                               Psi4 1.3.2 release

  ==> Input File <==

--------------------------------------------------------------------------
#psi4
#
memory 32 gb

molecule  {
0 1
  N       -1.7893040    -0.1617730    -0.0001110
  N       -0.2713240    -1.8496560    -0.0082220
  N       -0.2672930     1.7497910     0.0010540
  N        2.0532340     1.0361840    -0.0078740
  N        2.7588178    -1.1612608     0.0766122
  C       -0.5487760     0.4359060     0.0048010
  C        0.3548913    -0.5782196     0.0047956
  C       -1.5569310    -1.5157420    -0.0063070
  C        1.7257650    -0.2653140     0.0014880
  C       -3.0654680     0.5328540     0.0028660
  C        1.0578830     1.9506280    -0.0091420
  H       -2.3786350    -2.2235800    -0.0126570
  H       -3.1454970     1.1693440    -0.8801020
  H       -3.8626160    -0.2117770    -0.0066990
  H       -3.1511970     1.1523310     0.8973960
  H        1.3824760     2.9891980    -0.0128990
  H        3.6364610    -0.8630510    -0.2195510
  H        2.4794860    -2.1327440    -0.2212610
units angstrom
no_reorient  #important for SAPT in psi4, default
symmetry c1  #important for SAPT in psi4, default
}

set PROPERTIES_ORIGIN ["COM"]
properties('MP2/aug-cc-pvtz', properties = ['dipole'])
--------------------------------------------------------------------------

    Molecular point group: c1
  Charge       = 0
  Multiplicity = 1
  Basis Set: AUG-CC-PVTZ
    Blend: AUG-CC-PVTZ
  Basis Set: (AUG-CC-PVTZ AUX)
    Blend: AUG-CC-PVTZ-JKFIT

    Orbital Energies [Eh]
    ---------------------

    Doubly Occupied:

       1A    -15.630631     2A    -15.583317     3A    -15.567816
       4A    -15.559572     5A    -15.550630     6A    -11.336285
       7A    -11.322803     8A    -11.310781     9A    -11.309810
      10A    -11.287994    11A    -11.250348    12A     -1.367534
      13A     -1.297629    14A     -1.241330    15A     -1.191502
      16A     -1.151023    17A     -1.037807    18A     -0.984020
      19A     -0.890787    20A     -0.870791    21A     -0.809378
      22A     -0.752401    23A     -0.723903    24A     -0.684980
      25A     -0.667185    26A     -0.664143    27A     -0.625868
      28A     -0.609244    29A     -0.595631    30A     -0.591057
      31A     -0.571661    32A     -0.536735    33A     -0.494259
      34A     -0.491605    35A     -0.447665    36A     -0.412935
      37A     -0.408235    38A     -0.368357    39A     -0.314854

  @DF-RHF Final Energy:  -503.71998741833096

   => Energetics <=

    Nuclear Repulsion Energy =            594.6120788808851785
    One-Electron Energy =               -1863.6391275422104172
    Two-Electron Energy =                 765.3070612429944504
    Total Energy =                       -503.7199874183309021
  Basis Set: (AUG-CC-PVTZ AUX)
    Blend: AUG-CC-PVTZ-RI
    Molecular point group: c1

    Geometry (in Angstrom), charge = 0, multiplicity = 1:

       Center              X                  Y                   Z               Mass
    ------------   -----------------  -----------------  -----------------  -----------------
         N           -1.824957568313    -0.169721826024    -0.002682255880    14.003074004430
         N           -0.306977568313    -1.857604826024    -0.010793255880    14.003074004430
         N           -0.302946568313     1.741842173976    -0.001517255880    14.003074004430
         N            2.017580431687     1.028235173976    -0.010445255880    14.003074004430
         N            2.723164231687    -1.169209626024     0.074040944120    14.003074004430
         C           -0.584429568313     0.427957173976     0.002229744120    12.000000000000
         C            0.319237731687    -0.586168426024     0.002224344120    12.000000000000
         C           -1.592584568313    -1.523690826024    -0.008878255880    12.000000000000
         C            1.690111431687    -0.273262826024    -0.001083255880    12.000000000000
         C           -3.101121568313     0.524905173976     0.000294744120    12.000000000000
         C            1.022229431687     1.942679173976    -0.011713255880    12.000000000000
         H           -2.414288568313    -2.231528826024    -0.015228255880     1.007825032230
         H           -3.181150568313     1.161395173976    -0.882673255880     1.007825032230
         H           -3.898269568313    -0.219725826024    -0.009270255880     1.007825032230
         H           -3.186850568313     1.144382173976     0.894824744120     1.007825032230
         H            1.346822431687     2.981249173976    -0.015470255880     1.007825032230
         H            3.600807431687    -0.870999826024    -0.222122255880     1.007825032230
         H            2.443832431687    -2.140692826024    -0.223832255880     1.007825032230

  Basis Set: AUG-CC-PVTZ
    Blend: AUG-CC-PVTZ
  Basis Set: (AUG-CC-PVTZ AUX)
    Blend: AUG-CC-PVTZ-JKFIT
	 Reference Energy          =    -503.7199874183309589 [Eh]
	 Singles Energy            =      -0.0000000000000000 [Eh]
	 Same-Spin Energy          =      -0.5484151334073110 [Eh]
	 Opposite-Spin Energy      =      -1.6327194560113201 [Eh]
	 Correlation Energy        =      -2.1811345894186309 [Eh]
	 Total Energy              =    -505.9011220077495636 [Eh]

	 ================> DF-SCS-MP2 Energies <==================
	-----------------------------------------------------------
	 SCS Same-Spin Scale       =       0.3333333333333333 [-]
	 SCS Opposite-Spin Scale   =       1.2000000000000000 [-]
	 SCS Same-Spin Energy      =      -0.1828050444691036 [Eh]
	 SCS Opposite-Spin Energy  =      -1.9592633472135841 [Eh]
	 SCS Correlation Energy    =      -2.1420683916826877 [Eh]
	 SCS Total Energy          =    -505.8620558100136577 [Eh]
	-----------------------------------------------------------

  Dipole Moment: [D]
     X:    -2.6644      Y:    -1.1794      Z:    -0.7864     Total:     3.0180

*** Psi4 exiting successfully. Buy a developer a beer!
