                               Psi4 1.3.2 release

  ==> Input File <==

--------------------------------------------------------------------------
#psi4
#
memory 32 gb

molecule  {
0 1
  N       -1.7893040    -0.1617730    -0.0001110
  N       -0.2713240    -1.8496560    -0.0082220
  N       -0.2672930     1.7497910     0.0010540
  N        2.0532340     1.0361840    -0.0078740
  N        2.7268170    -1.1967150     0.0786200
  C       -0.7289532     0.3490977     0.0040876
  C        0.3666280    -0.6257540     0.0082110
  C       -1.5569310    -1.5157420    -0.0063070
  C        1.7257650    -0.2653140     0.0014880
  C       -3.0654680     0.5328540     0.0028660
  C        1.0578830     1.9506280    -0.0091420
  H       -2.3786350    -2.2235800    -0.0126570
  H       -3.1454970     1.1693440    -0.8801020
  H       -3.8626160    -0.2117770    -0.0066990
  H       -3.1511970     1.1523310     0.8973960
  H        1.3824760     2.9891980    -0.0128990
  H        3.6364610    -0.8630510    -0.2195510
  H        2.4794860    -2.1327440    -0.2212610
units angstrom
no_reorient  #important for SAPT in psi4, default
symmetry c1  #important for SAPT in psi4, default
}

set PROPERTIES_ORIGIN ["COM"]
properties('MP2/aug-cc-pvtz', properties = ['dipole'])
--------------------------------------------------------------------------

    Molecular point group: c1
  Charge       = 0
  Multiplicity = 1
  Basis Set: AUG-CC-PVTZ
    Blend: AUG-CC-PVTZ
  Basis Set: (AUG-CC-PVTZ AUX)
    Blend: AUG-CC-PVTZ-JKFIT

    Orbital Energies [Eh]
    ---------------------

    Doubly Occupied:

       1A    -15.650424     2A    -15.581391     3A    -15.579625
       4A    -15.552962     5A    -15.539013     6A    -11.333637
       7A    -11.315667     8A    -11.312549     9A    -11.304820
      10A    -11.303711    11A    -11.249857    12A     -1.429496
      13A     -1.286278    14A     -1.232008    15A     -1.207693
      16A     -1.126460    17A     -1.040139    18A     -1.003846
      19A     -0.907960    20A     -0.857825    21A     -0.805197
      22A     -0.756085    23A     -0.738347    24A     -0.700647
      25A     -0.677301    26A     -0.671458    27A     -0.622619
      28A     -0.604908    29A     -0.600136    30A     -0.594961
      31A     -0.583805    32A     -0.546879    33A     -0.485513
      34A     -0.481000    35A     -0.436669    36A     -0.432669
      37A     -0.387438    38A     -0.347194    39A     -0.305782

  @DF-RHF Final Energy:  -503.65794459967020

   => Energetics <=

    Nuclear Repulsion Energy =            594.6737442909196716
    One-Electron Energy =               -1863.4754459896528260
    Two-Electron Energy =                 765.1437570990630093
    Total Energy =                       -503.6579445996702589
  Basis Set: (AUG-CC-PVTZ AUX)
    Blend: AUG-CC-PVTZ-RI
    Molecular point group: c1

    Geometry (in Angstrom), charge = 0, multiplicity = 1:

       Center              X                  Y                   Z               Mass
    ------------   -----------------  -----------------  -----------------  -----------------
         N           -1.808392242194    -0.155576940186    -0.003088369202    14.003074004430
         N           -0.290412242194    -1.843459940186    -0.011199369202    14.003074004430
         N           -0.286381242194     1.755987059814    -0.001923369202    14.003074004430
         N            2.034145757806     1.042380059814    -0.010851369202    14.003074004430
         N            2.707728757806    -1.190518940186     0.075642630798    14.003074004430
         C           -0.748041442194     0.355293759814     0.001110230798    12.000000000000
         C            0.347539757806    -0.619557940186     0.005233630798    12.000000000000
         C           -1.576019242194    -1.509545940186    -0.009284369202    12.000000000000
         C            1.706676757806    -0.259117940186    -0.001489369202    12.000000000000
         C           -3.084556242194     0.539050059814    -0.000111369202    12.000000000000
         C            1.038794757806     1.956824059814    -0.012119369202    12.000000000000
         H           -2.397723242194    -2.217383940186    -0.015634369202     1.007825032230
         H           -3.164585242194     1.175540059814    -0.883079369202     1.007825032230
         H           -3.881704242194    -0.205580940186    -0.009676369202     1.007825032230
         H           -3.170285242194     1.158527059814     0.894418630798     1.007825032230
         H            1.363387757806     2.995394059814    -0.015876369202     1.007825032230
         H            3.617372757806    -0.856854940186    -0.222528369202     1.007825032230
         H            2.460397757806    -2.126547940186    -0.224238369202     1.007825032230

  Basis Set: AUG-CC-PVTZ
    Blend: AUG-CC-PVTZ
  Basis Set: (AUG-CC-PVTZ AUX)
    Blend: AUG-CC-PVTZ-JKFIT
	 Reference Energy          =    -503.6579445996702020 [Eh]
	 Singles Energy            =      -0.0000000000000000 [Eh]
	 Same-Spin Energy          =      -0.5499903928227117 [Eh]
	 Opposite-Spin Energy      =      -1.6351903733899409 [Eh]
	 Correlation Energy        =      -2.1851807662126523 [Eh]
	 Total Energy              =    -505.8431253658828268 [Eh]

	 ================> DF-SCS-MP2 Energies <==================
	-----------------------------------------------------------
	 SCS Same-Spin Scale       =       0.3333333333333333 [-]
	 SCS Opposite-Spin Scale   =       1.2000000000000000 [-]
	 SCS Same-Spin Energy      =      -0.1833301309409039 [Eh]
	 SCS Opposite-Spin Energy  =      -1.9622284480679291 [Eh]
	 SCS Correlation Energy    =      -2.1455585790088332 [Eh]
	 SCS Total Energy          =    -505.8035031786790228 [Eh]
	-----------------------------------------------------------

  Dipole Moment: [D]
     X:    -3.5364      Y:    -1.4665      Z:    -0.7895     Total:     3.9089

*** Psi4 exiting successfully. Buy a developer a beer!
