                               Psi4 1.3.2 release

  ==> Input File <==

--------------------------------------------------------------------------
#psi4
#
memory 32 gb

molecule  {
0 1
  N       -1.8011107    -0.1638522    -0.0001606
  N       -0.2713240    -1.8496560    -0.0082220
  N       -0.2672930     1.7497910     0.0010540
  N        2.0532340     1.0361840    -0.0078740
  N        2.7268170    -1.1967150     0.0786200
  C       -0.5487760     0.4359060     0.0048010
  C        0.3666280    -0.6257540     0.0082110
  C       -1.5569310    -1.5157420    -0.0063070
  C        1.7257650    -0.2653140     0.0014880
  C       -3.0654680     0.5328540     0.0028660
  C        1.0578830     1.9506280    -0.0091420
  H       -2.3847809    -2.2163824    -0.0126403
  H       -3.1454970     1.1693440    -0.8801020
  H       -3.8626160    -0.2117770    -0.0066990
  H       -3.1511970     1.1523310     0.8973960
  H        1.3824760     2.9891980    -0.0128990
  H        3.6364610    -0.8630510    -0.2195510
  H        2.4794860    -2.1327440    -0.2212610
units angstrom
no_reorient  #important for SAPT in psi4, default
symmetry c1  #important for SAPT in psi4, default
}

set PROPERTIES_ORIGIN ["COM"]
properties('MP2/aug-cc-pvtz', properties = ['dipole'])
--------------------------------------------------------------------------

    Molecular point group: c1
  Charge       = 0
  Multiplicity = 1
  Basis Set: AUG-CC-PVTZ
    Blend: AUG-CC-PVTZ
  Basis Set: (AUG-CC-PVTZ AUX)
    Blend: AUG-CC-PVTZ-JKFIT

    Orbital Energies [Eh]
    ---------------------

    Doubly Occupied:

       1A    -15.632867     2A    -15.581241     3A    -15.567400
       4A    -15.561334     5A    -15.552958     6A    -11.334826
       7A    -11.323348     8A    -11.314141     9A    -11.311766
      10A    -11.287756    11A    -11.252797    12A     -1.366193
      13A     -1.296490    14A     -1.242469    15A     -1.197902
      16A     -1.152453    17A     -1.030899    18A     -0.986468
      19A     -0.890438    20A     -0.872214    21A     -0.802874
      22A     -0.753284    23A     -0.723689    24A     -0.681116
      25A     -0.673678    26A     -0.666286    27A     -0.625621
      28A     -0.607477    29A     -0.597006    30A     -0.591558
      31A     -0.569482    32A     -0.536238    33A     -0.495815
      34A     -0.493279    35A     -0.450721    36A     -0.413861
      37A     -0.408719    38A     -0.369284    39A     -0.307735

  @DF-RHF Final Energy:  -503.72428065494950

   => Energetics <=

    Nuclear Repulsion Energy =            594.1247732740450829
    One-Electron Energy =               -1862.6507406260004700
    Two-Electron Energy =                 764.8016866970059482
    Total Energy =                       -503.7242806549494389
  Basis Set: (AUG-CC-PVTZ AUX)
    Blend: AUG-CC-PVTZ-RI
    Molecular point group: c1

    Geometry (in Angstrom), charge = 0, multiplicity = 1:

       Center              X                  Y                   Z               Mass
    ------------   -----------------  -----------------  -----------------  -----------------
         N           -1.833552402815    -0.164497472019    -0.003190850872    14.003074004430
         N           -0.303765702815    -1.850301272019    -0.011252250872    14.003074004430
         N           -0.299734702815     1.749145727981    -0.001976250872    14.003074004430
         N            2.020792297185     1.035538727981    -0.010904250872    14.003074004430
         N            2.694375297185    -1.197360272019     0.075589749128    14.003074004430
         C           -0.581217702815     0.435260727981     0.001770749128    12.000000000000
         C            0.334186297185    -0.626399272019     0.005180749128    12.000000000000
         C           -1.589372702815    -1.516387272019    -0.009337250872    12.000000000000
         C            1.693323297185    -0.265959272019    -0.001542250872    12.000000000000
         C           -3.097909702815     0.532208727981    -0.000164250872    12.000000000000
         C            1.025441297185     1.949982727981    -0.012172250872    12.000000000000
         H           -2.417222602815    -2.217027672019    -0.015670550872     1.007825032230
         H           -3.177938702815     1.168698727981    -0.883132250872     1.007825032230
         H           -3.895057702815    -0.212422272019    -0.009729250872     1.007825032230
         H           -3.183638702815     1.151685727981     0.894365749128     1.007825032230
         H            1.350034297185     2.988552727981    -0.015929250872     1.007825032230
         H            3.604019297185    -0.863696272019    -0.222581250872     1.007825032230
         H            2.447044297185    -2.133389272019    -0.224291250872     1.007825032230

  Basis Set: AUG-CC-PVTZ
    Blend: AUG-CC-PVTZ
  Basis Set: (AUG-CC-PVTZ AUX)
    Blend: AUG-CC-PVTZ-JKFIT
	 Reference Energy          =    -503.7242806549494958 [Eh]
	 Singles Energy            =      -0.0000000000000000 [Eh]
	 Same-Spin Energy          =      -0.5493625206736719 [Eh]
	 Opposite-Spin Energy      =      -1.6333208071042158 [Eh]
	 Correlation Energy        =      -2.1826833277778874 [Eh]
	 Total Energy              =    -505.9069639827274045 [Eh]

	 ================> DF-SCS-MP2 Energies <==================
	-----------------------------------------------------------
	 SCS Same-Spin Scale       =       0.3333333333333333 [-]
	 SCS Opposite-Spin Scale   =       1.2000000000000000 [-]
	 SCS Same-Spin Energy      =      -0.1831208402245573 [Eh]
	 SCS Opposite-Spin Energy  =      -1.9599849685250588 [Eh]
	 SCS Correlation Energy    =      -2.1431058087496160 [Eh]
	 SCS Total Energy          =    -505.8673864636991198 [Eh]
	-----------------------------------------------------------

  Dipole Moment: [D]
     X:    -2.6931      Y:    -1.1473      Z:    -0.7891     Total:     3.0318

*** Psi4 exiting successfully. Buy a developer a beer!
