                               Psi4 1.3.2 release

  ==> Input File <==

--------------------------------------------------------------------------
#psi4
#
memory 32 gb

molecule  {
0 1
  N       -1.7893040    -0.1617730    -0.0001110
  N       -0.2713240    -1.8496560    -0.0082220
  N       -0.2672930     1.7497910     0.0010540
  N        2.0532340     1.0361840    -0.0078740
  N        2.7268170    -1.1967150     0.0786200
  C       -0.5817570     0.5000107     0.0050587
  C        0.3666280    -0.6257540     0.0082110
  C       -1.6281114    -1.5260472    -0.0064724
  C        1.7257650    -0.2653140     0.0014880
  C       -3.0654680     0.5328540     0.0028660
  C        1.0578830     1.9506280    -0.0091420
  H       -2.3786350    -2.2235800    -0.0126570
  H       -3.1454970     1.1693440    -0.8801020
  H       -3.8626160    -0.2117770    -0.0066990
  H       -3.1511970     1.1523310     0.8973960
  H        1.3824760     2.9891980    -0.0128990
  H        3.6364610    -0.8630510    -0.2195510
  H        2.4794860    -2.1327440    -0.2212610
units angstrom
no_reorient  #important for SAPT in psi4, default
symmetry c1  #important for SAPT in psi4, default
}

set PROPERTIES_ORIGIN ["COM"]
properties('MP2/aug-cc-pvtz', properties = ['dipole'])
--------------------------------------------------------------------------

    Molecular point group: c1
  Charge       = 0
  Multiplicity = 1
  Basis Set: AUG-CC-PVTZ
    Blend: AUG-CC-PVTZ
  Basis Set: (AUG-CC-PVTZ AUX)
    Blend: AUG-CC-PVTZ-JKFIT

    Orbital Energies [Eh]
    ---------------------

    Doubly Occupied:

       1A    -15.639160     2A    -15.577718     3A    -15.572475
       4A    -15.560631     5A    -15.556172     6A    -11.330890
       7A    -11.325665     8A    -11.318087     9A    -11.314381
      10A    -11.287034    11A    -11.256045    12A     -1.360650
      13A     -1.298389    14A     -1.247533    15A     -1.183262
      16A     -1.159012    17A     -1.022265    18A     -0.983360
      19A     -0.900106    20A     -0.876257    21A     -0.799681
      22A     -0.753690    23A     -0.730342    24A     -0.686761
      25A     -0.675223    26A     -0.665742    27A     -0.624960
      28A     -0.608384    29A     -0.596286    30A     -0.591390
      31A     -0.568984    32A     -0.531893    33A     -0.500163
      34A     -0.489984    35A     -0.448946    36A     -0.412091
      37A     -0.404468    38A     -0.371519    39A     -0.293150

  @DF-RHF Final Energy:  -503.70252533808502

   => Energetics <=

    Nuclear Repulsion Energy =            592.4947727533572106
    One-Electron Energy =               -1859.3491008551468440
    Two-Electron Energy =                 763.1518027637046089
    Total Energy =                       -503.7025253380850245
  Basis Set: (AUG-CC-PVTZ AUX)
    Blend: AUG-CC-PVTZ-RI
    Molecular point group: c1

    Geometry (in Angstrom), charge = 0, multiplicity = 1:

       Center              X                  Y                   Z               Mass
    ------------   -----------------  -----------------  -----------------  -----------------
         N           -1.814511439291    -0.166895729721    -0.003153227259    14.003074004430
         N           -0.296531439291    -1.854778729721    -0.011264227259    14.003074004430
         N           -0.292500439291     1.744668270279    -0.001988227259    14.003074004430
         N            2.028026560709     1.031061270279    -0.010916227259    14.003074004430
         N            2.701609560709    -1.201837729721     0.075577772741    14.003074004430
         C           -0.606964439291     0.494887970279     0.002016472741    12.000000000000
         C            0.341420560709    -0.630876729721     0.005168772741    12.000000000000
         C           -1.653318839291    -1.531169929721    -0.009514627259    12.000000000000
         C            1.700557560709    -0.270436729721    -0.001554227259    12.000000000000
         C           -3.090675439291     0.527731270279    -0.000176227259    12.000000000000
         C            1.032675560709     1.945505270279    -0.012184227259    12.000000000000
         H           -2.403842439291    -2.228702729721    -0.015699227259     1.007825032230
         H           -3.170704439291     1.164221270279    -0.883144227259     1.007825032230
         H           -3.887823439291    -0.216899729721    -0.009741227259     1.007825032230
         H           -3.176404439291     1.147208270279     0.894353772741     1.007825032230
         H            1.357268560709     2.984075270279    -0.015941227259     1.007825032230
         H            3.611253560709    -0.868173729721    -0.222593227259     1.007825032230
         H            2.454278560709    -2.137866729721    -0.224303227259     1.007825032230

  Basis Set: AUG-CC-PVTZ
    Blend: AUG-CC-PVTZ
  Basis Set: (AUG-CC-PVTZ AUX)
    Blend: AUG-CC-PVTZ-JKFIT
	 Reference Energy          =    -503.7025253380850245 [Eh]
	 Singles Energy            =      -0.0000000000000000 [Eh]
	 Same-Spin Energy          =      -0.5522983556432417 [Eh]
	 Opposite-Spin Energy      =      -1.6376373122657872 [Eh]
	 Correlation Energy        =      -2.1899356679090287 [Eh]
	 Total Energy              =    -505.8924610059940505 [Eh]

	 ================> DF-SCS-MP2 Energies <==================
	-----------------------------------------------------------
	 SCS Same-Spin Scale       =       0.3333333333333333 [-]
	 SCS Opposite-Spin Scale   =       1.2000000000000000 [-]
	 SCS Same-Spin Energy      =      -0.1840994518810806 [Eh]
	 SCS Opposite-Spin Energy  =      -1.9651647747189447 [Eh]
	 SCS Correlation Energy    =      -2.1492642266000255 [Eh]
	 SCS Total Energy          =    -505.8517895646850775 [Eh]
	-----------------------------------------------------------

  Dipole Moment: [D]
     X:    -2.8364      Y:    -1.0174      Z:    -0.7893     Total:     3.1150

*** Psi4 exiting successfully. Buy a developer a beer!
