                               Psi4 1.3.2 release

  ==> Input File <==

--------------------------------------------------------------------------
#psi4
#
memory 32 gb

molecule  {
0 1
  N       -1.7786848    -0.1833321     0.0000411
  N       -0.2713240    -1.8496560    -0.0082220
  N       -0.2444057     1.7446789     0.0012112
  N        2.0532340     1.0361840    -0.0078740
  N        2.7268170    -1.1967150     0.0786200
  C       -0.5487760     0.4359060     0.0048010
  C        0.3666280    -0.6257540     0.0082110
  C       -1.5569310    -1.5157420    -0.0063070
  C        1.7257650    -0.2653140     0.0014880
  C       -3.0654680     0.5328540     0.0028660
  C        1.0578830     1.9506280    -0.0091420
  H       -2.3786350    -2.2235800    -0.0126570
  H       -3.1454970     1.1693440    -0.8801020
  H       -3.8626160    -0.2117770    -0.0066990
  H       -3.1511970     1.1523310     0.8973960
  H        1.3824760     2.9891980    -0.0128990
  H        3.6364610    -0.8630510    -0.2195510
  H        2.4794860    -2.1327440    -0.2212610
units angstrom
no_reorient  #important for SAPT in psi4, default
symmetry c1  #important for SAPT in psi4, default
}

set PROPERTIES_ORIGIN ["COM"]
properties('MP2/aug-cc-pvtz', properties = ['dipole'])
--------------------------------------------------------------------------

    Molecular point group: c1
  Charge       = 0
  Multiplicity = 1
  Basis Set: AUG-CC-PVTZ
    Blend: AUG-CC-PVTZ
  Basis Set: (AUG-CC-PVTZ AUX)
    Blend: AUG-CC-PVTZ-JKFIT

    Orbital Energies [Eh]
    ---------------------

    Doubly Occupied:

       1A    -15.635083     2A    -15.579904     3A    -15.564280
       4A    -15.558664     5A    -15.550017     6A    -11.333300
       7A    -11.320102     8A    -11.312097     9A    -11.307614
      10A    -11.291877    11A    -11.251126    12A     -1.371662
      13A     -1.298281    14A     -1.243588    15A     -1.194022
      16A     -1.151084    17A     -1.033226    18A     -0.986808
      19A     -0.892890    20A     -0.872975    21A     -0.802544
      22A     -0.754465    23A     -0.724021    24A     -0.681955
      25A     -0.674347    26A     -0.667180    27A     -0.623046
      28A     -0.607707    29A     -0.597644    30A     -0.592660
      31A     -0.571687    32A     -0.539275    33A     -0.497400
      34A     -0.489922    35A     -0.448328    36A     -0.413003
      37A     -0.406475    38A     -0.368543    39A     -0.308311

  @DF-RHF Final Energy:  -503.72537312492170

   => Energetics <=

    Nuclear Repulsion Energy =            594.9674593046196378
    One-Electron Energy =               -1864.3514361151512730
    Two-Electron Energy =                 765.6586036856100463
    Total Energy =                       -503.7253731249217026
  Basis Set: (AUG-CC-PVTZ AUX)
    Blend: AUG-CC-PVTZ-RI
    Molecular point group: c1

    Geometry (in Angstrom), charge = 0, multiplicity = 1:

       Center              X                  Y                   Z               Mass
    ------------   -----------------  -----------------  -----------------  -----------------
         N           -1.815424600759    -0.181618633340    -0.003022751648    14.003074004430
         N           -0.308063800759    -1.847942533340    -0.011285851648    14.003074004430
         N           -0.281145500759     1.746392366660    -0.001852651648    14.003074004430
         N            2.016494199241     1.037897466660    -0.010937851648    14.003074004430
         N            2.690077199241    -1.195001533340     0.075556148352    14.003074004430
         C           -0.585515800759     0.437619466660     0.001737148352    12.000000000000
         C            0.329888199241    -0.624040533340     0.005147148352    12.000000000000
         C           -1.593670800759    -1.514028533340    -0.009370851648    12.000000000000
         C            1.689025199241    -0.263600533340    -0.001575851648    12.000000000000
         C           -3.102207800759     0.534567466660    -0.000197851648    12.000000000000
         C            1.021143199241     1.952341466660    -0.012205851648    12.000000000000
         H           -2.415374800759    -2.221866533340    -0.015720851648     1.007825032230
         H           -3.182236800759     1.171057466660    -0.883165851648     1.007825032230
         H           -3.899355800759    -0.210063533340    -0.009762851648     1.007825032230
         H           -3.187936800759     1.154044466660     0.894332148352     1.007825032230
         H            1.345736199241     2.990911466660    -0.015962851648     1.007825032230
         H            3.599721199241    -0.861337533340    -0.222614851648     1.007825032230
         H            2.442746199241    -2.131030533340    -0.224324851648     1.007825032230

  Basis Set: AUG-CC-PVTZ
    Blend: AUG-CC-PVTZ
  Basis Set: (AUG-CC-PVTZ AUX)
    Blend: AUG-CC-PVTZ-JKFIT
	 Reference Energy          =    -503.7253731249217026 [Eh]
	 Singles Energy            =      -0.0000000000000000 [Eh]
	 Same-Spin Energy          =      -0.5490525437721340 [Eh]
	 Opposite-Spin Energy      =      -1.6321629732473175 [Eh]
	 Correlation Energy        =      -2.1812155170194516 [Eh]
	 Total Energy              =    -505.9065886419411413 [Eh]

	 ================> DF-SCS-MP2 Energies <==================
	-----------------------------------------------------------
	 SCS Same-Spin Scale       =       0.3333333333333333 [-]
	 SCS Opposite-Spin Scale   =       1.2000000000000000 [-]
	 SCS Same-Spin Energy      =      -0.1830175145907113 [Eh]
	 SCS Opposite-Spin Energy  =      -1.9585955678967810 [Eh]
	 SCS Correlation Energy    =      -2.1416130824874924 [Eh]
	 SCS Total Energy          =    -505.8669862074091839 [Eh]
	-----------------------------------------------------------

  Dipole Moment: [D]
     X:    -2.8683      Y:    -1.0844      Z:    -0.7890     Total:     3.1663

*** Psi4 exiting successfully. Buy a developer a beer!
