                               Psi4 1.4a3.dev225

  ==> Input File <==

--------------------------------------------------------------------------
#psi4
#
memory 32 gb

molecule  {
0 1
  N       -1.7889380    -0.1640290    -0.0179520
  N       -0.2703210    -1.8482040    -0.0023970
  N       -0.2671710     1.7490810    -0.0033560
  N        2.0541740     1.0368940    -0.0085470
  N        2.7206340    -1.1973270     0.0732090
  C       -0.5486140     0.4351420     0.0045870
  C        0.3650590    -0.6247560     0.0169900
  C       -1.5569260    -1.5161270    -0.0162740
  C        1.7073033    -0.2692771     0.0049790
  C       -3.0641060     0.5324820     0.0177850
  C        1.0564750     1.9508360    -0.0110870
  H       -2.3762040    -2.2259510    -0.0342240
  H       -2.9284720     1.5041700    -0.4579320
  H       -3.8067760    -0.0485880    -0.5312030
  H       -3.3972360     0.6796990     1.0480130
  H        1.3812150     2.9891510    -0.0228070
  H        3.6427950    -0.8729100    -0.1905990
  H        2.4748820    -2.1409930    -0.1987870
units angstrom
no_reorient  #important for SAPT in psi4, default
symmetry c1  #important for SAPT in psi4, default
}

set PROPERTIES_ORIGIN ["COM"]
properties('MP2/aug-cc-pvtz', properties = ['dipole'])
--------------------------------------------------------------------------

    Molecular point group: c1
  Charge       = 0
  Multiplicity = 1
  Basis Set: AUG-CC-PVTZ
    Blend: AUG-CC-PVTZ
  Basis Set: (AUG-CC-PVTZ AUX)
    Blend: AUG-CC-PVTZ-JKFIT

    Orbital Energies [Eh]
    ---------------------

    Doubly Occupied:

       1A    -15.633104     2A    -15.579350     3A    -15.568073
       4A    -15.560201     5A    -15.552475     6A    -11.333394
       7A    -11.322578     8A    -11.314786     9A    -11.311051
      10A    -11.287824    11A    -11.250122    12A     -1.369029
      13A     -1.294383    14A     -1.240963    15A     -1.196515
      16A     -1.149226    17A     -1.034034    18A     -0.986928
      19A     -0.891583    20A     -0.872715    21A     -0.803077
      22A     -0.753294    23A     -0.723458    24A     -0.682159
      25A     -0.671068    26A     -0.667336    27A     -0.623259
      28A     -0.608029    29A     -0.595300    30A     -0.593030
      31A     -0.572083    32A     -0.535305    33A     -0.494977
      34A     -0.492034    35A     -0.450959    36A     -0.414877
      37A     -0.409057    38A     -0.367027    39A     -0.309248

  @DF-RHF Final Energy:  -503.72438368821258

   => Energetics <=

    Nuclear Repulsion Energy =            594.7774880197201810
    One-Electron Energy =               -1863.9759140869177827
    Two-Electron Energy =                 765.4740423789849046
    Total Energy =                       -503.7243836882125834
  Basis Set: (AUG-CC-PVTZ AUX)
    Blend: AUG-CC-PVTZ-RI
    Molecular point group: c1

    Geometry (in Angstrom), charge = 0, multiplicity = 1:

       Center              X                  Y                   Z               Mass
    ------------   -----------------  -----------------  -----------------  -----------------
         N           -1.820776139701    -0.164376363430    -0.020546163950    14.003074004430
         N           -0.302159139701    -1.848551363430    -0.004991163950    14.003074004430
         N           -0.299009139701     1.748733636570    -0.005950163950    14.003074004430
         N            2.022335860299     1.036546636570    -0.011141163950    14.003074004430
         N            2.688795860299    -1.197674363430     0.070614836050    14.003074004430
         C           -0.580452139701     0.434794636570     0.001992836050    12.000000000000
         C            0.333220860299    -0.625103363430     0.014395836050    12.000000000000
         C           -1.588764139701    -1.516474363430    -0.018868163950    12.000000000000
         C            1.675465160299    -0.269624463430     0.002384836050    12.000000000000
         C           -3.095944139701     0.532134636570     0.015190836050    12.000000000000
         C            1.024636860299     1.950488636570    -0.013681163950    12.000000000000
         H           -2.408042139701    -2.226298363430    -0.036818163950     1.007825032230
         H           -2.960310139701     1.503822636570    -0.460526163950     1.007825032230
         H           -3.838614139701    -0.048935363430    -0.533797163950     1.007825032230
         H           -3.429074139701     0.679351636570     1.045418836050     1.007825032230
         H            1.349376860299     2.988803636570    -0.025401163950     1.007825032230
         H            3.610956860299    -0.873257363430    -0.193193163950     1.007825032230
         H            2.443043860299    -2.141340363430    -0.201381163950     1.007825032230

  Basis Set: AUG-CC-PVTZ
    Blend: AUG-CC-PVTZ
  Basis Set: (AUG-CC-PVTZ AUX)
    Blend: AUG-CC-PVTZ-JKFIT
	 Reference Energy          =    -503.7243836882125834 [Eh]
	 Singles Energy            =      -0.0000000000000000 [Eh]
	 Same-Spin Energy          =      -0.5492833961598493 [Eh]
	 Opposite-Spin Energy      =      -1.6330265335179452 [Eh]
	 Correlation Energy        =      -2.1823099296777944 [Eh]
	 Total Energy              =    -505.9066936178903688 [Eh]

	 ================> DF-SCS-MP2 Energies <==================
	-----------------------------------------------------------
	 SCS Same-Spin Scale       =       0.3333333333333333 [-]
	 SCS Opposite-Spin Scale   =       1.2000000000000000 [-]
	 SCS Same-Spin Energy      =      -0.1830944653866164 [Eh]
	 SCS Opposite-Spin Energy  =      -1.9596318402215342 [Eh]
	 SCS Correlation Energy    =      -2.1427263056081505 [Eh]
	 SCS Total Energy          =    -505.8671099938207476 [Eh]
	-----------------------------------------------------------

  Dipole Moment: [D]
     X:    -2.7529      Y:    -1.1708      Z:    -0.7150     Total:     3.0758

*** Psi4 exiting successfully. Buy a developer a beer!
