                               Psi4 1.3.2 release

  ==> Input File <==

--------------------------------------------------------------------------
#psi4
#
memory 32 gb

molecule  {
0 1
  N       -1.7656385    -0.1579242    -0.0000132
  N       -0.2713240    -1.8496560    -0.0082220
  N       -0.2672930     1.7497910     0.0010540
  N        2.0532340     1.0361840    -0.0078740
  N        2.7268170    -1.1967150     0.0786200
  C       -0.5487760     0.4359060     0.0048010
  C        0.3666280    -0.6257540     0.0082110
  C       -1.5569310    -1.5157420    -0.0063070
  C        1.7257650    -0.2653140     0.0014880
  C       -3.0654680     0.5328540     0.0028660
  C        1.0578830     1.9506280    -0.0091420
  H       -2.3661560    -2.2378130    -0.0126890
  H       -3.1454970     1.1693440    -0.8801020
  H       -3.8626160    -0.2117770    -0.0066990
  H       -3.1511970     1.1523310     0.8973960
  H        1.3824760     2.9891980    -0.0128990
  H        3.6364610    -0.8630510    -0.2195510
  H        2.4794860    -2.1327440    -0.2212610
units angstrom
no_reorient  #important for SAPT in psi4, default
symmetry c1  #important for SAPT in psi4, default
}

set PROPERTIES_ORIGIN ["COM"]
properties('MP2/aug-cc-pvtz', properties = ['dipole'])
--------------------------------------------------------------------------

    Molecular point group: c1
  Charge       = 0
  Multiplicity = 1
  Basis Set: AUG-CC-PVTZ
    Blend: AUG-CC-PVTZ
  Basis Set: (AUG-CC-PVTZ AUX)
    Blend: AUG-CC-PVTZ-JKFIT

    Orbital Energies [Eh]
    ---------------------

    Doubly Occupied:

       1A    -15.633479     2A    -15.580530     3A    -15.567268
       4A    -15.559441     5A    -15.551213     6A    -11.333923
       7A    -11.320906     8A    -11.311242     9A    -11.310709
      10A    -11.290704    11A    -11.250045    12A     -1.371276
      13A     -1.295570    14A     -1.241872    15A     -1.194955
      16A     -1.150754    17A     -1.032420    18A     -0.985249
      19A     -0.891349    20A     -0.871905    21A     -0.802614
      22A     -0.753937    23A     -0.725105    24A     -0.679725
      25A     -0.672574    26A     -0.666770    27A     -0.622726
      28A     -0.604161    29A     -0.596207    30A     -0.591186
      31A     -0.575892    32A     -0.537937    33A     -0.495132
      34A     -0.491324    35A     -0.450118    36A     -0.415056
      37A     -0.408100    38A     -0.366604    39A     -0.307858

  @DF-RHF Final Energy:  -503.72470597749918

   => Energetics <=

    Nuclear Repulsion Energy =            594.7460479269532243
    One-Electron Energy =               -1863.9258332676274676
    Two-Electron Energy =                 765.4550793631750594
    Total Energy =                       -503.7247059774991840
  Basis Set: (AUG-CC-PVTZ AUX)
    Blend: AUG-CC-PVTZ-RI
    Molecular point group: c1

    Geometry (in Angstrom), charge = 0, multiplicity = 1:

       Center              X                  Y                   Z               Mass
    ------------   -----------------  -----------------  -----------------  -----------------
         N           -1.801538242527    -0.158981438663    -0.003056967811    14.003074004430
         N           -0.307223742527    -1.850713238663    -0.011265767811    14.003074004430
         N           -0.303192742527     1.748733761337    -0.001989767811    14.003074004430
         N            2.017334257473     1.035126761337    -0.010917767811    14.003074004430
         N            2.690917257473    -1.197772238663     0.075576232189    14.003074004430
         C           -0.584675742527     0.434848761337     0.001757232189    12.000000000000
         C            0.330728257473    -0.626811238663     0.005167232189    12.000000000000
         C           -1.592830742527    -1.516799238663    -0.009350767811    12.000000000000
         C            1.689865257473    -0.266371238663    -0.001555767811    12.000000000000
         C           -3.101367742527     0.531796761337    -0.000177767811    12.000000000000
         C            1.021983257473     1.949570761337    -0.012185767811    12.000000000000
         H           -2.402055742527    -2.238870238663    -0.015732767811     1.007825032230
         H           -3.181396742527     1.168286761337    -0.883145767811     1.007825032230
         H           -3.898515742527    -0.212834238663    -0.009742767811     1.007825032230
         H           -3.187096742527     1.151273761337     0.894352232189     1.007825032230
         H            1.346576257473     2.988140761337    -0.015942767811     1.007825032230
         H            3.600561257473    -0.864108238663    -0.222594767811     1.007825032230
         H            2.443586257473    -2.133801238663    -0.224304767811     1.007825032230

  Basis Set: AUG-CC-PVTZ
    Blend: AUG-CC-PVTZ
  Basis Set: (AUG-CC-PVTZ AUX)
    Blend: AUG-CC-PVTZ-JKFIT
	 Reference Energy          =    -503.7247059774991840 [Eh]
	 Singles Energy            =      -0.0000000000000000 [Eh]
	 Same-Spin Energy          =      -0.5491298916632716 [Eh]
	 Opposite-Spin Energy      =      -1.6328195255663198 [Eh]
	 Correlation Energy        =      -2.1819494172295917 [Eh]
	 Total Energy              =    -505.9066553947287730 [Eh]

	 ================> DF-SCS-MP2 Energies <==================
	-----------------------------------------------------------
	 SCS Same-Spin Scale       =       0.3333333333333333 [-]
	 SCS Opposite-Spin Scale   =       1.2000000000000000 [-]
	 SCS Same-Spin Energy      =      -0.1830432972210905 [Eh]
	 SCS Opposite-Spin Energy  =      -1.9593834306795836 [Eh]
	 SCS Correlation Energy    =      -2.1424267279006743 [Eh]
	 SCS Total Energy          =    -505.8671327053998539 [Eh]
	-----------------------------------------------------------

  Dipole Moment: [D]
     X:    -2.8147      Y:    -1.1785      Z:    -0.7887     Total:     3.1517

*** Psi4 exiting successfully. Buy a developer a beer!
