                               Psi4 1.3.2 release

  ==> Input File <==

--------------------------------------------------------------------------
#psi4
#
memory 32 gb

molecule  {
0 1
  N       -1.7893040    -0.1617730    -0.0001110
  N       -0.2713240    -1.8496560    -0.0082220
  N       -0.2672930     1.7497910     0.0010540
  N        2.0532340     1.0361840    -0.0078740
  N        2.7268170    -1.1967150     0.0786200
  C       -0.5487760     0.4359060     0.0048010
  C        0.3666280    -0.6257540     0.0082110
  C       -1.5569310    -1.5157420    -0.0063070
  C        1.7257650    -0.2653140     0.0014880
  C       -3.0654680     0.5328540     0.0028660
  C        1.0578830     1.9506280    -0.0091420
  H       -2.3786350    -2.2235800    -0.0126570
  H       -3.1454970     1.1693440    -0.8801020
  H       -3.8626160    -0.2117770    -0.0066990
  H       -3.1511970     1.1523310     0.8973960
  H        1.3526453     2.8937516    -0.0125537
  H        3.6364610    -0.8630510    -0.2195510
  H        2.4794860    -2.1327440    -0.2212610
units angstrom
no_reorient  #important for SAPT in psi4, default
symmetry c1  #important for SAPT in psi4, default
}

set PROPERTIES_ORIGIN ["COM"]
properties('MP2/aug-cc-pvtz', properties = ['dipole'])
--------------------------------------------------------------------------

    Molecular point group: c1
  Charge       = 0
  Multiplicity = 1
  Basis Set: AUG-CC-PVTZ
    Blend: AUG-CC-PVTZ
  Basis Set: (AUG-CC-PVTZ AUX)
    Blend: AUG-CC-PVTZ-JKFIT

    Orbital Energies [Eh]
    ---------------------

    Doubly Occupied:

       1A    -15.632798     2A    -15.580643     3A    -15.567149
       4A    -15.560012     5A    -15.551627     6A    -11.333857
       7A    -11.322368     8A    -11.312427     9A    -11.299949
      10A    -11.288586    11A    -11.251711    12A     -1.367527
      13A     -1.296128    14A     -1.242182    15A     -1.196669
      16A     -1.151355    17A     -1.033467    18A     -0.985927
      19A     -0.895054    20A     -0.877579    21A     -0.803420
      22A     -0.753474    23A     -0.730985    24A     -0.681962
      25A     -0.674587    26A     -0.666218    27A     -0.627052
      28A     -0.607271    29A     -0.601326    30A     -0.592618
      31A     -0.573228    32A     -0.536511    33A     -0.495466
      34A     -0.495184    35A     -0.451657    36A     -0.413898
      37A     -0.408138    38A     -0.367935    39A     -0.307547

  @DF-RHF Final Energy:  -503.71917476116624

   => Energetics <=

    Nuclear Repulsion Energy =            594.9243454792957664
    One-Electron Energy =               -1864.2160579364390287
    Two-Electron Energy =                 765.5725376959769619
    Total Energy =                       -503.7191747611661867
  Basis Set: (AUG-CC-PVTZ AUX)
    Blend: AUG-CC-PVTZ-RI
    Molecular point group: c1

    Geometry (in Angstrom), charge = 0, multiplicity = 1:

       Center              X                  Y                   Z               Mass
    ------------   -----------------  -----------------  -----------------  -----------------
         N           -1.822694651776    -0.161919634273    -0.003148131685    14.003074004430
         N           -0.304714651776    -1.849802634273    -0.011259131685    14.003074004430
         N           -0.300683651776     1.749644365727    -0.001983131685    14.003074004430
         N            2.019843348224     1.036037365727    -0.010911131685    14.003074004430
         N            2.693426348224    -1.196861634273     0.075582868315    14.003074004430
         C           -0.582166651776     0.435759365727     0.001763868315    12.000000000000
         C            0.333237348224    -0.625900634273     0.005173868315    12.000000000000
         C           -1.590321651776    -1.515888634273    -0.009344131685    12.000000000000
         C            1.692374348224    -0.265460634273    -0.001549131685    12.000000000000
         C           -3.098858651776     0.532707365727    -0.000171131685    12.000000000000
         C            1.024492348224     1.950481365727    -0.012179131685    12.000000000000
         H           -2.412025651776    -2.223726634273    -0.015694131685     1.007825032230
         H           -3.178887651776     1.169197365727    -0.883139131685     1.007825032230
         H           -3.896006651776    -0.211923634273    -0.009736131685     1.007825032230
         H           -3.184587651776     1.152184365727     0.894358868315     1.007825032230
         H            1.319254648224     2.893604965727    -0.015590831685     1.007825032230
         H            3.603070348224    -0.863197634273    -0.222588131685     1.007825032230
         H            2.446095348224    -2.132890634273    -0.224298131685     1.007825032230

  Basis Set: AUG-CC-PVTZ
    Blend: AUG-CC-PVTZ
  Basis Set: (AUG-CC-PVTZ AUX)
    Blend: AUG-CC-PVTZ-JKFIT
	 Reference Energy          =    -503.7191747611662436 [Eh]
	 Singles Energy            =      -0.0000000000000000 [Eh]
	 Same-Spin Energy          =      -0.5490719067508152 [Eh]
	 Opposite-Spin Energy      =      -1.6326172690161120 [Eh]
	 Correlation Energy        =      -2.1816891757669272 [Eh]
	 Total Energy              =    -505.9008639369331490 [Eh]

	 ================> DF-SCS-MP2 Energies <==================
	-----------------------------------------------------------
	 SCS Same-Spin Scale       =       0.3333333333333333 [-]
	 SCS Opposite-Spin Scale   =       1.2000000000000000 [-]
	 SCS Same-Spin Energy      =      -0.1830239689169384 [Eh]
	 SCS Opposite-Spin Energy  =      -1.9591407228193343 [Eh]
	 SCS Correlation Energy    =      -2.1421646917362729 [Eh]
	 SCS Total Energy          =    -505.8613394529025413 [Eh]
	-----------------------------------------------------------

  Dipole Moment: [D]
     X:    -2.7305      Y:    -1.1322      Z:    -0.7895     Total:     3.0596

*** Psi4 exiting successfully. Buy a developer a beer!
