                               Psi4 1.4a3.dev225

  ==> Input File <==

--------------------------------------------------------------------------
#psi4
#
memory 32 gb

molecule  {
0 1
  N       -1.7889380    -0.1640290    -0.0179520
  N       -0.2703210    -1.8482040    -0.0023970
  N       -0.2671710     1.7490810    -0.0033560
  N        2.0541740     1.0368940    -0.0085470
  N        2.7206340    -1.1973270     0.0732090
  C       -0.5528029     0.4155859     0.0047052
  C        0.3650590    -0.6247560     0.0169900
  C       -1.5569260    -1.5161270    -0.0162740
  C        1.7266360    -0.2641570     0.0048060
  C       -3.0641060     0.5324820     0.0177850
  C        1.0564750     1.9508360    -0.0110870
  H       -2.3762040    -2.2259510    -0.0342240
  H       -2.9284720     1.5041700    -0.4579320
  H       -3.8067760    -0.0485880    -0.5312030
  H       -3.3972360     0.6796990     1.0480130
  H        1.3812150     2.9891510    -0.0228070
  H        3.6427950    -0.8729100    -0.1905990
  H        2.4748820    -2.1409930    -0.1987870
units angstrom
no_reorient  #important for SAPT in psi4, default
symmetry c1  #important for SAPT in psi4, default
}

set PROPERTIES_ORIGIN ["COM"]
properties('MP2/aug-cc-pvtz', properties = ['dipole'])
--------------------------------------------------------------------------

    Molecular point group: c1
  Charge       = 0
  Multiplicity = 1
  Basis Set: AUG-CC-PVTZ
    Blend: AUG-CC-PVTZ
  Basis Set: (AUG-CC-PVTZ AUX)
    Blend: AUG-CC-PVTZ-JKFIT

    Orbital Energies [Eh]
    ---------------------

    Doubly Occupied:

       1A    -15.633109     2A    -15.582232     3A    -15.567577
       4A    -15.559558     5A    -15.550290     6A    -11.335853
       7A    -11.320364     8A    -11.311100     9A    -11.310300
      10A    -11.288110    11A    -11.249697    12A     -1.370619
      13A     -1.295088    14A     -1.239776    15A     -1.197898
      16A     -1.148819    17A     -1.032370    18A     -0.987205
      19A     -0.890991    20A     -0.869560    21A     -0.804718
      22A     -0.753882    23A     -0.725152    24A     -0.681417
      25A     -0.672587    26A     -0.667756    27A     -0.624384
      28A     -0.607301    29A     -0.595035    30A     -0.592031
      31A     -0.573921    32A     -0.537767    33A     -0.493112
      34A     -0.489820    35A     -0.449638    36A     -0.414302
      37A     -0.407785    38A     -0.365932    39A     -0.309016

  @DF-RHF Final Energy:  -503.72471929720757

   => Energetics <=

    Nuclear Repulsion Energy =            594.7177353597732008
    One-Electron Energy =               -1863.8727608108474669
    Two-Electron Energy =                 765.4303061538668089
    Total Energy =                       -503.7247192972075709
  Basis Set: (AUG-CC-PVTZ AUX)
    Blend: AUG-CC-PVTZ-RI
    Molecular point group: c1

    Geometry (in Angstrom), charge = 0, multiplicity = 1:

       Center              X                  Y                   Z               Mass
    ------------   -----------------  -----------------  -----------------  -----------------
         N           -1.821995200699    -0.163214279636    -0.020541752604    14.003074004430
         N           -0.303378200699    -1.847389279636    -0.004986752604    14.003074004430
         N           -0.300228200699     1.749895720364    -0.005945752604    14.003074004430
         N            2.021116799301     1.037708720364    -0.011136752604    14.003074004430
         N            2.687576799301    -1.196512279636     0.070619247396    14.003074004430
         C           -0.585860100699     0.416400620364     0.002115447396    12.000000000000
         C            0.332001799301    -0.623941279636     0.014400247396    12.000000000000
         C           -1.589983200699    -1.515312279636    -0.018863752604    12.000000000000
         C            1.693578799301    -0.263342279636     0.002216247396    12.000000000000
         C           -3.097163200699     0.533296720364     0.015195247396    12.000000000000
         C            1.023417799301     1.951650720364    -0.013676752604    12.000000000000
         H           -2.409261200699    -2.225136279636    -0.036813752604     1.007825032230
         H           -2.961529200699     1.504984720364    -0.460521752604     1.007825032230
         H           -3.839833200699    -0.047773279636    -0.533792752604     1.007825032230
         H           -3.430293200699     0.680513720364     1.045423247396     1.007825032230
         H            1.348157799301     2.989965720364    -0.025396752604     1.007825032230
         H            3.609737799301    -0.872095279636    -0.193188752604     1.007825032230
         H            2.441824799301    -2.140178279636    -0.201376752604     1.007825032230

  Basis Set: AUG-CC-PVTZ
    Blend: AUG-CC-PVTZ
  Basis Set: (AUG-CC-PVTZ AUX)
    Blend: AUG-CC-PVTZ-JKFIT
	 Reference Energy          =    -503.7247192972075709 [Eh]
	 Singles Energy            =      -0.0000000000000000 [Eh]
	 Same-Spin Energy          =      -0.5490962399059384 [Eh]
	 Opposite-Spin Energy      =      -1.6328644753908748 [Eh]
	 Correlation Energy        =      -2.1819607152968130 [Eh]
	 Total Energy              =    -505.9066800125044097 [Eh]

	 ================> DF-SCS-MP2 Energies <==================
	-----------------------------------------------------------
	 SCS Same-Spin Scale       =       0.3333333333333333 [-]
	 SCS Opposite-Spin Scale   =       1.2000000000000000 [-]
	 SCS Same-Spin Energy      =      -0.1830320799686461 [Eh]
	 SCS Opposite-Spin Energy  =      -1.9594373704690495 [Eh]
	 SCS Correlation Energy    =      -2.1424694504376958 [Eh]
	 SCS Total Energy          =    -505.8671887476452866 [Eh]
	-----------------------------------------------------------

  Dipole Moment: [D]
     X:    -2.6672      Y:    -1.2374      Z:    -0.7127     Total:     3.0254

*** Psi4 exiting successfully. Buy a developer a beer!
