                               Psi4 1.3.2 release

  ==> Input File <==

--------------------------------------------------------------------------
#psi4
#
memory 32 gb

molecule  {
0 1
  N       -1.7893040    -0.1617730    -0.0001110
  N       -0.2713240    -1.8496560    -0.0082220
  N       -0.2672930     1.7497910     0.0010540
  N        2.0532340     1.0361840    -0.0078740
  N        2.7268170    -1.1967150     0.0786200
  C       -0.5487760     0.4359060     0.0048010
  C        0.3666280    -0.6257540     0.0082110
  C       -1.5569310    -1.5157420    -0.0063070
  C        1.7257650    -0.2653140     0.0014880
  C       -3.0654680     0.5328540     0.0028660
  C        1.1315232     1.8829736    -0.0090482
  H       -2.3786350    -2.2235800    -0.0126570
  H       -3.1454970     1.1693440    -0.8801020
  H       -3.8626160    -0.2117770    -0.0066990
  H       -3.1511970     1.1523310     0.8973960
  H        1.3824760     2.9891980    -0.0128990
  H        3.6364610    -0.8630510    -0.2195510
  H        2.4794860    -2.1327440    -0.2212610
units angstrom
no_reorient  #important for SAPT in psi4, default
symmetry c1  #important for SAPT in psi4, default
}

set PROPERTIES_ORIGIN ["COM"]
properties('MP2/aug-cc-pvtz', properties = ['dipole'])
--------------------------------------------------------------------------

    Molecular point group: c1
  Charge       = 0
  Multiplicity = 1
  Basis Set: AUG-CC-PVTZ
    Blend: AUG-CC-PVTZ
  Basis Set: (AUG-CC-PVTZ AUX)
    Blend: AUG-CC-PVTZ-JKFIT

    Orbital Energies [Eh]
    ---------------------

    Doubly Occupied:

       1A    -15.629581     2A    -15.585083     3A    -15.566331
       4A    -15.556451     5A    -15.554194     6A    -11.339300
       7A    -11.323938     8A    -11.312605     9A    -11.308921
      10A    -11.287201    11A    -11.250502    12A     -1.367662
      13A     -1.313440    14A     -1.236621    15A     -1.197389
      16A     -1.165113    17A     -1.027954    18A     -0.985652
      19A     -0.901363    20A     -0.865607    21A     -0.801163
      22A     -0.755655    23A     -0.721512    24A     -0.680935
      25A     -0.675071    26A     -0.665295    27A     -0.624680
      28A     -0.609940    29A     -0.598735    30A     -0.584246
      31A     -0.569150    32A     -0.542252    33A     -0.492623
      34A     -0.490578    35A     -0.448340    36A     -0.418276
      37A     -0.410486    38A     -0.378719    39A     -0.300916

  @DF-RHF Final Energy:  -503.71260674292483

   => Energetics <=

    Nuclear Repulsion Energy =            595.3201095437250387
    One-Electron Energy =               -1864.9784670809137879
    Two-Electron Energy =                 765.9457507942639722
    Total Energy =                       -503.7126067429247769
  Basis Set: (AUG-CC-PVTZ AUX)
    Blend: AUG-CC-PVTZ-RI
    Molecular point group: c1

    Geometry (in Angstrom), charge = 0, multiplicity = 1:

       Center              X                  Y                   Z               Mass
    ------------   -----------------  -----------------  -----------------  -----------------
         N           -1.828824293125    -0.157118810288    -0.003153348008    14.003074004430
         N           -0.310844293125    -1.845001810288    -0.011264348008    14.003074004430
         N           -0.306813293125     1.754445189712    -0.001988348008    14.003074004430
         N            2.013713706875     1.040838189712    -0.010916348008    14.003074004430
         N            2.687296706875    -1.192060810288     0.075577651992    14.003074004430
         C           -0.588296293125     0.440560189712     0.001758651992    12.000000000000
         C            0.327107706875    -0.621099810288     0.005168651992    12.000000000000
         C           -1.596451293125    -1.511087810288    -0.009349348008    12.000000000000
         C            1.686244706875    -0.260659810288    -0.001554348008    12.000000000000
         C           -3.104988293125     0.537508189712    -0.000176348008    12.000000000000
         C            1.092002906875     1.887627789712    -0.012090548008    12.000000000000
         H           -2.418155293125    -2.218925810288    -0.015699348008     1.007825032230
         H           -3.185017293125     1.173998189712    -0.883144348008     1.007825032230
         H           -3.902136293125    -0.207122810288    -0.009741348008     1.007825032230
         H           -3.190717293125     1.156985189712     0.894353651992     1.007825032230
         H            1.342955706875     2.993852189712    -0.015941348008     1.007825032230
         H            3.596940706875    -0.858396810288    -0.222593348008     1.007825032230
         H            2.439965706875    -2.128089810288    -0.224303348008     1.007825032230

  Basis Set: AUG-CC-PVTZ
    Blend: AUG-CC-PVTZ
  Basis Set: (AUG-CC-PVTZ AUX)
    Blend: AUG-CC-PVTZ-JKFIT
	 Reference Energy          =    -503.7126067429248337 [Eh]
	 Singles Energy            =      -0.0000000000000000 [Eh]
	 Same-Spin Energy          =      -0.5489690803827911 [Eh]
	 Opposite-Spin Energy      =      -1.6328880285927156 [Eh]
	 Correlation Energy        =      -2.1818571089755068 [Eh]
	 Total Energy              =    -505.8944638519003547 [Eh]

	 ================> DF-SCS-MP2 Energies <==================
	-----------------------------------------------------------
	 SCS Same-Spin Scale       =       0.3333333333333333 [-]
	 SCS Opposite-Spin Scale   =       1.2000000000000000 [-]
	 SCS Same-Spin Energy      =      -0.1829896934609304 [Eh]
	 SCS Opposite-Spin Energy  =      -1.9594656343112586 [Eh]
	 SCS Correlation Energy    =      -2.1424553277721889 [Eh]
	 SCS Total Energy          =    -505.8550620706970449 [Eh]
	-----------------------------------------------------------

  Dipole Moment: [D]
     X:    -2.4059      Y:    -1.3843      Z:    -0.7880     Total:     2.8854

*** Psi4 exiting successfully. Buy a developer a beer!
