                               Psi4 1.3.2 release

  ==> Input File <==

--------------------------------------------------------------------------
#psi4
#
memory 32 gb

molecule  {
0 1
  N       -1.7893040    -0.1617730    -0.0001110
  N       -0.2713240    -1.8496560    -0.0082220
  N       -0.2672930     1.7497910     0.0010540
  N        2.0532340     1.0361840    -0.0078740
  N        2.7268170    -1.1967150     0.0786200
  C       -0.5593962     0.4574648     0.0049225
  C        0.3666280    -0.6257540     0.0082110
  C       -1.5569310    -1.5157420    -0.0063070
  C        1.7257650    -0.2653140     0.0014880
  C       -3.0531506     0.5550199     0.0030143
  C        1.0578830     1.9506280    -0.0091420
  H       -2.3786350    -2.2235800    -0.0126570
  H       -3.1454970     1.1693440    -0.8801020
  H       -3.8626160    -0.2117770    -0.0066990
  H       -3.1511970     1.1523310     0.8973960
  H        1.3824760     2.9891980    -0.0128990
  H        3.6364610    -0.8630510    -0.2195510
  H        2.4794860    -2.1327440    -0.2212610
units angstrom
no_reorient  #important for SAPT in psi4, default
symmetry c1  #important for SAPT in psi4, default
}

set PROPERTIES_ORIGIN ["COM"]
properties('MP2/aug-cc-pvtz', properties = ['dipole'])
--------------------------------------------------------------------------

    Molecular point group: c1
  Charge       = 0
  Multiplicity = 1
  Basis Set: AUG-CC-PVTZ
    Blend: AUG-CC-PVTZ
  Basis Set: (AUG-CC-PVTZ AUX)
    Blend: AUG-CC-PVTZ-JKFIT

    Orbital Energies [Eh]
    ---------------------

    Doubly Occupied:

       1A    -15.633310     2A    -15.579637     3A    -15.568245
       4A    -15.560390     5A    -15.553246     6A    -11.332793
       7A    -11.323337     8A    -11.314441     9A    -11.312545
      10A    -11.288553    11A    -11.252968    12A     -1.367082
      13A     -1.296826    14A     -1.244771    15A     -1.196863
      16A     -1.154107    17A     -1.028136    18A     -0.985617
      19A     -0.891050    20A     -0.874789    21A     -0.799781
      22A     -0.753412    23A     -0.724815    24A     -0.681238
      25A     -0.673917    26A     -0.668948    27A     -0.625307
      28A     -0.604511    29A     -0.597392    30A     -0.592374
      31A     -0.564687    32A     -0.537919    33A     -0.497817
      34A     -0.493671    35A     -0.450611    36A     -0.415277
      37A     -0.407897    38A     -0.369290    39A     -0.304577

  @DF-RHF Final Energy:  -503.72272613798305

   => Energetics <=

    Nuclear Repulsion Energy =            594.2403719781715381
    One-Electron Energy =               -1862.8818992839485418
    Two-Electron Energy =                 764.9188011677938448
    Total Energy =                       -503.7227261379830452
  Basis Set: (AUG-CC-PVTZ AUX)
    Blend: AUG-CC-PVTZ-RI
    Molecular point group: c1

    Geometry (in Angstrom), charge = 0, multiplicity = 1:

       Center              X                  Y                   Z               Mass
    ------------   -----------------  -----------------  -----------------  -----------------
         N           -1.823032952421    -0.166084718235    -0.003167515835    14.003074004430
         N           -0.305052952421    -1.853967718235    -0.011278515835    14.003074004430
         N           -0.301021952421     1.745479281765    -0.002002515835    14.003074004430
         N            2.019505047579     1.031872281765    -0.010930515835    14.003074004430
         N            2.693088047579    -1.201026718235     0.075563484165    14.003074004430
         C           -0.593125152421     0.453153081765     0.001865984165    12.000000000000
         C            0.332899047579    -0.630065718235     0.005154484165    12.000000000000
         C           -1.590659952421    -1.520053718235    -0.009363515835    12.000000000000
         C            1.692036047579    -0.269625718235    -0.001568515835    12.000000000000
         C           -3.086879552421     0.550708181765    -0.000042215835    12.000000000000
         C            1.024154047579     1.946316281765    -0.012198515835    12.000000000000
         H           -2.412363952421    -2.227891718235    -0.015713515835     1.007825032230
         H           -3.179225952421     1.165032281765    -0.883158515835     1.007825032230
         H           -3.896344952421    -0.216088718235    -0.009755515835     1.007825032230
         H           -3.184925952421     1.148019281765     0.894339484165     1.007825032230
         H            1.348747047579     2.984886281765    -0.015955515835     1.007825032230
         H            3.602732047579    -0.867362718235    -0.222607515835     1.007825032230
         H            2.445757047579    -2.137055718235    -0.224317515835     1.007825032230

  Basis Set: AUG-CC-PVTZ
    Blend: AUG-CC-PVTZ
  Basis Set: (AUG-CC-PVTZ AUX)
    Blend: AUG-CC-PVTZ-JKFIT
	 Reference Energy          =    -503.7227261379830452 [Eh]
	 Singles Energy            =      -0.0000000000000000 [Eh]
	 Same-Spin Energy          =      -0.5496343063306006 [Eh]
	 Opposite-Spin Energy      =      -1.6333617281258908 [Eh]
	 Correlation Energy        =      -2.1829960344564912 [Eh]
	 Total Energy              =    -505.9057221724395390 [Eh]

	 ================> DF-SCS-MP2 Energies <==================
	-----------------------------------------------------------
	 SCS Same-Spin Scale       =       0.3333333333333333 [-]
	 SCS Opposite-Spin Scale   =       1.2000000000000000 [-]
	 SCS Same-Spin Energy      =      -0.1832114354435335 [Eh]
	 SCS Opposite-Spin Energy  =      -1.9600340737510689 [Eh]
	 SCS Correlation Energy    =      -2.1432455091946023 [Eh]
	 SCS Total Energy          =    -505.8659716471776733 [Eh]
	-----------------------------------------------------------

  Dipole Moment: [D]
     X:    -2.7500      Y:    -1.1291      Z:    -0.7896     Total:     3.0758

*** Psi4 exiting successfully. Buy a developer a beer!
