                               Psi4 1.3.2 release

  ==> Input File <==

--------------------------------------------------------------------------
#psi4
#
memory 32 gb

molecule  {
0 1
  N       -1.7893040    -0.1617730    -0.0001110
  N       -0.2713240    -1.8496560    -0.0082220
  N       -0.2672930     1.7497910     0.0010540
  N        2.0532340     1.0361840    -0.0078740
  N        2.7268170    -1.1967150     0.0786200
  C       -0.5944573     0.4465307     0.0051306
  C        0.3666280    -0.6257540     0.0082110
  C       -1.5569310    -1.5157420    -0.0063070
  C        1.7257650    -0.2653140     0.0014880
  C       -3.0654680     0.5328540     0.0028660
  C        1.0500664     1.9967550    -0.0091407
  H       -2.3786350    -2.2235800    -0.0126570
  H       -3.1454970     1.1693440    -0.8801020
  H       -3.8626160    -0.2117770    -0.0066990
  H       -3.1511970     1.1523310     0.8973960
  H        1.3824760     2.9891980    -0.0128990
  H        3.6364610    -0.8630510    -0.2195510
  H        2.4794860    -2.1327440    -0.2212610
units angstrom
no_reorient  #important for SAPT in psi4, default
symmetry c1  #important for SAPT in psi4, default
}

set PROPERTIES_ORIGIN ["COM"]
properties('MP2/aug-cc-pvtz', properties = ['dipole'])
--------------------------------------------------------------------------

    Molecular point group: c1
  Charge       = 0
  Multiplicity = 1
  Basis Set: AUG-CC-PVTZ
    Blend: AUG-CC-PVTZ
  Basis Set: (AUG-CC-PVTZ AUX)
    Blend: AUG-CC-PVTZ-JKFIT

    Orbital Energies [Eh]
    ---------------------

    Doubly Occupied:

       1A    -15.637740     2A    -15.577539     3A    -15.570439
       4A    -15.560883     5A    -15.550823     6A    -11.330819
       7A    -11.321757     8A    -11.314942     9A    -11.313372
      10A    -11.290865    11A    -11.253342    12A     -1.373891
      13A     -1.288084    14A     -1.239878    15A     -1.199992
      16A     -1.142146    17A     -1.028316    18A     -0.989523
      19A     -0.891410    20A     -0.876630    21A     -0.798475
      22A     -0.750755    23A     -0.730666    24A     -0.680503
      25A     -0.676089    26A     -0.670955    27A     -0.623755
      28A     -0.604744    29A     -0.601246    30A     -0.589920
      31A     -0.578599    32A     -0.535639    33A     -0.493686
      34A     -0.493264    35A     -0.448527    36A     -0.415811
      37A     -0.399234    38A     -0.361382    39A     -0.304469

  @DF-RHF Final Energy:  -503.71674958626272

   => Energetics <=

    Nuclear Repulsion Energy =            593.1633996051235727
    One-Electron Energy =               -1860.7400797524474001
    Two-Electron Energy =                 763.8599305610609917
    Total Energy =                       -503.7167495862627220
  Basis Set: (AUG-CC-PVTZ AUX)
    Blend: AUG-CC-PVTZ-RI
    Molecular point group: c1

    Geometry (in Angstrom), charge = 0, multiplicity = 1:

       Center              X                  Y                   Z               Mass
    ------------   -----------------  -----------------  -----------------  -----------------
         N           -1.818589801185    -0.167133378916    -0.003172434325    14.003074004430
         N           -0.300609801185    -1.855016378916    -0.011283434325    14.003074004430
         N           -0.296578801185     1.744430621084    -0.002007434325    14.003074004430
         N            2.023948198815     1.030823621084    -0.010935434325    14.003074004430
         N            2.697531198815    -1.202075378916     0.075558565675    14.003074004430
         C           -0.623743101185     0.441170321084     0.002069165675    12.000000000000
         C            0.337342198815    -0.631114378916     0.005149565675    12.000000000000
         C           -1.586216801185    -1.521102378916    -0.009368434325    12.000000000000
         C            1.696479198815    -0.270674378916    -0.001573434325    12.000000000000
         C           -3.094753801185     0.527493621084    -0.000195434325    12.000000000000
         C            1.020780598815     1.991394621084    -0.012202134325    12.000000000000
         H           -2.407920801185    -2.228940378916    -0.015718434325     1.007825032230
         H           -3.174782801185     1.163983621084    -0.883163434325     1.007825032230
         H           -3.891901801185    -0.217137378916    -0.009760434325     1.007825032230
         H           -3.180482801185     1.146970621084     0.894334565675     1.007825032230
         H            1.353190198815     2.983837621084    -0.015960434325     1.007825032230
         H            3.607175198815    -0.868411378916    -0.222612434325     1.007825032230
         H            2.450200198815    -2.138104378916    -0.224322434325     1.007825032230

  Basis Set: AUG-CC-PVTZ
    Blend: AUG-CC-PVTZ
  Basis Set: (AUG-CC-PVTZ AUX)
    Blend: AUG-CC-PVTZ-JKFIT
	 Reference Energy          =    -503.7167495862627220 [Eh]
	 Singles Energy            =      -0.0000000000000000 [Eh]
	 Same-Spin Energy          =      -0.5502131571208487 [Eh]
	 Opposite-Spin Energy      =      -1.6345396787608728 [Eh]
	 Correlation Energy        =      -2.1847528358817216 [Eh]
	 Total Energy              =    -505.9015024221444605 [Eh]

	 ================> DF-SCS-MP2 Energies <==================
	-----------------------------------------------------------
	 SCS Same-Spin Scale       =       0.3333333333333333 [-]
	 SCS Opposite-Spin Scale   =       1.2000000000000000 [-]
	 SCS Same-Spin Energy      =      -0.1834043857069496 [Eh]
	 SCS Opposite-Spin Energy  =      -1.9614476145130473 [Eh]
	 SCS Correlation Energy    =      -2.1448520002199967 [Eh]
	 SCS Total Energy          =    -505.8616015864827204 [Eh]
	-----------------------------------------------------------

  Dipole Moment: [D]
     X:    -2.9828      Y:    -1.0864      Z:    -0.7908     Total:     3.2715

*** Psi4 exiting successfully. Buy a developer a beer!
