                               Psi4 1.4a3.dev225

  ==> Input File <==

--------------------------------------------------------------------------
#psi4
#
memory 32 gb

molecule  {
0 1
  N       -1.7889380    -0.1640290    -0.0179520
  N       -0.2703210    -1.8482040    -0.0023970
  N       -0.2671710     1.7490810    -0.0033560
  N        2.0541740     1.0368940    -0.0085470
  N        2.7206340    -1.1973270     0.0732090
  C       -0.5486140     0.4351420     0.0045870
  C        0.3781170    -0.6399038     0.0171673
  C       -1.5569260    -1.5161270    -0.0162740
  C        1.7266360    -0.2641570     0.0048060
  C       -3.0641060     0.5324820     0.0177850
  C        1.0564750     1.9508360    -0.0110870
  H       -2.3762040    -2.2259510    -0.0342240
  H       -2.9284720     1.5041700    -0.4579320
  H       -3.8067760    -0.0485880    -0.5312030
  H       -3.3972360     0.6796990     1.0480130
  H        1.3812150     2.9891510    -0.0228070
  H        3.6427950    -0.8729100    -0.1905990
  H        2.4748820    -2.1409930    -0.1987870
units angstrom
no_reorient  #important for SAPT in psi4, default
symmetry c1  #important for SAPT in psi4, default
}

set PROPERTIES_ORIGIN ["COM"]
properties('MP2/aug-cc-pvtz', properties = ['dipole'])
--------------------------------------------------------------------------

    Molecular point group: c1
  Charge       = 0
  Multiplicity = 1
  Basis Set: AUG-CC-PVTZ
    Blend: AUG-CC-PVTZ
  Basis Set: (AUG-CC-PVTZ AUX)
    Blend: AUG-CC-PVTZ-JKFIT

    Orbital Energies [Eh]
    ---------------------

    Doubly Occupied:

       1A    -15.633350     2A    -15.579779     3A    -15.567515
       4A    -15.560365     5A    -15.551755     6A    -11.333158
       7A    -11.321261     8A    -11.315054     9A    -11.311522
      10A    -11.287664    11A    -11.251782    12A     -1.367327
      13A     -1.295950    14A     -1.243074    15A     -1.197715
      16A     -1.151583    17A     -1.029232    18A     -0.986466
      19A     -0.891072    20A     -0.873172    21A     -0.800694
      22A     -0.753539    23A     -0.725875    24A     -0.681458
      25A     -0.674154    26A     -0.666277    27A     -0.625277
      28A     -0.605322    29A     -0.595458    30A     -0.592903
      31A     -0.571609    32A     -0.536658    33A     -0.496026
      34A     -0.491596    35A     -0.449861    36A     -0.414926
      37A     -0.407760    38A     -0.367129    39A     -0.305181

  @DF-RHF Final Energy:  -503.72392703714797

   => Energetics <=

    Nuclear Repulsion Energy =            594.4218744918821358
    One-Electron Energy =               -1863.2706072407290776
    Two-Electron Energy =                 765.1248057116989685
    Total Energy =                       -503.7239270371479734
  Basis Set: (AUG-CC-PVTZ AUX)
    Blend: AUG-CC-PVTZ-RI
    Molecular point group: c1

    Geometry (in Angstrom), charge = 0, multiplicity = 1:

       Center              X                  Y                   Z               Mass
    ------------   -----------------  -----------------  -----------------  -----------------
         N           -1.823383559177    -0.163569143448    -0.020546510096    14.003074004430
         N           -0.304766559177    -1.847744143448    -0.004991510096    14.003074004430
         N           -0.301616559177     1.749540856552    -0.005950510096    14.003074004430
         N            2.019728440823     1.037353856552    -0.011141510096    14.003074004430
         N            2.686188440823    -1.196867143448     0.070614489904    14.003074004430
         C           -0.583059559177     0.435601856552     0.001992489904    12.000000000000
         C            0.343671440823    -0.639443943448     0.014572789904    12.000000000000
         C           -1.591371559177    -1.515667143448    -0.018868510096    12.000000000000
         C            1.692190440823    -0.263697143448     0.002211489904    12.000000000000
         C           -3.098551559177     0.532941856552     0.015190489904    12.000000000000
         C            1.022029440823     1.951295856552    -0.013681510096    12.000000000000
         H           -2.410649559177    -2.225491143448    -0.036818510096     1.007825032230
         H           -2.962917559177     1.504629856552    -0.460526510096     1.007825032230
         H           -3.841221559177    -0.048128143448    -0.533797510096     1.007825032230
         H           -3.431681559177     0.680158856552     1.045418489904     1.007825032230
         H            1.346769440823     2.989610856552    -0.025401510096     1.007825032230
         H            3.608349440823    -0.872450143448    -0.193193510096     1.007825032230
         H            2.440436440823    -2.140533143448    -0.201381510096     1.007825032230

  Basis Set: AUG-CC-PVTZ
    Blend: AUG-CC-PVTZ
  Basis Set: (AUG-CC-PVTZ AUX)
    Blend: AUG-CC-PVTZ-JKFIT
	 Reference Energy          =    -503.7239270371479734 [Eh]
	 Singles Energy            =      -0.0000000000000000 [Eh]
	 Same-Spin Energy          =      -0.5496394292043038 [Eh]
	 Opposite-Spin Energy      =      -1.6331883838118562 [Eh]
	 Correlation Energy        =      -2.1828278130161598 [Eh]
	 Total Energy              =    -505.9067548501641340 [Eh]

	 ================> DF-SCS-MP2 Energies <==================
	-----------------------------------------------------------
	 SCS Same-Spin Scale       =       0.3333333333333333 [-]
	 SCS Opposite-Spin Scale   =       1.2000000000000000 [-]
	 SCS Same-Spin Energy      =      -0.1832131430681012 [Eh]
	 SCS Opposite-Spin Energy  =      -1.9598260605742273 [Eh]
	 SCS Correlation Energy    =      -2.1430392036423287 [Eh]
	 SCS Total Energy          =    -505.8669662407903047 [Eh]
	-----------------------------------------------------------

  Dipole Moment: [D]
     X:    -2.6940      Y:    -1.1952      Z:    -0.7130     Total:     3.0323

*** Psi4 exiting successfully. Buy a developer a beer!
