                               Psi4 1.3.2 release

  ==> Input File <==

--------------------------------------------------------------------------
#psi4
#
memory 32 gb

molecule  {
0 1
  N       -1.7893040    -0.1617730    -0.0001110
  N       -0.2713240    -1.8496560    -0.0082220
  N       -0.2672930     1.7497910     0.0010540
  N        2.0532340     1.0361840    -0.0078740
  N        2.7268170    -1.1967150     0.0786200
  C       -0.5487760     0.4359060     0.0048010
  C        0.3666280    -0.6257540     0.0082110
  C       -1.5569310    -1.5157420    -0.0063070
  C        1.7257650    -0.2653140     0.0014880
  C       -3.0654680     0.5328540     0.0028660
  C        0.9590149     1.9356440    -0.0083813
  H       -2.3786350    -2.2235800    -0.0126570
  H       -3.1454970     1.1693440    -0.8801020
  H       -3.8626160    -0.2117770    -0.0066990
  H       -3.1511970     1.1523310     0.8973960
  H        1.3824760     2.9891980    -0.0128990
  H        3.6364610    -0.8630510    -0.2195510
  H        2.4794860    -2.1327440    -0.2212610
units angstrom
no_reorient  #important for SAPT in psi4, default
symmetry c1  #important for SAPT in psi4, default
}

set PROPERTIES_ORIGIN ["COM"]
properties('MP2/aug-cc-pvtz', properties = ['dipole'])
--------------------------------------------------------------------------

    Molecular point group: c1
  Charge       = 0
  Multiplicity = 1
  Basis Set: AUG-CC-PVTZ
    Blend: AUG-CC-PVTZ
  Basis Set: (AUG-CC-PVTZ AUX)
    Blend: AUG-CC-PVTZ-JKFIT

    Orbital Energies [Eh]
    ---------------------

    Doubly Occupied:

       1A    -15.637204     2A    -15.579175     3A    -15.569457
       4A    -15.561331     5A    -15.548721     6A    -11.331157
       7A    -11.321566     8A    -11.315015     9A    -11.307114
      10A    -11.291265    11A    -11.254061    12A     -1.372252
      13A     -1.303808    14A     -1.256757    15A     -1.199095
      16A     -1.146169    17A     -1.035896    18A     -0.987573
      19A     -0.886395    20A     -0.870826    21A     -0.806165
      22A     -0.756078    23A     -0.721240    24A     -0.681099
      25A     -0.672174    26A     -0.669414    27A     -0.627640
      28A     -0.606599    29A     -0.597329    30A     -0.591892
      31A     -0.569754    32A     -0.536132    33A     -0.509920
      34A     -0.485221    35A     -0.449489    36A     -0.414684
      37A     -0.409583    38A     -0.363142    39A     -0.316449

  @DF-RHF Final Energy:  -503.71307898693897

   => Energetics <=

    Nuclear Repulsion Energy =            595.5425602016470066
    One-Electron Energy =               -1865.3936043907792737
    Two-Electron Energy =                 766.1379652021931861
    Total Energy =                       -503.7130789869389673
  Basis Set: (AUG-CC-PVTZ AUX)
    Blend: AUG-CC-PVTZ-RI
    Molecular point group: c1

    Geometry (in Angstrom), charge = 0, multiplicity = 1:

       Center              X                  Y                   Z               Mass
    ------------   -----------------  -----------------  -----------------  -----------------
         N           -1.814937544732    -0.161358725657    -0.003207032802    14.003074004430
         N           -0.296957544732    -1.849241725657    -0.011318032802    14.003074004430
         N           -0.292926544732     1.750205274343    -0.002042032802    14.003074004430
         N            2.027600455268     1.036598274343    -0.010970032802    14.003074004430
         N            2.701183455268    -1.196300725657     0.075523967198    14.003074004430
         C           -0.574409544732     0.436320274343     0.001704967198    12.000000000000
         C            0.340994455268    -0.625339725657     0.005114967198    12.000000000000
         C           -1.582564544732    -1.515327725657    -0.009403032802    12.000000000000
         C            1.700131455268    -0.264899725657    -0.001608032802    12.000000000000
         C           -3.091101544732     0.533268274343    -0.000230032802    12.000000000000
         C            0.933381355268     1.936058274343    -0.011477332802    12.000000000000
         H           -2.404268544732    -2.223165725657    -0.015753032802     1.007825032230
         H           -3.171130544732     1.169758274343    -0.883198032802     1.007825032230
         H           -3.888249544732    -0.211362725657    -0.009795032802     1.007825032230
         H           -3.176830544732     1.152745274343     0.894299967198     1.007825032230
         H            1.356842455268     2.989612274343    -0.015995032802     1.007825032230
         H            3.610827455268    -0.862636725657    -0.222647032802     1.007825032230
         H            2.453852455268    -2.132329725657    -0.224357032802     1.007825032230

  Basis Set: AUG-CC-PVTZ
    Blend: AUG-CC-PVTZ
  Basis Set: (AUG-CC-PVTZ AUX)
    Blend: AUG-CC-PVTZ-JKFIT
	 Reference Energy          =    -503.7130789869389673 [Eh]
	 Singles Energy            =      -0.0000000000000000 [Eh]
	 Same-Spin Energy          =      -0.5486602855614264 [Eh]
	 Opposite-Spin Energy      =      -1.6326313265497800 [Eh]
	 Correlation Energy        =      -2.1812916121112065 [Eh]
	 Total Energy              =    -505.8943705990501485 [Eh]

	 ================> DF-SCS-MP2 Energies <==================
	-----------------------------------------------------------
	 SCS Same-Spin Scale       =       0.3333333333333333 [-]
	 SCS Opposite-Spin Scale   =       1.2000000000000000 [-]
	 SCS Same-Spin Energy      =      -0.1828867618538088 [Eh]
	 SCS Opposite-Spin Energy  =      -1.9591575918597359 [Eh]
	 SCS Correlation Energy    =      -2.1420443537135450 [Eh]
	 SCS Total Energy          =    -505.8551233406525398 [Eh]
	-----------------------------------------------------------

  Dipole Moment: [D]
     X:    -3.0588      Y:    -1.1197      Z:    -0.7877     Total:     3.3512

*** Psi4 exiting successfully. Buy a developer a beer!
