                               Psi4 1.3.2 release

  ==> Input File <==

--------------------------------------------------------------------------
#psi4
#
memory 32 gb

molecule  {
0 1
  N       -1.7893040    -0.1617730    -0.0001110
  N       -0.2656921    -1.8271690    -0.0080335
  N       -0.2672930     1.7497910     0.0010540
  N        2.0532340     1.0361840    -0.0078740
  N        2.7268170    -1.1967150     0.0786200
  C       -0.5487760     0.4359060     0.0048010
  C        0.3666280    -0.6257540     0.0082110
  C       -1.5569310    -1.5157420    -0.0063070
  C        1.7257650    -0.2653140     0.0014880
  C       -3.0654680     0.5328540     0.0028660
  C        1.0578830     1.9506280    -0.0091420
  H       -2.3908638    -2.2091319    -0.0125461
  H       -3.1454970     1.1693440    -0.8801020
  H       -3.8626160    -0.2117770    -0.0066990
  H       -3.1511970     1.1523310     0.8973960
  H        1.3824760     2.9891980    -0.0128990
  H        3.6364610    -0.8630510    -0.2195510
  H        2.4794860    -2.1327440    -0.2212610
units angstrom
no_reorient  #important for SAPT in psi4, default
symmetry c1  #important for SAPT in psi4, default
}

set PROPERTIES_ORIGIN ["COM"]
properties('MP2/aug-cc-pvtz', properties = ['dipole'])
--------------------------------------------------------------------------

    Molecular point group: c1
  Charge       = 0
  Multiplicity = 1
  Basis Set: AUG-CC-PVTZ
    Blend: AUG-CC-PVTZ
  Basis Set: (AUG-CC-PVTZ AUX)
    Blend: AUG-CC-PVTZ-JKFIT

    Orbital Energies [Eh]
    ---------------------

    Doubly Occupied:

       1A    -15.632775     2A    -15.581131     3A    -15.565069
       4A    -15.560098     5A    -15.552182     6A    -11.334403
       7A    -11.321897     8A    -11.311366     9A    -11.310924
      10A    -11.288501    11A    -11.250507    12A     -1.369588
      13A     -1.296028    14A     -1.242845    15A     -1.199249
      16A     -1.151693    17A     -1.030425    18A     -0.986880
      19A     -0.891905    20A     -0.871329    21A     -0.803312
      22A     -0.753565    23A     -0.725301    24A     -0.679991
      25A     -0.674796    26A     -0.666551    27A     -0.626729
      28A     -0.606707    29A     -0.597847    30A     -0.592128
      31A     -0.571759    32A     -0.537035    33A     -0.495711
      34A     -0.491056    35A     -0.450603    36A     -0.414985
      37A     -0.407522    38A     -0.368567    39A     -0.305622

  @DF-RHF Final Energy:  -503.72466476163652

   => Energetics <=

    Nuclear Repulsion Energy =            594.9932587382064639
    One-Electron Energy =               -1864.3986779192612175
    Two-Electron Energy =                 765.6807544194181219
    Total Energy =                       -503.7246647616365181
  Basis Set: (AUG-CC-PVTZ AUX)
    Blend: AUG-CC-PVTZ-RI
    Molecular point group: c1

    Geometry (in Angstrom), charge = 0, multiplicity = 1:

       Center              X                  Y                   Z               Mass
    ------------   -----------------  -----------------  -----------------  -----------------
         N           -1.823342692655    -0.164774944788    -0.003164253929    14.003074004430
         N           -0.299730792655    -1.830170944788    -0.011086753929    14.003074004430
         N           -0.301331692655     1.746789055212    -0.001999253929    14.003074004430
         N            2.019195307345     1.033182055212    -0.010927253929    14.003074004430
         N            2.692778307345    -1.199716944788     0.075566746071    14.003074004430
         C           -0.582814692655     0.432904055212     0.001747746071    12.000000000000
         C            0.332589307345    -0.628755944788     0.005157746071    12.000000000000
         C           -1.590969692655    -1.518743944788    -0.009360253929    12.000000000000
         C            1.691726307345    -0.268315944788    -0.001565253929    12.000000000000
         C           -3.099506692655     0.529852055212    -0.000187253929    12.000000000000
         C            1.023844307345     1.947626055212    -0.012195253929    12.000000000000
         H           -2.424902492655    -2.212133844788    -0.015599353929     1.007825032230
         H           -3.179535692655     1.166342055212    -0.883155253929     1.007825032230
         H           -3.896654692655    -0.214778944788    -0.009752253929     1.007825032230
         H           -3.185235692655     1.149329055212     0.894342746071     1.007825032230
         H            1.348437307345     2.986196055212    -0.015952253929     1.007825032230
         H            3.602422307345    -0.866052944788    -0.222604253929     1.007825032230
         H            2.445447307345    -2.135745944788    -0.224314253929     1.007825032230

  Basis Set: AUG-CC-PVTZ
    Blend: AUG-CC-PVTZ
  Basis Set: (AUG-CC-PVTZ AUX)
    Blend: AUG-CC-PVTZ-JKFIT
	 Reference Energy          =    -503.7246647616365181 [Eh]
	 Singles Energy            =      -0.0000000000000000 [Eh]
	 Same-Spin Energy          =      -0.5495739597376311 [Eh]
	 Opposite-Spin Energy      =      -1.6330598988288541 [Eh]
	 Correlation Energy        =      -2.1826338585664851 [Eh]
	 Total Energy              =    -505.9072986202029938 [Eh]

	 ================> DF-SCS-MP2 Energies <==================
	-----------------------------------------------------------
	 SCS Same-Spin Scale       =       0.3333333333333333 [-]
	 SCS Opposite-Spin Scale   =       1.2000000000000000 [-]
	 SCS Same-Spin Energy      =      -0.1831913199125437 [Eh]
	 SCS Opposite-Spin Energy  =      -1.9596718785946248 [Eh]
	 SCS Correlation Energy    =      -2.1428631985071687 [Eh]
	 SCS Total Energy          =    -505.8675279601436614 [Eh]
	-----------------------------------------------------------

  Dipole Moment: [D]
     X:    -2.7579      Y:    -1.2004      Z:    -0.7889     Total:     3.1095

*** Psi4 exiting successfully. Buy a developer a beer!
