                               Psi4 1.3.2 release

  ==> Input File <==

--------------------------------------------------------------------------
#psi4
#
memory 32 gb

molecule  {
0 1
  N       -1.7893040    -0.1617730    -0.0001110
  N       -0.2713240    -1.8496560    -0.0082220
  N       -0.2672930     1.7497910     0.0010540
  N        2.0532340     1.0361840    -0.0078740
  N        2.7268170    -1.1967150     0.0786200
  C       -0.5817572     0.5000101     0.0051610
  C        0.3666280    -0.6257540     0.0082110
  C       -1.5569310    -1.5157420    -0.0063070
  C        1.7257650    -0.2653140     0.0014880
  C       -3.0273648     0.5986899     0.0033080
  C        1.0578830     1.9506280    -0.0091420
  H       -2.3786350    -2.2235800    -0.0126570
  H       -3.1454970     1.1693440    -0.8801020
  H       -3.8626160    -0.2117770    -0.0066990
  H       -3.1511970     1.1523310     0.8973960
  H        1.3824760     2.9891980    -0.0128990
  H        3.6364610    -0.8630510    -0.2195510
  H        2.4794860    -2.1327440    -0.2212610
units angstrom
no_reorient  #important for SAPT in psi4, default
symmetry c1  #important for SAPT in psi4, default
}

set PROPERTIES_ORIGIN ["COM"]
properties('MP2/aug-cc-pvtz', properties = ['dipole'])
--------------------------------------------------------------------------

    Molecular point group: c1
  Charge       = 0
  Multiplicity = 1
  Basis Set: AUG-CC-PVTZ
    Blend: AUG-CC-PVTZ
  Basis Set: (AUG-CC-PVTZ AUX)
    Blend: AUG-CC-PVTZ-JKFIT

    Orbital Energies [Eh]
    ---------------------

    Doubly Occupied:

       1A    -15.633884     2A    -15.576980     3A    -15.570003
       4A    -15.559801     5A    -15.555207     6A    -11.329377
       7A    -11.325095     8A    -11.317077     9A    -11.314546
      10A    -11.288896    11A    -11.254640    12A     -1.366244
      13A     -1.298816    14A     -1.249772    15A     -1.197256
      16A     -1.158160    17A     -1.022049    18A     -0.985221
      19A     -0.892008    20A     -0.880134    21A     -0.794645
      22A     -0.753455    23A     -0.726355    24A     -0.684780
      25A     -0.675369    26A     -0.673450    27A     -0.626782
      28A     -0.602913    29A     -0.598471    30A     -0.592947
      31A     -0.547561    32A     -0.539747    33A     -0.502606
      34A     -0.495489    35A     -0.450424    36A     -0.417424
      37A     -0.405221    38A     -0.371381    39A     -0.298441

  @DF-RHF Final Energy:  -503.70918666557901

   => Energetics <=

    Nuclear Repulsion Energy =            594.1055747534250031
    One-Electron Energy =               -1862.5642680067278434
    Two-Electron Energy =                 764.7495065877238858
    Total Energy =                       -503.7091866655790682
  Basis Set: (AUG-CC-PVTZ AUX)
    Blend: AUG-CC-PVTZ-RI
    Molecular point group: c1

    Geometry (in Angstrom), charge = 0, multiplicity = 1:

       Center              X                  Y                   Z               Mass
    ------------   -----------------  -----------------  -----------------  -----------------
         N           -1.823308645451    -0.173024965045    -0.003210357411    14.003074004430
         N           -0.305328645451    -1.860907965045    -0.011321357411    14.003074004430
         N           -0.301297645451     1.738539034955    -0.002045357411    14.003074004430
         N            2.019229354549     1.024932034955    -0.010973357411    14.003074004430
         N            2.692812354549    -1.207966965045     0.075520642589    14.003074004430
         C           -0.615761845451     0.488758134955     0.002061642589    12.000000000000
         C            0.332623354549    -0.637005965045     0.005111642589    12.000000000000
         C           -1.590935645451    -1.526993965045    -0.009406357411    12.000000000000
         C            1.691760354549    -0.276565965045    -0.001611357411    12.000000000000
         C           -3.061369445451     0.587437934955     0.000208642589    12.000000000000
         C            1.023878354549     1.939376034955    -0.012241357411    12.000000000000
         H           -2.412639645451    -2.234831965045    -0.015756357411     1.007825032230
         H           -3.179501645451     1.158092034955    -0.883201357411     1.007825032230
         H           -3.896620645451    -0.223028965045    -0.009798357411     1.007825032230
         H           -3.185201645451     1.141079034955     0.894296642589     1.007825032230
         H            1.348471354549     2.977946034955    -0.015998357411     1.007825032230
         H            3.602456354549    -0.874302965045    -0.222650357411     1.007825032230
         H            2.445481354549    -2.143995965045    -0.224360357411     1.007825032230

  Basis Set: AUG-CC-PVTZ
    Blend: AUG-CC-PVTZ
  Basis Set: (AUG-CC-PVTZ AUX)
    Blend: AUG-CC-PVTZ-JKFIT
	 Reference Energy          =    -503.7091866655790113 [Eh]
	 Singles Energy            =      -0.0000000000000000 [Eh]
	 Same-Spin Energy          =      -0.5505014715494243 [Eh]
	 Opposite-Spin Energy      =      -1.6343815795484327 [Eh]
	 Correlation Energy        =      -2.1848830510978567 [Eh]
	 Total Energy              =    -505.8940697166768814 [Eh]

	 ================> DF-SCS-MP2 Energies <==================
	-----------------------------------------------------------
	 SCS Same-Spin Scale       =       0.3333333333333333 [-]
	 SCS Opposite-Spin Scale   =       1.2000000000000000 [-]
	 SCS Same-Spin Energy      =      -0.1835004905164748 [Eh]
	 SCS Opposite-Spin Energy  =      -1.9612578954581190 [Eh]
	 SCS Correlation Energy    =      -2.1447583859745940 [Eh]
	 SCS Total Energy          =    -505.8539450515535805 [Eh]
	-----------------------------------------------------------

  Dipole Moment: [D]
     X:    -2.7688      Y:    -1.0656      Z:    -0.7907     Total:     3.0703

*** Psi4 exiting successfully. Buy a developer a beer!
