                               Psi4 1.4a3.dev225

  ==> Input File <==

--------------------------------------------------------------------------
#psi4
#
memory 32 gb

molecule  {
0 1
  N       -1.7889380    -0.1640290    -0.0179520
  N       -0.2703210    -1.8482040    -0.0023970
  N       -0.2671710     1.7490810    -0.0033560
  N        2.0541740     1.0368940    -0.0085470
  N        2.7206340    -1.1973270     0.0732090
  C       -0.5486140     0.4351420     0.0045870
  C        0.3650590    -0.6247560     0.0169900
  C       -1.5375617    -1.5211250    -0.0160651
  C        1.7266360    -0.2641570     0.0048060
  C       -3.0641060     0.5324820     0.0177850
  C        1.0564750     1.9508360    -0.0110870
  H       -2.3762040    -2.2259510    -0.0342240
  H       -2.9284720     1.5041700    -0.4579320
  H       -3.8067760    -0.0485880    -0.5312030
  H       -3.3972360     0.6796990     1.0480130
  H        1.3812150     2.9891510    -0.0228070
  H        3.6427950    -0.8729100    -0.1905990
  H        2.4748820    -2.1409930    -0.1987870
units angstrom
no_reorient  #important for SAPT in psi4, default
symmetry c1  #important for SAPT in psi4, default
}

set PROPERTIES_ORIGIN ["COM"]
properties('MP2/aug-cc-pvtz', properties = ['dipole'])
--------------------------------------------------------------------------

    Molecular point group: c1
  Charge       = 0
  Multiplicity = 1
  Basis Set: AUG-CC-PVTZ
    Blend: AUG-CC-PVTZ
  Basis Set: (AUG-CC-PVTZ AUX)
    Blend: AUG-CC-PVTZ-JKFIT

    Orbital Energies [Eh]
    ---------------------

    Doubly Occupied:

       1A    -15.629962     2A    -15.581396     3A    -15.567011
       4A    -15.559547     5A    -15.551310     6A    -11.334746
       7A    -11.320417     8A    -11.312809     9A    -11.311679
      10A    -11.286582    11A    -11.250577    12A     -1.368120
      13A     -1.295923    14A     -1.243911    15A     -1.199759
      16A     -1.151482    17A     -1.031720    18A     -0.984301
      19A     -0.888386    20A     -0.872531    21A     -0.802005
      22A     -0.753730    23A     -0.724268    24A     -0.680571
      25A     -0.674032    26A     -0.665586    27A     -0.625870
      28A     -0.604406    29A     -0.595267    30A     -0.592184
      31A     -0.570778    32A     -0.537372    33A     -0.496300
      34A     -0.491588    35A     -0.450815    36A     -0.415228
      37A     -0.408374    38A     -0.366617    39A     -0.308904

  @DF-RHF Final Energy:  -503.72599687942164

   => Energetics <=

    Nuclear Repulsion Energy =            594.8354661671429540
    One-Electron Energy =               -1864.1107971004735191
    Two-Electron Energy =                 765.5493340539090923
    Total Energy =                       -503.7259968794215865
  Basis Set: (AUG-CC-PVTZ AUX)
    Blend: AUG-CC-PVTZ-RI
    Molecular point group: c1

    Geometry (in Angstrom), charge = 0, multiplicity = 1:

       Center              X                  Y                   Z               Mass
    ------------   -----------------  -----------------  -----------------  -----------------
         N           -1.823891210121    -0.164386192360    -0.020549053865    14.003074004430
         N           -0.305274210121    -1.848561192360    -0.004994053865    14.003074004430
         N           -0.302124210121     1.748723807640    -0.005953053865    14.003074004430
         N            2.019220789879     1.036536807640    -0.011144053865    14.003074004430
         N            2.685680789879    -1.197684192360     0.070611946135    14.003074004430
         C           -0.583567210121     0.434784807640     0.001989946135    12.000000000000
         C            0.330105789879    -0.625113192360     0.014392946135    12.000000000000
         C           -1.572514910121    -1.521482192360    -0.018662153865    12.000000000000
         C            1.691682789879    -0.264514192360     0.002208946135    12.000000000000
         C           -3.099059210121     0.532124807640     0.015187946135    12.000000000000
         C            1.021521789879     1.950478807640    -0.013684053865    12.000000000000
         H           -2.411157210121    -2.226308192360    -0.036821053865     1.007825032230
         H           -2.963425210121     1.503812807640    -0.460529053865     1.007825032230
         H           -3.841729210121    -0.048945192360    -0.533800053865     1.007825032230
         H           -3.432189210121     0.679341807640     1.045415946135     1.007825032230
         H            1.346261789879     2.988793807640    -0.025404053865     1.007825032230
         H            3.607841789879    -0.873267192360    -0.193196053865     1.007825032230
         H            2.439928789879    -2.141350192360    -0.201384053865     1.007825032230

  Basis Set: AUG-CC-PVTZ
    Blend: AUG-CC-PVTZ
  Basis Set: (AUG-CC-PVTZ AUX)
    Blend: AUG-CC-PVTZ-JKFIT
	 Reference Energy          =    -503.7259968794216434 [Eh]
	 Singles Energy            =      -0.0000000000000000 [Eh]
	 Same-Spin Energy          =      -0.5487708204436070 [Eh]
	 Opposite-Spin Energy      =      -1.6319875286286132 [Eh]
	 Correlation Energy        =      -2.1807583490722200 [Eh]
	 Total Energy              =    -505.9067552284938643 [Eh]

	 ================> DF-SCS-MP2 Energies <==================
	-----------------------------------------------------------
	 SCS Same-Spin Scale       =       0.3333333333333333 [-]
	 SCS Opposite-Spin Scale   =       1.2000000000000000 [-]
	 SCS Same-Spin Energy      =      -0.1829236068145357 [Eh]
	 SCS Opposite-Spin Energy  =      -1.9583850343543356 [Eh]
	 SCS Correlation Energy    =      -2.1413086411688713 [Eh]
	 SCS Total Energy          =    -505.8673055205904916 [Eh]
	-----------------------------------------------------------

  Dipole Moment: [D]
     X:    -2.6066      Y:    -1.2470      Z:    -0.7129     Total:     2.9761

*** Psi4 exiting successfully. Buy a developer a beer!
