                               Psi4 1.3.2 release

  ==> Input File <==

--------------------------------------------------------------------------
#psi4
#
memory 32 gb

molecule  {
0 1
  N       -1.7893040    -0.1617730    -0.0001110
  N       -0.2713240    -1.8496560    -0.0082220
  N       -0.2672930     1.7497910     0.0010540
  N        2.0305084     1.0416810    -0.0092880
  N        2.7104105    -1.2140882     0.0780588
  C       -0.5487760     0.4359060     0.0048010
  C        0.3666280    -0.6257540     0.0082110
  C       -1.5569310    -1.5157420    -0.0063070
  C        1.7257650    -0.2653140     0.0014880
  C       -3.0654680     0.5328540     0.0028660
  C        1.0578830     1.9506280    -0.0091420
  H       -2.3786350    -2.2235800    -0.0126570
  H       -3.1454970     1.1693440    -0.8801020
  H       -3.8626160    -0.2117770    -0.0066990
  H       -3.1511970     1.1523310     0.8973960
  H        1.3824760     2.9891980    -0.0128990
  H        3.6364610    -0.8630510    -0.2195510
  H        2.4794860    -2.1327440    -0.2212610
units angstrom
no_reorient  #important for SAPT in psi4, default
symmetry c1  #important for SAPT in psi4, default
}

set PROPERTIES_ORIGIN ["COM"]
properties('MP2/aug-cc-pvtz', properties = ['dipole'])
--------------------------------------------------------------------------

    Molecular point group: c1
  Charge       = 0
  Multiplicity = 1
  Basis Set: AUG-CC-PVTZ
    Blend: AUG-CC-PVTZ
  Basis Set: (AUG-CC-PVTZ AUX)
    Blend: AUG-CC-PVTZ-JKFIT

    Orbital Energies [Eh]
    ---------------------

    Doubly Occupied:

       1A    -15.632225     2A    -15.582496     3A    -15.566538
       4A    -15.558650     5A    -15.550699     6A    -11.335515
       7A    -11.322378     8A    -11.312048     9A    -11.308888
      10A    -11.288161    11A    -11.250755    12A     -1.367416
      13A     -1.298389    14A     -1.242370    15A     -1.196458
      16A     -1.154631    17A     -1.031586    18A     -0.985499
      19A     -0.893327    20A     -0.870615    21A     -0.803090
      22A     -0.754825    23A     -0.723860    24A     -0.679357
      25A     -0.677196    26A     -0.665948    27A     -0.627028
      28A     -0.605230    29A     -0.596977    30A     -0.591628
      31A     -0.571758    32A     -0.537320    33A     -0.496209
      34A     -0.491648    35A     -0.448268    36A     -0.414186
      37A     -0.406962    38A     -0.369136    39A     -0.307059

  @DF-RHF Final Energy:  -503.72448163360104

   => Energetics <=

    Nuclear Repulsion Energy =            594.9243221387253016
    One-Electron Energy =               -1864.2649483313900873
    Two-Electron Energy =                 765.6161445590637413
    Total Energy =                       -503.7244816336010445
  Basis Set: (AUG-CC-PVTZ AUX)
    Blend: AUG-CC-PVTZ-RI
    Molecular point group: c1

    Geometry (in Angstrom), charge = 0, multiplicity = 1:

       Center              X                  Y                   Z               Mass
    ------------   -----------------  -----------------  -----------------  -----------------
         N           -1.819220411074    -0.161449318529    -0.002960254537    14.003074004430
         N           -0.301240411074    -1.849332318529    -0.011071254537    14.003074004430
         N           -0.297209411074     1.750114681471    -0.001795254537    14.003074004430
         N            2.000591988926     1.042004681471    -0.012137254537    14.003074004430
         N            2.680494088926    -1.213764518529     0.075209545463    14.003074004430
         C           -0.578692411074     0.436229681471     0.001951745463    12.000000000000
         C            0.336711588926    -0.625430318529     0.005361745463    12.000000000000
         C           -1.586847411074    -1.515418318529    -0.009156254537    12.000000000000
         C            1.695848588926    -0.264990318529    -0.001361254537    12.000000000000
         C           -3.095384411074     0.533177681471     0.000016745463    12.000000000000
         C            1.027966588926     1.950951681471    -0.011991254537    12.000000000000
         H           -2.408551411074    -2.223256318529    -0.015506254537     1.007825032230
         H           -3.175413411074     1.169667681471    -0.882951254537     1.007825032230
         H           -3.892532411074    -0.211453318529    -0.009548254537     1.007825032230
         H           -3.181113411074     1.152654681471     0.894546745463     1.007825032230
         H            1.352559588926     2.989521681471    -0.015748254537     1.007825032230
         H            3.606544588926    -0.862727318529    -0.222400254537     1.007825032230
         H            2.449569588926    -2.132420318529    -0.224110254537     1.007825032230

  Basis Set: AUG-CC-PVTZ
    Blend: AUG-CC-PVTZ
  Basis Set: (AUG-CC-PVTZ AUX)
    Blend: AUG-CC-PVTZ-JKFIT
	 Reference Energy          =    -503.7244816336010445 [Eh]
	 Singles Energy            =      -0.0000000000000000 [Eh]
	 Same-Spin Energy          =      -0.5492315614016396 [Eh]
	 Opposite-Spin Energy      =      -1.6326415490247690 [Eh]
	 Correlation Energy        =      -2.1818731104264089 [Eh]
	 Total Energy              =    -505.9063547440274533 [Eh]

	 ================> DF-SCS-MP2 Energies <==================
	-----------------------------------------------------------
	 SCS Same-Spin Scale       =       0.3333333333333333 [-]
	 SCS Opposite-Spin Scale   =       1.2000000000000000 [-]
	 SCS Same-Spin Energy      =      -0.1830771871338799 [Eh]
	 SCS Opposite-Spin Energy  =      -1.9591698588297226 [Eh]
	 SCS Correlation Energy    =      -2.1422470459636025 [Eh]
	 SCS Total Energy          =    -505.8667286795646305 [Eh]
	-----------------------------------------------------------

  Dipole Moment: [D]
     X:    -2.6324      Y:    -1.1681      Z:    -0.7860     Total:     2.9852

*** Psi4 exiting successfully. Buy a developer a beer!
