                               Psi4 1.3.2 release

  ==> Input File <==

--------------------------------------------------------------------------
#psi4
#
memory 32 gb

molecule  {
0 1
  N       -1.7893040    -0.1617730    -0.0001110
  N       -0.2713240    -1.8496560    -0.0082220
  N       -0.2672930     1.7497910     0.0010540
  N        2.0076900     1.0467799    -0.0106988
  N        2.6937041    -1.2311723     0.0774743
  C       -0.5487760     0.4359060     0.0048010
  C        0.3666280    -0.6257540     0.0082110
  C       -1.5569310    -1.5157420    -0.0063070
  C        1.7257650    -0.2653140     0.0014880
  C       -3.0654680     0.5328540     0.0028660
  C        1.0578830     1.9506280    -0.0091420
  H       -2.3786350    -2.2235800    -0.0126570
  H       -3.1454970     1.1693440    -0.8801020
  H       -3.8626160    -0.2117770    -0.0066990
  H       -3.1511970     1.1523310     0.8973960
  H        1.3824760     2.9891980    -0.0128990
  H        3.6364610    -0.8630510    -0.2195510
  H        2.4794860    -2.1327440    -0.2212610
units angstrom
no_reorient  #important for SAPT in psi4, default
symmetry c1  #important for SAPT in psi4, default
}

set PROPERTIES_ORIGIN ["COM"]
properties('MP2/aug-cc-pvtz', properties = ['dipole'])
--------------------------------------------------------------------------

    Molecular point group: c1
  Charge       = 0
  Multiplicity = 1
  Basis Set: AUG-CC-PVTZ
    Blend: AUG-CC-PVTZ
  Basis Set: (AUG-CC-PVTZ AUX)
    Blend: AUG-CC-PVTZ-JKFIT

    Orbital Energies [Eh]
    ---------------------

    Doubly Occupied:

       1A    -15.631392     2A    -15.583944     3A    -15.565746
       4A    -15.556585     5A    -15.549022     6A    -11.336664
       7A    -11.322271     8A    -11.311096     9A    -11.306118
      10A    -11.287606    11A    -11.249670    12A     -1.367118
      13A     -1.300889    14A     -1.242750    15A     -1.196211
      16A     -1.157031    17A     -1.031989    18A     -0.985004
      19A     -0.896318    20A     -0.868982    21A     -0.803898
      22A     -0.755744    23A     -0.724560    24A     -0.684084
      25A     -0.674551    26A     -0.665492    27A     -0.629791
      28A     -0.603974    29A     -0.597075    30A     -0.591204
      31A     -0.571470    32A     -0.537887    33A     -0.496984
      34A     -0.490667    35A     -0.446086    36A     -0.414345
      37A     -0.404881    38A     -0.369777    39A     -0.306368

  @DF-RHF Final Energy:  -503.72110838681562

   => Energetics <=

    Nuclear Repulsion Energy =            595.5448397619755951
    One-Electron Energy =               -1865.5014057932296510
    Two-Electron Energy =                 766.2354576444384975
    Total Energy =                       -503.7211083868156720
  Basis Set: (AUG-CC-PVTZ AUX)
    Blend: AUG-CC-PVTZ-RI
    Molecular point group: c1

    Geometry (in Angstrom), charge = 0, multiplicity = 1:

       Center              X                  Y                   Z               Mass
    ------------   -----------------  -----------------  -----------------  -----------------
         N           -1.815507603936    -0.160323475106    -0.002772823757    14.003074004430
         N           -0.297527603936    -1.848206475106    -0.010883823757    14.003074004430
         N           -0.293496603936     1.751240524894    -0.001607823757    14.003074004430
         N            1.981486396064     1.048229424894    -0.013360623757    14.003074004430
         N            2.667500496064    -1.229722775106     0.074812476243    14.003074004430
         C           -0.574979603936     0.437355524894     0.002139176243    12.000000000000
         C            0.340424396064    -0.624304475106     0.005549176243    12.000000000000
         C           -1.583134603936    -1.514292475106    -0.008968823757    12.000000000000
         C            1.699561396064    -0.263864475106    -0.001173823757    12.000000000000
         C           -3.091671603936     0.534303524894     0.000204176243    12.000000000000
         C            1.031679396064     1.952077524894    -0.011803823757    12.000000000000
         H           -2.404838603936    -2.222130475106    -0.015318823757     1.007825032230
         H           -3.171700603936     1.170793524894    -0.882763823757     1.007825032230
         H           -3.888819603936    -0.210327475106    -0.009360823757     1.007825032230
         H           -3.177400603936     1.153780524894     0.894734176243     1.007825032230
         H            1.356272396064     2.990647524894    -0.015560823757     1.007825032230
         H            3.610257396064    -0.861601475106    -0.222212823757     1.007825032230
         H            2.453282396064    -2.131294475106    -0.223922823757     1.007825032230

  Basis Set: AUG-CC-PVTZ
    Blend: AUG-CC-PVTZ
  Basis Set: (AUG-CC-PVTZ AUX)
    Blend: AUG-CC-PVTZ-JKFIT
	 Reference Energy          =    -503.7211083868156152 [Eh]
	 Singles Energy            =      -0.0000000000000000 [Eh]
	 Same-Spin Energy          =      -0.5492553073082374 [Eh]
	 Opposite-Spin Energy      =      -1.6323303700218759 [Eh]
	 Correlation Energy        =      -2.1815856773301130 [Eh]
	 Total Energy              =    -505.9026940641457486 [Eh]

	 ================> DF-SCS-MP2 Energies <==================
	-----------------------------------------------------------
	 SCS Same-Spin Scale       =       0.3333333333333333 [-]
	 SCS Opposite-Spin Scale   =       1.2000000000000000 [-]
	 SCS Same-Spin Energy      =      -0.1830851024360791 [Eh]
	 SCS Opposite-Spin Energy  =      -1.9587964440262509 [Eh]
	 SCS Correlation Energy    =      -2.1418815464623302 [Eh]
	 SCS Total Energy          =    -505.8629899332779587 [Eh]
	-----------------------------------------------------------

  Dipole Moment: [D]
     X:    -2.5321      Y:    -1.1751      Z:    -0.7828     Total:     2.8991

*** Psi4 exiting successfully. Buy a developer a beer!
