                               Psi4 1.4a3.dev225

  ==> Input File <==

--------------------------------------------------------------------------
#psi4
#
memory 32 gb

molecule  {
0 1
  N       -1.7889380    -0.1640290    -0.0179520
  N       -0.2703210    -1.8482040    -0.0023970
  N       -0.2671710     1.7490810    -0.0033560
  N        2.0541740     1.0368940    -0.0085470
  N        2.7206340    -1.1973270     0.0732090
  C       -0.5486140     0.4351420     0.0045870
  C        0.3650590    -0.6247560     0.0169900
  C       -1.5569260    -1.5161270    -0.0162740
  C        1.7266360    -0.2641570     0.0048060
  C       -3.0641060     0.5324820     0.0177850
  C        1.0564750     1.9508360    -0.0110870
  H       -2.3762040    -2.2259510    -0.0342240
  H       -2.9284720     1.5041700    -0.4579320
  H       -3.8067760    -0.0485880    -0.5312030
  H       -3.3972360     0.6796990     1.0480130
  H        1.3812150     2.9891510    -0.0228070
  H        3.6610099    -0.8665020    -0.1958099
  H        2.4748820    -2.1409930    -0.1987870
units angstrom
no_reorient  #important for SAPT in psi4, default
symmetry c1  #important for SAPT in psi4, default
}

set PROPERTIES_ORIGIN ["COM"]
properties('MP2/aug-cc-pvtz', properties = ['dipole'])
--------------------------------------------------------------------------

    Molecular point group: c1
  Charge       = 0
  Multiplicity = 1
  Basis Set: AUG-CC-PVTZ
    Blend: AUG-CC-PVTZ
  Basis Set: (AUG-CC-PVTZ AUX)
    Blend: AUG-CC-PVTZ-JKFIT

    Orbital Energies [Eh]
    ---------------------

    Doubly Occupied:

       1A    -15.632030     2A    -15.583143     3A    -15.567231
       4A    -15.559766     5A    -15.551465     6A    -11.334755
       7A    -11.320785     8A    -11.312438     9A    -11.311340
      10A    -11.286992    11A    -11.250710    12A     -1.367547
      13A     -1.295605    14A     -1.241794    15A     -1.195985
      16A     -1.151001    17A     -1.030381    18A     -0.985095
      19A     -0.889882    20A     -0.871770    21A     -0.802188
      22A     -0.753095    23A     -0.723830    24A     -0.679482
      25A     -0.672949    26A     -0.666145    27A     -0.624783
      28A     -0.604762    29A     -0.594952    30A     -0.592327
      31A     -0.571116    32A     -0.536600    33A     -0.495360
      34A     -0.491118    35A     -0.450257    36A     -0.413959
      37A     -0.407946    38A     -0.367439    39A     -0.306703

  @DF-RHF Final Energy:  -503.72398681301968

   => Energetics <=

    Nuclear Repulsion Energy =            594.4928469351596050
    One-Electron Energy =               -1863.4442200056580532
    Two-Electron Energy =                 765.2273862574787699
    Total Energy =                       -503.7239868130196783
  Basis Set: (AUG-CC-PVTZ AUX)
    Blend: AUG-CC-PVTZ-RI
    Molecular point group: c1

    Geometry (in Angstrom), charge = 0, multiplicity = 1:

       Center              X                  Y                   Z               Mass
    ------------   -----------------  -----------------  -----------------  -----------------
         N           -1.822455549296    -0.164831849287    -0.020497008061    14.003074004430
         N           -0.303838549296    -1.849006849287    -0.004942008061    14.003074004430
         N           -0.300688549296     1.748278150713    -0.005901008061    14.003074004430
         N            2.020656450704     1.036091150713    -0.011092008061    14.003074004430
         N            2.687116450704    -1.198129849287     0.070663991939    14.003074004430
         C           -0.582131549296     0.434339150713     0.002041991939    12.000000000000
         C            0.331541450704    -0.625558849287     0.014444991939    12.000000000000
         C           -1.590443549296    -1.516929849287    -0.018819008061    12.000000000000
         C            1.693118450704    -0.264959849287     0.002260991939    12.000000000000
         C           -3.097623549296     0.531679150713     0.015239991939    12.000000000000
         C            1.022957450704     1.950033150713    -0.013632008061    12.000000000000
         H           -2.409721549296    -2.226753849287    -0.036769008061     1.007825032230
         H           -2.961989549296     1.503367150713    -0.460477008061     1.007825032230
         H           -3.840293549296    -0.049390849287    -0.533748008061     1.007825032230
         H           -3.430753549296     0.678896150713     1.045467991939     1.007825032230
         H            1.347697450704     2.988348150713    -0.025352008061     1.007825032230
         H            3.627492350704    -0.867304849287    -0.198354908061     1.007825032230
         H            2.441364450704    -2.141795849287    -0.201332008061     1.007825032230

  Basis Set: AUG-CC-PVTZ
    Blend: AUG-CC-PVTZ
  Basis Set: (AUG-CC-PVTZ AUX)
    Blend: AUG-CC-PVTZ-JKFIT
	 Reference Energy          =    -503.7239868130196783 [Eh]
	 Singles Energy            =      -0.0000000000000000 [Eh]
	 Same-Spin Energy          =      -0.5494475538600064 [Eh]
	 Opposite-Spin Energy      =      -1.6332499596138652 [Eh]
	 Correlation Energy        =      -2.1826975134738715 [Eh]
	 Total Energy              =    -505.9066843264935756 [Eh]

	 ================> DF-SCS-MP2 Energies <==================
	-----------------------------------------------------------
	 SCS Same-Spin Scale       =       0.3333333333333333 [-]
	 SCS Opposite-Spin Scale   =       1.2000000000000000 [-]
	 SCS Same-Spin Energy      =      -0.1831491846200021 [Eh]
	 SCS Opposite-Spin Energy  =      -1.9598999515366382 [Eh]
	 SCS Correlation Energy    =      -2.1430491361566402 [Eh]
	 SCS Total Energy          =    -505.8670359491763406 [Eh]
	-----------------------------------------------------------

  Dipole Moment: [D]
     X:    -2.6169      Y:    -1.2003      Z:    -0.7162     Total:     2.9668

*** Psi4 exiting successfully. Buy a developer a beer!
