                               Psi4 1.3.2 release

  ==> Input File <==

--------------------------------------------------------------------------
#psi4
#
memory 32 gb

molecule  {
0 1
  N       -1.7893040    -0.1617730    -0.0001110
  N       -0.2713240    -1.8496560    -0.0082220
  N       -0.2759918     1.8194202     0.0005264
  N        2.0997261     1.0895265    -0.0086196
  N        2.7268170    -1.1967150     0.0786200
  C       -0.5487760     0.4359060     0.0048010
  C        0.3666280    -0.6257540     0.0082110
  C       -1.5569310    -1.5157420    -0.0063070
  C        1.7257650    -0.2653140     0.0014880
  C       -3.0654680     0.5328540     0.0028660
  C        1.0578830     1.9506280    -0.0091420
  H       -2.3786350    -2.2235800    -0.0126570
  H       -3.1454970     1.1693440    -0.8801020
  H       -3.8626160    -0.2117770    -0.0066990
  H       -3.1511970     1.1523310     0.8973960
  H        1.3824760     2.9891980    -0.0128990
  H        3.6364610    -0.8630510    -0.2195510
  H        2.4794860    -2.1327440    -0.2212610
units angstrom
no_reorient  #important for SAPT in psi4, default
symmetry c1  #important for SAPT in psi4, default
}

set PROPERTIES_ORIGIN ["COM"]
properties('MP2/aug-cc-pvtz', properties = ['dipole'])
--------------------------------------------------------------------------

    Molecular point group: c1
  Charge       = 0
  Multiplicity = 1
  Basis Set: AUG-CC-PVTZ
    Blend: AUG-CC-PVTZ
  Basis Set: (AUG-CC-PVTZ AUX)
    Blend: AUG-CC-PVTZ-JKFIT

    Orbital Energies [Eh]
    ---------------------

    Doubly Occupied:

       1A    -15.637460     2A    -15.588704     3A    -15.571353
       4A    -15.565849     5A    -15.559033     6A    -11.346084
       7A    -11.324887     8A    -11.321625     9A    -11.307191
      10A    -11.290363    11A    -11.256621    12A     -1.368083
      13A     -1.285238    14A     -1.237132    15A     -1.199982
      16A     -1.141821    17A     -1.034558    18A     -0.988875
      19A     -0.892720    20A     -0.858097    21A     -0.803968
      22A     -0.749859    23A     -0.724799    24A     -0.683244
      25A     -0.667450    26A     -0.664088    27A     -0.622110
      28A     -0.606908    29A     -0.592679    30A     -0.586665
      31A     -0.569557    32A     -0.535716    33A     -0.493466
      34A     -0.489362    35A     -0.451413    36A     -0.420914
      37A     -0.413958    38A     -0.365005    39A     -0.313535

  @DF-RHF Final Energy:  -503.71045125204120

   => Energetics <=

    Nuclear Repulsion Energy =            590.5662808261154169
    One-Electron Energy =               -1855.4927234688982480
    Two-Electron Energy =                 761.2159913907416922
    Total Energy =                       -503.7104512520411390
  Basis Set: (AUG-CC-PVTZ AUX)
    Blend: AUG-CC-PVTZ-RI
    Molecular point group: c1

    Geometry (in Angstrom), charge = 0, multiplicity = 1:

       Center              X                  Y                   Z               Mass
    ------------   -----------------  -----------------  -----------------  -----------------
         N           -1.826446486203    -0.174116409715    -0.003026197707    14.003074004430
         N           -0.308466486203    -1.861999409715    -0.011137197707    14.003074004430
         N           -0.313134286203     1.807076790285    -0.002388797707    14.003074004430
         N            2.062583613797     1.077183090285    -0.011534797707    14.003074004430
         N            2.689674513797    -1.209058409715     0.075704802293    14.003074004430
         C           -0.585918486203     0.423562590285     0.001885802293    12.000000000000
         C            0.329485513797    -0.638097409715     0.005295802293    12.000000000000
         C           -1.594073486203    -1.528085409715    -0.009222197707    12.000000000000
         C            1.688622513797    -0.277657409715    -0.001427197707    12.000000000000
         C           -3.102610486203     0.520510590285    -0.000049197707    12.000000000000
         C            1.020740513797     1.938284590285    -0.012057197707    12.000000000000
         H           -2.415777486203    -2.235923409715    -0.015572197707     1.007825032230
         H           -3.182639486203     1.157000590285    -0.883017197707     1.007825032230
         H           -3.899758486203    -0.224120409715    -0.009614197707     1.007825032230
         H           -3.188339486203     1.139987590285     0.894480802293     1.007825032230
         H            1.345333513797     2.976854590285    -0.015814197707     1.007825032230
         H            3.599318513797    -0.875394409715    -0.222466197707     1.007825032230
         H            2.442343513797    -2.145087409715    -0.224176197707     1.007825032230

  Basis Set: AUG-CC-PVTZ
    Blend: AUG-CC-PVTZ
  Basis Set: (AUG-CC-PVTZ AUX)
    Blend: AUG-CC-PVTZ-JKFIT
	 Reference Energy          =    -503.7104512520411959 [Eh]
	 Singles Energy            =      -0.0000000000000000 [Eh]
	 Same-Spin Energy          =      -0.5494068421397937 [Eh]
	 Opposite-Spin Energy      =      -1.6361226370562529 [Eh]
	 Correlation Energy        =      -2.1855294791960467 [Eh]
	 Total Energy              =    -505.8959807312372163 [Eh]

	 ================> DF-SCS-MP2 Energies <==================
	-----------------------------------------------------------
	 SCS Same-Spin Scale       =       0.3333333333333333 [-]
	 SCS Opposite-Spin Scale   =       1.2000000000000000 [-]
	 SCS Same-Spin Energy      =      -0.1831356140465979 [Eh]
	 SCS Opposite-Spin Energy  =      -1.9633471644675033 [Eh]
	 SCS Correlation Energy    =      -2.1464827785141014 [Eh]
	 SCS Total Energy          =    -505.8569340305552942 [Eh]
	-----------------------------------------------------------

  Dipole Moment: [D]
     X:    -2.7453      Y:    -1.6045      Z:    -0.7774     Total:     3.2734

*** Psi4 exiting successfully. Buy a developer a beer!
