                               Psi4 1.3.2 release

  ==> Input File <==

--------------------------------------------------------------------------
#psi4
#
memory 32 gb

molecule  {
0 1
  N       -1.7893040    -0.1617730    -0.0001110
  N       -0.2713240    -1.8496560    -0.0082220
  N       -0.2672930     1.7497910     0.0010540
  N        2.0532340     1.0361840    -0.0078740
  N        2.7268170    -1.1967150     0.0786200
  C       -0.5487760     0.4359060     0.0048010
  C        0.3666280    -0.6257540     0.0082110
  C       -1.5569310    -1.5157420    -0.0063070
  C        1.7013652    -0.3622891     0.0021856
  C       -3.0654680     0.5328540     0.0028660
  C        1.0578830     1.9506280    -0.0091420
  H       -2.3786350    -2.2235800    -0.0126570
  H       -3.1454970     1.1693440    -0.8801020
  H       -3.8626160    -0.2117770    -0.0066990
  H       -3.1511970     1.1523310     0.8973960
  H        1.3824760     2.9891980    -0.0128990
  H        3.6364610    -0.8630510    -0.2195510
  H        2.4794860    -2.1327440    -0.2212610
units angstrom
no_reorient  #important for SAPT in psi4, default
symmetry c1  #important for SAPT in psi4, default
}

set PROPERTIES_ORIGIN ["COM"]
properties('MP2/aug-cc-pvtz', properties = ['dipole'])
--------------------------------------------------------------------------

    Molecular point group: c1
  Charge       = 0
  Multiplicity = 1
  Basis Set: AUG-CC-PVTZ
    Blend: AUG-CC-PVTZ
  Basis Set: (AUG-CC-PVTZ AUX)
    Blend: AUG-CC-PVTZ-JKFIT

    Orbital Energies [Eh]
    ---------------------

    Doubly Occupied:

       1A    -15.633270     2A    -15.589855     3A    -15.565898
       4A    -15.553077     5A    -15.550794     6A    -11.334418
       7A    -11.323361     8A    -11.318267     9A    -11.304983
      10A    -11.288817    11A    -11.247735    12A     -1.368348
      13A     -1.289426    14A     -1.250014    15A     -1.200546
      16A     -1.133337    17A     -1.035985    18A     -0.989090
      19A     -0.893126    20A     -0.862072    21A     -0.806817
      22A     -0.754434    23A     -0.728496    24A     -0.689935
      25A     -0.667811    26A     -0.665170    27A     -0.629628
      28A     -0.603171    29A     -0.595766    30A     -0.591121
      31A     -0.570503    32A     -0.535721    33A     -0.500008
      34A     -0.488466    35A     -0.440572    36A     -0.414926
      37A     -0.406946    38A     -0.359829    39A     -0.308240

  @DF-RHF Final Energy:  -503.71137269585881

   => Energetics <=

    Nuclear Repulsion Energy =            594.1822339199250109
    One-Electron Energy =               -1862.8072560539396818
    Two-Electron Energy =                 764.9136494381558578
    Total Energy =                       -503.7113726958588131
  Basis Set: (AUG-CC-PVTZ AUX)
    Blend: AUG-CC-PVTZ-RI
    Molecular point group: c1

    Geometry (in Angstrom), charge = 0, multiplicity = 1:

       Center              X                  Y                   Z               Mass
    ------------   -----------------  -----------------  -----------------  -----------------
         N           -1.820932169601    -0.154758522791    -0.003201953314    14.003074004430
         N           -0.302952169601    -1.842641522791    -0.011312953314    14.003074004430
         N           -0.298921169601     1.756805477209    -0.002036953314    14.003074004430
         N            2.021605830399     1.043198477209    -0.010964953314    14.003074004430
         N            2.695188830399    -1.189700522791     0.075529046686    14.003074004430
         C           -0.580404169601     0.442920477209     0.001710046686    12.000000000000
         C            0.334999830399    -0.618739522791     0.005120046686    12.000000000000
         C           -1.588559169601    -1.508727522791    -0.009397953314    12.000000000000
         C            1.669737030399    -0.355274622791    -0.000905353314    12.000000000000
         C           -3.097096169601     0.539868477209    -0.000224953314    12.000000000000
         C            1.026254830399     1.957642477209    -0.012232953314    12.000000000000
         H           -2.410263169601    -2.216565522791    -0.015747953314     1.007825032230
         H           -3.177125169601     1.176358477209    -0.883192953314     1.007825032230
         H           -3.894244169601    -0.204762522791    -0.009789953314     1.007825032230
         H           -3.182825169601     1.159345477209     0.894305046686     1.007825032230
         H            1.350847830399     2.996212477209    -0.015989953314     1.007825032230
         H            3.604832830399    -0.856036522791    -0.222641953314     1.007825032230
         H            2.447857830399    -2.125729522791    -0.224351953314     1.007825032230

  Basis Set: AUG-CC-PVTZ
    Blend: AUG-CC-PVTZ
  Basis Set: (AUG-CC-PVTZ AUX)
    Blend: AUG-CC-PVTZ-JKFIT
	 Reference Energy          =    -503.7113726958588131 [Eh]
	 Singles Energy            =      -0.0000000000000000 [Eh]
	 Same-Spin Energy          =      -0.5496001862347737 [Eh]
	 Opposite-Spin Energy      =      -1.6346624270699948 [Eh]
	 Correlation Energy        =      -2.1842626133047682 [Eh]
	 Total Energy              =    -505.8956353091635947 [Eh]

	 ================> DF-SCS-MP2 Energies <==================
	-----------------------------------------------------------
	 SCS Same-Spin Scale       =       0.3333333333333333 [-]
	 SCS Opposite-Spin Scale   =       1.2000000000000000 [-]
	 SCS Same-Spin Energy      =      -0.1832000620782579 [Eh]
	 SCS Opposite-Spin Energy  =      -1.9615949124839935 [Eh]
	 SCS Correlation Energy    =      -2.1447949745622514 [Eh]
	 SCS Total Energy          =    -505.8561676704210868 [Eh]
	-----------------------------------------------------------

  Dipole Moment: [D]
     X:    -2.4961      Y:    -1.5749      Z:    -0.7722     Total:     3.0508

*** Psi4 exiting successfully. Buy a developer a beer!
