                               Psi4 1.4a3.dev225

  ==> Input File <==

--------------------------------------------------------------------------
#psi4
#
memory 32 gb

molecule  {
0 1
  N       -1.7889380    -0.1640290    -0.0179520
  N       -0.2703210    -1.8482040    -0.0023970
  N       -0.2671710     1.7490810    -0.0033560
  N        2.0541740     1.0368940    -0.0085470
  N        2.7206340    -1.1973270     0.0732090
  C       -0.5486140     0.4351420     0.0045870
  C        0.3650590    -0.6247560     0.0169900
  C       -1.5569260    -1.5161270    -0.0162740
  C        1.7266360    -0.2641570     0.0048060
  C       -3.0465590     0.5228976     0.0172932
  C        1.0564750     1.9508360    -0.0110870
  H       -2.3762040    -2.2259510    -0.0342240
  H       -2.9284720     1.5041700    -0.4579320
  H       -3.8067760    -0.0485880    -0.5312030
  H       -3.3972360     0.6796990     1.0480130
  H        1.3812150     2.9891510    -0.0228070
  H        3.6427950    -0.8729100    -0.1905990
  H        2.4748820    -2.1409930    -0.1987870
units angstrom
no_reorient  #important for SAPT in psi4, default
symmetry c1  #important for SAPT in psi4, default
}

set PROPERTIES_ORIGIN ["COM"]
properties('MP2/aug-cc-pvtz', properties = ['dipole'])
--------------------------------------------------------------------------

    Molecular point group: c1
  Charge       = 0
  Multiplicity = 1
  Basis Set: AUG-CC-PVTZ
    Blend: AUG-CC-PVTZ
  Basis Set: (AUG-CC-PVTZ AUX)
    Blend: AUG-CC-PVTZ-JKFIT

    Orbital Energies [Eh]
    ---------------------

    Doubly Occupied:

       1A    -15.632630     2A    -15.581781     3A    -15.568088
       4A    -15.560328     5A    -15.552029     6A    -11.335283
       7A    -11.321531     8A    -11.313164     9A    -11.311854
      10A    -11.286469    11A    -11.251344    12A     -1.369753
      13A     -1.296893    14A     -1.243351    15A     -1.199335
      16A     -1.152453    17A     -1.031473    18A     -0.984832
      19A     -0.891231    20A     -0.872696    21A     -0.803561
      22A     -0.754712    23A     -0.726224    24A     -0.683587
      25A     -0.674296    26A     -0.667086    27A     -0.626483
      28A     -0.606692    29A     -0.594014    30A     -0.591542
      31A     -0.568941    32A     -0.535330    33A     -0.495981
      34A     -0.491660    35A     -0.450872    36A     -0.414249
      37A     -0.408375    38A     -0.367869    39A     -0.307389

  @DF-RHF Final Energy:  -503.72461991991224

   => Energetics <=

    Nuclear Repulsion Energy =            595.0277404289388414
    One-Electron Energy =               -1864.4539535488595448
    Two-Electron Energy =                 765.7015932000084604
    Total Energy =                       -503.7246199199122429
  Basis Set: (AUG-CC-PVTZ AUX)
    Blend: AUG-CC-PVTZ-RI
    Molecular point group: c1

    Geometry (in Angstrom), charge = 0, multiplicity = 1:

       Center              X                  Y                   Z               Mass
    ------------   -----------------  -----------------  -----------------  -----------------
         N           -1.823744919260    -0.164016991673    -0.020492648204    14.003074004430
         N           -0.305127919260    -1.848191991673    -0.004937648204    14.003074004430
         N           -0.301977919260     1.749093008327    -0.005896648204    14.003074004430
         N            2.019367080740     1.036906008327    -0.011087648204    14.003074004430
         N            2.685827080740    -1.197314991673     0.070668351796    14.003074004430
         C           -0.583420919260     0.435154008327     0.002046351796    12.000000000000
         C            0.330252080740    -0.624743991673     0.014449351796    12.000000000000
         C           -1.591732919260    -1.516114991673    -0.018814648204    12.000000000000
         C            1.691829080740    -0.264144991673     0.002265351796    12.000000000000
         C           -3.081365919260     0.522909608327     0.014752551796    12.000000000000
         C            1.021668080740     1.950848008327    -0.013627648204    12.000000000000
         H           -2.411010919260    -2.225938991673    -0.036764648204     1.007825032230
         H           -2.963278919260     1.504182008327    -0.460472648204     1.007825032230
         H           -3.841582919260    -0.048575991673    -0.533743648204     1.007825032230
         H           -3.432042919260     0.679711008327     1.045472351796     1.007825032230
         H            1.346408080740     2.989163008327    -0.025347648204     1.007825032230
         H            3.607988080740    -0.872897991673    -0.193139648204     1.007825032230
         H            2.440075080740    -2.140980991673    -0.201327648204     1.007825032230

  Basis Set: AUG-CC-PVTZ
    Blend: AUG-CC-PVTZ
  Basis Set: (AUG-CC-PVTZ AUX)
    Blend: AUG-CC-PVTZ-JKFIT
	 Reference Energy          =    -503.7246199199122429 [Eh]
	 Singles Energy            =      -0.0000000000000000 [Eh]
	 Same-Spin Energy          =      -0.5494343576223876 [Eh]
	 Opposite-Spin Energy      =      -1.6329345883537525 [Eh]
	 Correlation Energy        =      -2.1823689459761400 [Eh]
	 Total Energy              =    -505.9069888658883656 [Eh]

	 ================> DF-SCS-MP2 Energies <==================
	-----------------------------------------------------------
	 SCS Same-Spin Scale       =       0.3333333333333333 [-]
	 SCS Opposite-Spin Scale   =       1.2000000000000000 [-]
	 SCS Same-Spin Energy      =      -0.1831447858741292 [Eh]
	 SCS Opposite-Spin Energy  =      -1.9595215060245028 [Eh]
	 SCS Correlation Energy    =      -2.1426662918986321 [Eh]
	 SCS Total Energy          =    -505.8672862118108924 [Eh]
	-----------------------------------------------------------

  Dipole Moment: [D]
     X:    -2.5726      Y:    -1.2253      Z:    -0.7181     Total:     2.9386

*** Psi4 exiting successfully. Buy a developer a beer!
