                               Psi4 1.3.2 release

  ==> Input File <==

--------------------------------------------------------------------------
#psi4
#
memory 32 gb

molecule  {
0 1
  N       -1.7893040    -0.1617730    -0.0001110
  N       -0.2819804    -1.8440449    -0.0080126
  N       -0.2672930     1.7497910     0.0010540
  N        2.0532340     1.0361840    -0.0078740
  N        2.7268170    -1.1967150     0.0786200
  C       -0.5487760     0.4359060     0.0048010
  C        0.3666280    -0.6257540     0.0082110
  C       -1.5569310    -1.5157420    -0.0063070
  C        1.7225696    -0.2534692     0.0017395
  C       -3.0654680     0.5328540     0.0028660
  C        1.0578830     1.9506280    -0.0091420
  H       -2.3786350    -2.2235800    -0.0126570
  H       -3.1454970     1.1693440    -0.8801020
  H       -3.8626160    -0.2117770    -0.0066990
  H       -3.1511970     1.1523310     0.8973960
  H        1.3824760     2.9891980    -0.0128990
  H        3.6364610    -0.8630510    -0.2195510
  H        2.4794860    -2.1327440    -0.2212610
units angstrom
no_reorient  #important for SAPT in psi4, default
symmetry c1  #important for SAPT in psi4, default
}

set PROPERTIES_ORIGIN ["COM"]
properties('MP2/aug-cc-pvtz', properties = ['dipole'])
--------------------------------------------------------------------------

    Molecular point group: c1
  Charge       = 0
  Multiplicity = 1
  Basis Set: AUG-CC-PVTZ
    Blend: AUG-CC-PVTZ
  Basis Set: (AUG-CC-PVTZ AUX)
    Blend: AUG-CC-PVTZ-JKFIT

    Orbital Energies [Eh]
    ---------------------

    Doubly Occupied:

       1A    -15.631920     2A    -15.579131     3A    -15.566142
       4A    -15.561861     5A    -15.552943     6A    -11.334327
       7A    -11.321031     8A    -11.313029     9A    -11.312682
      10A    -11.288345    11A    -11.252159    12A     -1.369132
      13A     -1.297921    14A     -1.240890    15A     -1.197229
      16A     -1.153397    17A     -1.032827    18A     -0.985288
      19A     -0.891220    20A     -0.873945    21A     -0.801874
      22A     -0.753393    23A     -0.723766    24A     -0.679660
      25A     -0.673711    26A     -0.666625    27A     -0.625142
      28A     -0.606534    29A     -0.597374    30A     -0.591569
      31A     -0.571916    32A     -0.537513    33A     -0.494799
      34A     -0.492978    35A     -0.451294    36A     -0.414583
      37A     -0.408722    38A     -0.369303    39A     -0.309581

  @DF-RHF Final Energy:  -503.72599901196645

   => Energetics <=

    Nuclear Repulsion Energy =            594.6465795024869294
    One-Electron Energy =               -1863.6936396951030019
    Two-Electron Energy =                 765.3210611806496217
    Total Energy =                       -503.7259990119664508
  Basis Set: (AUG-CC-PVTZ AUX)
    Blend: AUG-CC-PVTZ-RI
    Molecular point group: c1

    Geometry (in Angstrom), charge = 0, multiplicity = 1:

       Center              X                  Y                   Z               Mass
    ------------   -----------------  -----------------  -----------------  -----------------
         N           -1.821638081855    -0.164045502731    -0.003185712930    14.003074004430
         N           -0.314314481855    -1.846317402731    -0.011087312930    14.003074004430
         N           -0.299627081855     1.747518497269    -0.002020712930    14.003074004430
         N            2.020899918145     1.033911497269    -0.010948712930    14.003074004430
         N            2.694482918145    -1.198987502731     0.075545287070    14.003074004430
         C           -0.581110081855     0.433633497269     0.001726287070    12.000000000000
         C            0.334293918145    -0.628026502731     0.005136287070    12.000000000000
         C           -1.589265081855    -1.518014502731    -0.009381712930    12.000000000000
         C            1.690235518145    -0.255741702731    -0.001335212930    12.000000000000
         C           -3.097802081855     0.530581497269    -0.000208712930    12.000000000000
         C            1.025548918145     1.948355497269    -0.012216712930    12.000000000000
         H           -2.410969081855    -2.225852502731    -0.015731712930     1.007825032230
         H           -3.177831081855     1.167071497269    -0.883176712930     1.007825032230
         H           -3.894950081855    -0.214049502731    -0.009773712930     1.007825032230
         H           -3.183531081855     1.150058497269     0.894321287070     1.007825032230
         H            1.350141918145     2.986925497269    -0.015973712930     1.007825032230
         H            3.604126918145    -0.865323502731    -0.222625712930     1.007825032230
         H            2.447151918145    -2.135016502731    -0.224335712930     1.007825032230

  Basis Set: AUG-CC-PVTZ
    Blend: AUG-CC-PVTZ
  Basis Set: (AUG-CC-PVTZ AUX)
    Blend: AUG-CC-PVTZ-JKFIT
	 Reference Energy          =    -503.7259990119664508 [Eh]
	 Singles Energy            =      -0.0000000000000000 [Eh]
	 Same-Spin Energy          =      -0.5488732483853450 [Eh]
	 Opposite-Spin Energy      =      -1.6323161599426421 [Eh]
	 Correlation Energy        =      -2.1811894083279872 [Eh]
	 Total Energy              =    -505.9071884202944602 [Eh]

	 ================> DF-SCS-MP2 Energies <==================
	-----------------------------------------------------------
	 SCS Same-Spin Scale       =       0.3333333333333333 [-]
	 SCS Opposite-Spin Scale   =       1.2000000000000000 [-]
	 SCS Same-Spin Energy      =      -0.1829577494617817 [Eh]
	 SCS Opposite-Spin Energy  =      -1.9587793919311705 [Eh]
	 SCS Correlation Energy    =      -2.1417371413929520 [Eh]
	 SCS Total Energy          =    -505.8677361533594308 [Eh]
	-----------------------------------------------------------

  Dipole Moment: [D]
     X:    -2.7756      Y:    -1.1040      Z:    -0.7926     Total:     3.0904

*** Psi4 exiting successfully. Buy a developer a beer!
