                               Psi4 1.3.2 release

  ==> Input File <==

--------------------------------------------------------------------------
#psi4
#
memory 32 gb

molecule  {
0 1
  N       -1.7893040    -0.1617730    -0.0001110
  N       -0.2713240    -1.8496560    -0.0082220
  N       -0.2734974     1.7961610     0.0007053
  N        2.0845399     1.0714761    -0.0083708
  N        2.7268170    -1.1967150     0.0786200
  C       -0.5487760     0.4359060     0.0048010
  C        0.3666280    -0.6257540     0.0082110
  C       -1.5569310    -1.5157420    -0.0063070
  C        1.7257650    -0.2653140     0.0014880
  C       -3.0654680     0.5328540     0.0028660
  C        1.0578830     1.9506280    -0.0091420
  H       -2.3786350    -2.2235800    -0.0126570
  H       -3.1454970     1.1693440    -0.8801020
  H       -3.8626160    -0.2117770    -0.0066990
  H       -3.1511970     1.1523310     0.8973960
  H        1.3824760     2.9891980    -0.0128990
  H        3.6364610    -0.8630510    -0.2195510
  H        2.4794860    -2.1327440    -0.2212610
units angstrom
no_reorient  #important for SAPT in psi4, default
symmetry c1  #important for SAPT in psi4, default
}

set PROPERTIES_ORIGIN ["COM"]
properties('MP2/aug-cc-pvtz', properties = ['dipole'])
--------------------------------------------------------------------------

    Molecular point group: c1
  Charge       = 0
  Multiplicity = 1
  Basis Set: AUG-CC-PVTZ
    Blend: AUG-CC-PVTZ
  Basis Set: (AUG-CC-PVTZ AUX)
    Blend: AUG-CC-PVTZ-JKFIT

    Orbital Energies [Eh]
    ---------------------

    Doubly Occupied:

       1A    -15.636032     2A    -15.586176     3A    -15.570037
       4A    -15.564179     5A    -15.556877     6A    -11.342404
       7A    -11.324079     8A    -11.318946     9A    -11.308657
      10A    -11.289826    11A    -11.255047    12A     -1.367842
      13A     -1.288629    14A     -1.238792    15A     -1.198952
      16A     -1.145252    17A     -1.033420    18A     -0.987944
      19A     -0.891741    20A     -0.863061    21A     -0.803497
      22A     -0.751006    23A     -0.724587    24A     -0.682242
      25A     -0.668423    26A     -0.666071    27A     -0.622689
      28A     -0.606883    29A     -0.593819    30A     -0.588082
      31A     -0.570482    32A     -0.536070    33A     -0.494098
      34A     -0.490701    35A     -0.451557    36A     -0.418054
      37A     -0.412992    38A     -0.366120    39A     -0.311664

  @DF-RHF Final Energy:  -503.71709061018726

   => Energetics <=

    Nuclear Repulsion Energy =            591.7998983452313269
    One-Electron Energy =               -1857.9801191882334024
    Two-Electron Energy =                 762.4631302328149332
    Total Energy =                       -503.7170906101872561
  Basis Set: (AUG-CC-PVTZ AUX)
    Blend: AUG-CC-PVTZ-RI
    Molecular point group: c1

    Geometry (in Angstrom), charge = 0, multiplicity = 1:

       Center              X                  Y                   Z               Mass
    ------------   -----------------  -----------------  -----------------  -----------------
         N           -1.825254267504    -0.170235945355    -0.003066374194    14.003074004430
         N           -0.307274267504    -1.858118945355    -0.011177374194    14.003074004430
         N           -0.309447667504     1.787698054645    -0.002250074194    14.003074004430
         N            2.048589632496     1.063013154645    -0.011326174194    14.003074004430
         N            2.690866732496    -1.205177945355     0.075664625806    14.003074004430
         C           -0.584726267504     0.427443054645     0.001845625806    12.000000000000
         C            0.330677732496    -0.634216945355     0.005255625806    12.000000000000
         C           -1.592881267504    -1.524204945355    -0.009262374194    12.000000000000
         C            1.689814732496    -0.273776945355    -0.001467374194    12.000000000000
         C           -3.101418267504     0.524391054645    -0.000089374194    12.000000000000
         C            1.021932732496     1.942165054645    -0.012097374194    12.000000000000
         H           -2.414585267504    -2.232042945355    -0.015612374194     1.007825032230
         H           -3.181447267504     1.160881054645    -0.883057374194     1.007825032230
         H           -3.898566267504    -0.220239945355    -0.009654374194     1.007825032230
         H           -3.187147267504     1.143868054645     0.894440625806     1.007825032230
         H            1.346525732496     2.980735054645    -0.015854374194     1.007825032230
         H            3.600510732496    -0.871513945355    -0.222506374194     1.007825032230
         H            2.443535732496    -2.141206945355    -0.224216374194     1.007825032230

  Basis Set: AUG-CC-PVTZ
    Blend: AUG-CC-PVTZ
  Basis Set: (AUG-CC-PVTZ AUX)
    Blend: AUG-CC-PVTZ-JKFIT
	 Reference Energy          =    -503.7170906101872561 [Eh]
	 Singles Energy            =      -0.0000000000000000 [Eh]
	 Same-Spin Energy          =      -0.5493063139102961 [Eh]
	 Opposite-Spin Energy      =      -1.6350081213737924 [Eh]
	 Correlation Energy        =      -2.1843144352840884 [Eh]
	 Total Energy              =    -505.9014050454713356 [Eh]

	 ================> DF-SCS-MP2 Energies <==================
	-----------------------------------------------------------
	 SCS Same-Spin Scale       =       0.3333333333333333 [-]
	 SCS Opposite-Spin Scale   =       1.2000000000000000 [-]
	 SCS Same-Spin Energy      =      -0.1831021046367654 [Eh]
	 SCS Opposite-Spin Energy  =      -1.9620097456485508 [Eh]
	 SCS Correlation Energy    =      -2.1451118502853159 [Eh]
	 SCS Total Energy          =    -505.8622024604725880 [Eh]
	-----------------------------------------------------------

  Dipole Moment: [D]
     X:    -2.7411      Y:    -1.4559      Z:    -0.7813     Total:     3.2006

*** Psi4 exiting successfully. Buy a developer a beer!
