                               Psi4 1.3.2 release

  ==> Input File <==

--------------------------------------------------------------------------
#psi4
#
memory 32 gb

molecule  {
0 1
  N       -1.7893040    -0.1617730    -0.0001110
  N       -0.2713240    -1.8496560    -0.0082220
  N       -0.2672930     1.7497910     0.0010540
  N        2.0532340     1.0361840    -0.0078740
  N        2.7268170    -1.1967150     0.0786200
  C       -0.5703910     0.4788350     0.0050425
  C        0.3666280    -0.6257540     0.0082110
  C       -1.5569310    -1.5157420    -0.0063070
  C        1.7257650    -0.2653140     0.0014880
  C       -3.0404483     0.5769674     0.0031617
  C        1.0578830     1.9506280    -0.0091420
  H       -2.3786350    -2.2235800    -0.0126570
  H       -3.1454970     1.1693440    -0.8801020
  H       -3.8626160    -0.2117770    -0.0066990
  H       -3.1511970     1.1523310     0.8973960
  H        1.3824760     2.9891980    -0.0128990
  H        3.6364610    -0.8630510    -0.2195510
  H        2.4794860    -2.1327440    -0.2212610
units angstrom
no_reorient  #important for SAPT in psi4, default
symmetry c1  #important for SAPT in psi4, default
}

set PROPERTIES_ORIGIN ["COM"]
properties('MP2/aug-cc-pvtz', properties = ['dipole'])
--------------------------------------------------------------------------

    Molecular point group: c1
  Charge       = 0
  Multiplicity = 1
  Basis Set: AUG-CC-PVTZ
    Blend: AUG-CC-PVTZ
  Basis Set: (AUG-CC-PVTZ AUX)
    Blend: AUG-CC-PVTZ-JKFIT

    Orbital Energies [Eh]
    ---------------------

    Doubly Occupied:

       1A    -15.633577     2A    -15.578295     3A    -15.569133
       4A    -15.560086     5A    -15.554189     6A    -11.331075
       7A    -11.324196     8A    -11.315790     9A    -11.313535
      10A    -11.288607    11A    -11.253891    12A     -1.366565
      13A     -1.297700    14A     -1.247291    15A     -1.197003
      16A     -1.156196    17A     -1.025020    18A     -0.985347
      19A     -0.891456    20A     -0.877491    21A     -0.797054
      22A     -0.753410    23A     -0.725570    24A     -0.682736
      25A     -0.674014    26A     -0.671830    27A     -0.626038
      28A     -0.602993    29A     -0.598255    30A     -0.593079
      31A     -0.556392    32A     -0.538899    33A     -0.500162
      34A     -0.494616    35A     -0.450572    36A     -0.416367
      37A     -0.406783    38A     -0.370291    39A     -0.301458

  @DF-RHF Final Energy:  -503.71744335094365

   => Energetics <=

    Nuclear Repulsion Energy =            594.1664682514718834
    One-Electron Energy =               -1862.7138999783776399
    Two-Electron Energy =                 764.8299883759622162
    Total Energy =                       -503.7174433509436540
  Basis Set: (AUG-CC-PVTZ AUX)
    Blend: AUG-CC-PVTZ-RI
    Molecular point group: c1

    Geometry (in Angstrom), charge = 0, multiplicity = 1:

       Center              X                  Y                   Z               Mass
    ------------   -----------------  -----------------  -----------------  -----------------
         N           -1.823170404490    -0.169571750458    -0.003189041272    14.003074004430
         N           -0.305190404490    -1.857454750458    -0.011300041272    14.003074004430
         N           -0.301159404490     1.741992249542    -0.002024041272    14.003074004430
         N            2.019367595510     1.028385249542    -0.010952041272    14.003074004430
         N            2.692950595510    -1.204513750458     0.075541958728    14.003074004430
         C           -0.604257404490     0.471036249542     0.001964458728    12.000000000000
         C            0.332761595510    -0.633552750458     0.005132958728    12.000000000000
         C           -1.590797404490    -1.523540750458    -0.009385041272    12.000000000000
         C            1.691898595510    -0.273112750458    -0.001590041272    12.000000000000
         C           -3.074314704490     0.569168649542     0.000083658728    12.000000000000
         C            1.024016595510     1.942829249542    -0.012220041272    12.000000000000
         H           -2.412501404490    -2.231378750458    -0.015735041272     1.007825032230
         H           -3.179363404490     1.161545249542    -0.883180041272     1.007825032230
         H           -3.896482404490    -0.219575750458    -0.009777041272     1.007825032230
         H           -3.185063404490     1.144532249542     0.894317958728     1.007825032230
         H            1.348609595510     2.981399249542    -0.015977041272     1.007825032230
         H            3.602594595510    -0.870849750458    -0.222629041272     1.007825032230
         H            2.445619595510    -2.140542750458    -0.224339041272     1.007825032230

  Basis Set: AUG-CC-PVTZ
    Blend: AUG-CC-PVTZ
  Basis Set: (AUG-CC-PVTZ AUX)
    Blend: AUG-CC-PVTZ-JKFIT
	 Reference Energy          =    -503.7174433509436540 [Eh]
	 Singles Energy            =      -0.0000000000000000 [Eh]
	 Same-Spin Energy          =      -0.5500441172049526 [Eh]
	 Opposite-Spin Energy      =      -1.6337803043209898 [Eh]
	 Correlation Energy        =      -2.1838244215259426 [Eh]
	 Total Energy              =    -505.9012677724696232 [Eh]

	 ================> DF-SCS-MP2 Energies <==================
	-----------------------------------------------------------
	 SCS Same-Spin Scale       =       0.3333333333333333 [-]
	 SCS Opposite-Spin Scale   =       1.2000000000000000 [-]
	 SCS Same-Spin Energy      =      -0.1833480390683175 [Eh]
	 SCS Opposite-Spin Energy  =      -1.9605363651851877 [Eh]
	 SCS Correlation Energy    =      -2.1438844042535052 [Eh]
	 SCS Total Energy          =    -505.8613277551971805 [Eh]
	-----------------------------------------------------------

  Dipole Moment: [D]
     X:    -2.7615      Y:    -1.0984      Z:    -0.7902     Total:     3.0752

*** Psi4 exiting successfully. Buy a developer a beer!
