                               Psi4 1.4a3.dev225

  ==> Input File <==

--------------------------------------------------------------------------
#psi4
#
memory 32 gb

molecule  {
0 1
  N       -1.7889380    -0.1640290    -0.0179520
  N       -0.2703210    -1.8482040    -0.0023970
  N       -0.2671710     1.7490810    -0.0033560
  N        2.0541740     1.0368940    -0.0085470
  N        2.7206340    -1.1973270     0.0732090
  C       -0.5486140     0.4351420     0.0045870
  C        0.3650590    -0.6247560     0.0169900
  C       -1.5569260    -1.5161270    -0.0162740
  C        1.7266360    -0.2641570     0.0048060
  C       -3.0641060     0.5324820     0.0177850
  C        1.0564750     1.9508360    -0.0110870
  H       -2.3762040    -2.2259510    -0.0342240
  H       -2.9284720     1.5041700    -0.4579320
  H       -3.8203887    -0.0592387    -0.5412656
  H       -3.3972360     0.6796990     1.0480130
  H        1.3812150     2.9891510    -0.0228070
  H        3.6427950    -0.8729100    -0.1905990
  H        2.4748820    -2.1409930    -0.1987870
units angstrom
no_reorient  #important for SAPT in psi4, default
symmetry c1  #important for SAPT in psi4, default
}

set PROPERTIES_ORIGIN ["COM"]
properties('MP2/aug-cc-pvtz', properties = ['dipole'])
--------------------------------------------------------------------------

    Molecular point group: c1
  Charge       = 0
  Multiplicity = 1
  Basis Set: AUG-CC-PVTZ
    Blend: AUG-CC-PVTZ
  Basis Set: (AUG-CC-PVTZ AUX)
    Blend: AUG-CC-PVTZ-JKFIT

    Orbital Energies [Eh]
    ---------------------

    Doubly Occupied:

       1A    -15.632265     2A    -15.581451     3A    -15.567359
       4A    -15.559956     5A    -15.551642     6A    -11.334880
       7A    -11.320899     8A    -11.312633     9A    -11.311491
      10A    -11.289371    11A    -11.250827    12A     -1.367706
      13A     -1.296135    14A     -1.242857    15A     -1.196502
      16A     -1.151808    17A     -1.030724    18A     -0.983837
      19A     -0.890486    20A     -0.872061    21A     -0.802465
      22A     -0.753651    23A     -0.724803    24A     -0.681157
      25A     -0.673765    26A     -0.665788    27A     -0.624952
      28A     -0.605808    29A     -0.595150    30A     -0.591507
      31A     -0.569531    32A     -0.536562    33A     -0.495628
      34A     -0.491260    35A     -0.450397    36A     -0.414171
      37A     -0.408121    38A     -0.367590    39A     -0.306909

  @DF-RHF Final Energy:  -503.72448452594926

   => Energetics <=

    Nuclear Repulsion Energy =            594.5118905893353940
    One-Electron Energy =               -1863.4645361955281260
    Two-Electron Energy =                 765.2281610802433534
    Total Energy =                       -503.7244845259492649
  Basis Set: (AUG-CC-PVTZ AUX)
    Blend: AUG-CC-PVTZ-RI
    Molecular point group: c1

    Geometry (in Angstrom), charge = 0, multiplicity = 1:

       Center              X                  Y                   Z               Mass
    ------------   -----------------  -----------------  -----------------  -----------------
         N           -1.822240371052    -0.164716519790    -0.020464206962    14.003074004430
         N           -0.303623371052    -1.848891519790    -0.004909206962    14.003074004430
         N           -0.300473371052     1.748393480210    -0.005868206962    14.003074004430
         N            2.020871628948     1.036206480210    -0.011059206962    14.003074004430
         N            2.687331628948    -1.198014519790     0.070696793038    14.003074004430
         C           -0.581916371052     0.434454480210     0.002074793038    12.000000000000
         C            0.331756628948    -0.625443519790     0.014477793038    12.000000000000
         C           -1.590228371052    -1.516814519790    -0.018786206962    12.000000000000
         C            1.693333628948    -0.264844519790     0.002293793038    12.000000000000
         C           -3.097408371052     0.531794480210     0.015272793038    12.000000000000
         C            1.023172628948     1.950148480210    -0.013599206962    12.000000000000
         H           -2.409506371052    -2.226638519790    -0.036736206962     1.007825032230
         H           -2.961774371052     1.503482480210    -0.460444206962     1.007825032230
         H           -3.853691071052    -0.059926219790    -0.543777806962     1.007825032230
         H           -3.430538371052     0.679011480210     1.045500793038     1.007825032230
         H            1.347912628948     2.988463480210    -0.025319206962     1.007825032230
         H            3.609492628948    -0.873597519790    -0.193111206962     1.007825032230
         H            2.441579628948    -2.141680519790    -0.201299206962     1.007825032230

  Basis Set: AUG-CC-PVTZ
    Blend: AUG-CC-PVTZ
  Basis Set: (AUG-CC-PVTZ AUX)
    Blend: AUG-CC-PVTZ-JKFIT
	 Reference Energy          =    -503.7244845259492649 [Eh]
	 Singles Energy            =      -0.0000000000000000 [Eh]
	 Same-Spin Energy          =      -0.5493207153864588 [Eh]
	 Opposite-Spin Energy      =      -1.6330352637199095 [Eh]
	 Correlation Energy        =      -2.1823559791063682 [Eh]
	 Total Energy              =    -505.9068405050556407 [Eh]

	 ================> DF-SCS-MP2 Energies <==================
	-----------------------------------------------------------
	 SCS Same-Spin Scale       =       0.3333333333333333 [-]
	 SCS Opposite-Spin Scale   =       1.2000000000000000 [-]
	 SCS Same-Spin Energy      =      -0.1831069051288196 [Eh]
	 SCS Opposite-Spin Energy  =      -1.9596423164638912 [Eh]
	 SCS Correlation Energy    =      -2.1427492215927106 [Eh]
	 SCS Total Energy          =    -505.8672337475420022 [Eh]
	-----------------------------------------------------------

  Dipole Moment: [D]
     X:    -2.6293      Y:    -1.2037      Z:    -0.7105     Total:     2.9777

*** Psi4 exiting successfully. Buy a developer a beer!
