                               Psi4 1.4a3.dev225

  ==> Input File <==

--------------------------------------------------------------------------
#psi4
#
memory 32 gb

molecule  {
0 1
  N       -1.7889380    -0.1640290    -0.0179520
  N       -0.2703210    -1.8482040    -0.0023970
  N       -0.2671710     1.7490810    -0.0033560
  N        2.0541740     1.0368940    -0.0085470
  N        2.7206340    -1.1973270     0.0732090
  C       -0.5486140     0.4351420     0.0045870
  C        0.3650590    -0.6247560     0.0169900
  C       -1.5569260    -1.5161270    -0.0162740
  C        1.7411989    -0.2778287     0.0058082
  C       -3.0641060     0.5324820     0.0177850
  C        1.0564750     1.9508360    -0.0110870
  H       -2.3762040    -2.2259510    -0.0342240
  H       -2.9284720     1.5041700    -0.4579320
  H       -3.8067760    -0.0485880    -0.5312030
  H       -3.3972360     0.6796990     1.0480130
  H        1.3812150     2.9891510    -0.0228070
  H        3.6427950    -0.8729100    -0.1905990
  H        2.4748820    -2.1409930    -0.1987870
units angstrom
no_reorient  #important for SAPT in psi4, default
symmetry c1  #important for SAPT in psi4, default
}

set PROPERTIES_ORIGIN ["COM"]
properties('MP2/aug-cc-pvtz', properties = ['dipole'])
--------------------------------------------------------------------------

    Molecular point group: c1
  Charge       = 0
  Multiplicity = 1
  Basis Set: AUG-CC-PVTZ
    Blend: AUG-CC-PVTZ
  Basis Set: (AUG-CC-PVTZ AUX)
    Blend: AUG-CC-PVTZ-JKFIT

    Orbital Energies [Eh]
    ---------------------

    Doubly Occupied:

       1A    -15.631118     2A    -15.585381     3A    -15.566278
       4A    -15.557841     5A    -15.550393     6A    -11.336368
       7A    -11.319374     8A    -11.311282     9A    -11.310414
      10A    -11.286264    11A    -11.250513    12A     -1.366307
      13A     -1.295814    14A     -1.246490    15A     -1.197144
      16A     -1.150557    17A     -1.028439    18A     -0.984201
      19A     -0.889479    20A     -0.869547    21A     -0.803507
      22A     -0.754818    23A     -0.726966    24A     -0.682586
      25A     -0.675234    26A     -0.665160    27A     -0.626094
      28A     -0.604283    29A     -0.594402    30A     -0.592185
      31A     -0.570391    32A     -0.537784    33A     -0.497115
      34A     -0.489539    35A     -0.447942    36A     -0.413472
      37A     -0.406827    38A     -0.366140    39A     -0.304640

  @DF-RHF Final Energy:  -503.72421602956376

   => Energetics <=

    Nuclear Repulsion Energy =            594.4020571009491505
    One-Electron Energy =               -1863.2679637292226289
    Two-Electron Energy =                 765.1416905987097152
    Total Energy =                       -503.7242160295637632
  Basis Set: (AUG-CC-PVTZ AUX)
    Blend: AUG-CC-PVTZ-RI
    Molecular point group: c1

    Geometry (in Angstrom), charge = 0, multiplicity = 1:

       Center              X                  Y                   Z               Mass
    ------------   -----------------  -----------------  -----------------  -----------------
         N           -1.823504702146    -0.163687968045    -0.020612913734    14.003074004430
         N           -0.304887702146    -1.847862968045    -0.005057913734    14.003074004430
         N           -0.301737702146     1.749422031955    -0.006016913734    14.003074004430
         N            2.019607297854     1.037235031955    -0.011207913734    14.003074004430
         N            2.686067297854    -1.196985968045     0.070548086266    14.003074004430
         C           -0.583180702146     0.435483031955     0.001926086266    12.000000000000
         C            0.330492297854    -0.624414968045     0.014329086266    12.000000000000
         C           -1.591492702146    -1.515785968045    -0.018934913734    12.000000000000
         C            1.706632197854    -0.277487668045     0.003147286266    12.000000000000
         C           -3.098672702146     0.532823031955     0.015124086266    12.000000000000
         C            1.021908297854     1.951177031955    -0.013747913734    12.000000000000
         H           -2.410770702146    -2.225609968045    -0.036884913734     1.007825032230
         H           -2.963038702146     1.504511031955    -0.460592913734     1.007825032230
         H           -3.841342702146    -0.048246968045    -0.533863913734     1.007825032230
         H           -3.431802702146     0.680040031955     1.045352086266     1.007825032230
         H            1.346648297854     2.989492031955    -0.025467913734     1.007825032230
         H            3.608228297854    -0.872568968045    -0.193259913734     1.007825032230
         H            2.440315297854    -2.140651968045    -0.201447913734     1.007825032230

  Basis Set: AUG-CC-PVTZ
    Blend: AUG-CC-PVTZ
  Basis Set: (AUG-CC-PVTZ AUX)
    Blend: AUG-CC-PVTZ-JKFIT
	 Reference Energy          =    -503.7242160295637632 [Eh]
	 Singles Energy            =      -0.0000000000000000 [Eh]
	 Same-Spin Energy          =      -0.5493987471996991 [Eh]
	 Opposite-Spin Energy      =      -1.6329711180493680 [Eh]
	 Correlation Energy        =      -2.1823698652490671 [Eh]
	 Total Energy              =    -505.9065858948128493 [Eh]

	 ================> DF-SCS-MP2 Energies <==================
	-----------------------------------------------------------
	 SCS Same-Spin Scale       =       0.3333333333333333 [-]
	 SCS Opposite-Spin Scale   =       1.2000000000000000 [-]
	 SCS Same-Spin Energy      =      -0.1831329157332330 [Eh]
	 SCS Opposite-Spin Energy  =      -1.9595653416592416 [Eh]
	 SCS Correlation Energy    =      -2.1426982573924747 [Eh]
	 SCS Total Energy          =    -505.8669142869562165 [Eh]
	-----------------------------------------------------------

  Dipole Moment: [D]
     X:    -2.4771      Y:    -1.3283      Z:    -0.7068     Total:     2.8982

*** Psi4 exiting successfully. Buy a developer a beer!
