                               Psi4 1.3.2 release

  ==> Input File <==

--------------------------------------------------------------------------
#psi4
#
memory 32 gb

molecule  {
0 1
  N       -1.7893040    -0.1617730    -0.0001110
  N       -0.2713240    -1.8496560    -0.0082220
  N       -0.2672930     1.7497910     0.0010540
  N        2.0645598     1.0332867    -0.0071659
  N        2.7349062    -1.1879217     0.0788918
  C       -0.5487760     0.4359060     0.0048010
  C        0.3666280    -0.6257540     0.0082110
  C       -1.5569310    -1.5157420    -0.0063070
  C        1.7257650    -0.2653140     0.0014880
  C       -3.0654680     0.5328540     0.0028660
  C        1.0578830     1.9506280    -0.0091420
  H       -2.3786350    -2.2235800    -0.0126570
  H       -3.1454970     1.1693440    -0.8801020
  H       -3.8626160    -0.2117770    -0.0066990
  H       -3.1511970     1.1523310     0.8973960
  H        1.3824760     2.9891980    -0.0128990
  H        3.6364610    -0.8630510    -0.2195510
  H        2.4794860    -2.1327440    -0.2212610
units angstrom
no_reorient  #important for SAPT in psi4, default
symmetry c1  #important for SAPT in psi4, default
}

set PROPERTIES_ORIGIN ["COM"]
properties('MP2/aug-cc-pvtz', properties = ['dipole'])
--------------------------------------------------------------------------

    Molecular point group: c1
  Charge       = 0
  Multiplicity = 1
  Basis Set: AUG-CC-PVTZ
    Blend: AUG-CC-PVTZ
  Basis Set: (AUG-CC-PVTZ AUX)
    Blend: AUG-CC-PVTZ-JKFIT

    Orbital Energies [Eh]
    ---------------------

    Doubly Occupied:

       1A    -15.633512     2A    -15.580244     3A    -15.567754
       4A    -15.561727     5A    -15.553225     6A    -11.334091
       7A    -11.322609     8A    -11.313517     9A    -11.312903
      10A    -11.289015    11A    -11.252459    12A     -1.367997
      13A     -1.295184    14A     -1.242303    15A     -1.197085
      16A     -1.150431    17A     -1.031335    18A     -0.986346
      19A     -0.889650    20A     -0.872750    21A     -0.802858
      22A     -0.752650    23A     -0.724521    24A     -0.681847
      25A     -0.670711    26A     -0.666561    27A     -0.623649
      28A     -0.606859    29A     -0.596515    30A     -0.591144
      31A     -0.571741    32A     -0.536553    33A     -0.495328
      34A     -0.493154    35A     -0.451660    36A     -0.414318
      37A     -0.409178    38A     -0.367987    39A     -0.308148

  @DF-RHF Final Energy:  -503.72396718720756

   => Energetics <=

    Nuclear Repulsion Energy =            594.0393084543670739
    One-Electron Energy =               -1862.4875092788613529
    Two-Electron Energy =                 764.7242336372867157
    Total Energy =                       -503.7239671872075633
  Basis Set: (AUG-CC-PVTZ AUX)
    Blend: AUG-CC-PVTZ-RI
    Molecular point group: c1

    Geometry (in Angstrom), charge = 0, multiplicity = 1:

       Center              X                  Y                   Z               Mass
    ------------   -----------------  -----------------  -----------------  -----------------
         N           -1.824720099645    -0.163118770393    -0.003237845224    14.003074004430
         N           -0.306740099645    -1.851001770393    -0.011348845224    14.003074004430
         N           -0.302709099645     1.748445229607    -0.002072845224    14.003074004430
         N            2.029143700355     1.031940929607    -0.010292745224    14.003074004430
         N            2.699490100355    -1.189267470393     0.075764954776    14.003074004430
         C           -0.584192099645     0.434560229607     0.001674154776    12.000000000000
         C            0.331211900355    -0.627099770393     0.005084154776    12.000000000000
         C           -1.592347099645    -1.517087770393    -0.009433845224    12.000000000000
         C            1.690348900355    -0.266659770393    -0.001638845224    12.000000000000
         C           -3.100884099645     0.531508229607    -0.000260845224    12.000000000000
         C            1.022466900355     1.949282229607    -0.012268845224    12.000000000000
         H           -2.414051099645    -2.224925770393    -0.015783845224     1.007825032230
         H           -3.180913099645     1.167998229607    -0.883228845224     1.007825032230
         H           -3.898032099645    -0.213122770393    -0.009825845224     1.007825032230
         H           -3.186613099645     1.150985229607     0.894269154776     1.007825032230
         H            1.347059900355     2.987852229607    -0.016025845224     1.007825032230
         H            3.601044900355    -0.864396770393    -0.222677845224     1.007825032230
         H            2.444069900355    -2.134089770393    -0.224387845224     1.007825032230

  Basis Set: AUG-CC-PVTZ
    Blend: AUG-CC-PVTZ
  Basis Set: (AUG-CC-PVTZ AUX)
    Blend: AUG-CC-PVTZ-JKFIT
	 Reference Energy          =    -503.7239671872075633 [Eh]
	 Singles Energy            =      -0.0000000000000000 [Eh]
	 Same-Spin Energy          =      -0.5493148249097964 [Eh]
	 Opposite-Spin Energy      =      -1.6334305018517350 [Eh]
	 Correlation Energy        =      -2.1827453267615313 [Eh]
	 Total Energy              =    -505.9067125139690688 [Eh]

	 ================> DF-SCS-MP2 Energies <==================
	-----------------------------------------------------------
	 SCS Same-Spin Scale       =       0.3333333333333333 [-]
	 SCS Opposite-Spin Scale   =       1.2000000000000000 [-]
	 SCS Same-Spin Energy      =      -0.1831049416365988 [Eh]
	 SCS Opposite-Spin Energy  =      -1.9601166022220819 [Eh]
	 SCS Correlation Energy    =      -2.1432215438586808 [Eh]
	 SCS Total Energy          =    -505.8671887310662214 [Eh]
	-----------------------------------------------------------

  Dipole Moment: [D]
     X:    -2.7851      Y:    -1.1516      Z:    -0.7905     Total:     3.1157

*** Psi4 exiting successfully. Buy a developer a beer!
