                               Psi4 1.3.2 release

  ==> Input File <==

--------------------------------------------------------------------------
#psi4
#
memory 32 gb

molecule  {
0 1
  N       -1.7893040    -0.1617730    -0.0001110
  N       -0.2713240    -1.8496560    -0.0082220
  N       -0.2672930     1.7497910     0.0010540
  N        2.0532340     1.0361840    -0.0078740
  N        2.7268170    -1.1967150     0.0786200
  C       -0.5487760     0.4359060     0.0048010
  C        0.3772851    -0.6313675     0.0081595
  C       -1.5597959    -1.5269727    -0.0064525
  C        1.7257650    -0.2653140     0.0014880
  C       -3.0654680     0.5328540     0.0028660
  C        1.0578830     1.9506280    -0.0091420
  H       -2.3786350    -2.2235800    -0.0126570
  H       -3.1454970     1.1693440    -0.8801020
  H       -3.8626160    -0.2117770    -0.0066990
  H       -3.1511970     1.1523310     0.8973960
  H        1.3824760     2.9891980    -0.0128990
  H        3.6364610    -0.8630510    -0.2195510
  H        2.4794860    -2.1327440    -0.2212610
units angstrom
no_reorient  #important for SAPT in psi4, default
symmetry c1  #important for SAPT in psi4, default
}

set PROPERTIES_ORIGIN ["COM"]
properties('MP2/aug-cc-pvtz', properties = ['dipole'])
--------------------------------------------------------------------------

    Molecular point group: c1
  Charge       = 0
  Multiplicity = 1
  Basis Set: AUG-CC-PVTZ
    Blend: AUG-CC-PVTZ
  Basis Set: (AUG-CC-PVTZ AUX)
    Blend: AUG-CC-PVTZ-JKFIT

    Orbital Energies [Eh]
    ---------------------

    Doubly Occupied:

       1A    -15.632948     2A    -15.580074     3A    -15.568607
       4A    -15.560888     5A    -15.552406     6A    -11.333393
       7A    -11.323187     8A    -11.315088     9A    -11.311969
      10A    -11.288302    11A    -11.252280    12A     -1.364899
      13A     -1.295837    14A     -1.242340    15A     -1.196019
      16A     -1.151681    17A     -1.031297    18A     -0.985081
      19A     -0.891525    20A     -0.872505    21A     -0.802085
      22A     -0.753248    23A     -0.724264    24A     -0.679857
      25A     -0.673866    26A     -0.665025    27A     -0.626328
      28A     -0.606227    29A     -0.597983    30A     -0.591849
      31A     -0.571872    32A     -0.535810    33A     -0.495816
      34A     -0.492165    35A     -0.449646    36A     -0.414418
      37A     -0.408319    38A     -0.367358    39A     -0.308047

  @DF-RHF Final Energy:  -503.72411388603746

   => Energetics <=

    Nuclear Repulsion Energy =            593.9672737852475848
    One-Electron Energy =               -1862.3537617037447944
    Two-Electron Energy =                 764.6623740324596383
    Total Energy =                       -503.7241138860374576
  Basis Set: (AUG-CC-PVTZ AUX)
    Blend: AUG-CC-PVTZ-RI
    Molecular point group: c1

    Geometry (in Angstrom), charge = 0, multiplicity = 1:

       Center              X                  Y                   Z               Mass
    ------------   -----------------  -----------------  -----------------  -----------------
         N           -1.823523593923    -0.161208981388    -0.003129938894    14.003074004430
         N           -0.305543593923    -1.849091981388    -0.011240938894    14.003074004430
         N           -0.301512593923     1.750355018612    -0.001964938894    14.003074004430
         N            2.019014406077     1.036748018612    -0.010892938894    14.003074004430
         N            2.692597406077    -1.196150981388     0.075601061106    14.003074004430
         C           -0.582995593923     0.436470018612     0.001782061106    12.000000000000
         C            0.343065506077    -0.630803481388     0.005140561106    12.000000000000
         C           -1.594015493923    -1.526408681388    -0.009471438894    12.000000000000
         C            1.691545406077    -0.264749981388    -0.001530938894    12.000000000000
         C           -3.099687593923     0.533418018612    -0.000152938894    12.000000000000
         C            1.023663406077     1.951192018612    -0.012160938894    12.000000000000
         H           -2.412854593923    -2.223015981388    -0.015675938894     1.007825032230
         H           -3.179716593923     1.169908018612    -0.883120938894     1.007825032230
         H           -3.896835593923    -0.211212981388    -0.009717938894     1.007825032230
         H           -3.185416593923     1.152895018612     0.894377061106     1.007825032230
         H            1.348256406077     2.989762018612    -0.015917938894     1.007825032230
         H            3.602241406077    -0.862486981388    -0.222569938894     1.007825032230
         H            2.445266406077    -2.132179981388    -0.224279938894     1.007825032230

  Basis Set: AUG-CC-PVTZ
    Blend: AUG-CC-PVTZ
  Basis Set: (AUG-CC-PVTZ AUX)
    Blend: AUG-CC-PVTZ-JKFIT
	 Reference Energy          =    -503.7241138860374576 [Eh]
	 Singles Energy            =      -0.0000000000000000 [Eh]
	 Same-Spin Energy          =      -0.5493174685117082 [Eh]
	 Opposite-Spin Energy      =      -1.6333011125907482 [Eh]
	 Correlation Energy        =      -2.1826185811024565 [Eh]
	 Total Energy              =    -505.9067324671399319 [Eh]

	 ================> DF-SCS-MP2 Energies <==================
	-----------------------------------------------------------
	 SCS Same-Spin Scale       =       0.3333333333333333 [-]
	 SCS Opposite-Spin Scale   =       1.2000000000000000 [-]
	 SCS Same-Spin Energy      =      -0.1831058228372360 [Eh]
	 SCS Opposite-Spin Energy  =      -1.9599613351088978 [Eh]
	 SCS Correlation Energy    =      -2.1430671579461338 [Eh]
	 SCS Total Energy          =    -505.8671810439835781 [Eh]
	-----------------------------------------------------------

  Dipole Moment: [D]
     X:    -2.7476      Y:    -1.1739      Z:    -0.7898     Total:     3.0905

*** Psi4 exiting successfully. Buy a developer a beer!
