                               Psi4 1.3.2 release

  ==> Input File <==

--------------------------------------------------------------------------
#psi4
#
memory 32 gb

molecule  {
0 1
  N       -1.7893040    -0.1617730    -0.0001110
  N       -0.2713240    -1.8496560    -0.0082220
  N       -0.2672930     1.7497910     0.0010540
  N        2.0532340     1.0361840    -0.0078740
  N        2.7268170    -1.1967150     0.0786200
  C       -0.5487760     0.4359060     0.0048010
  C        0.3666280    -0.6257540     0.0082110
  C       -1.5569310    -1.5157420    -0.0063070
  C        1.7257650    -0.2653140     0.0014880
  C       -3.0654680     0.5328540     0.0028660
  C        1.0578830     1.9506280    -0.0091420
  H       -2.3786350    -2.2235800    -0.0126570
  H       -3.1454970     1.1693440    -0.8801020
  H       -3.8626160    -0.2117770    -0.0066990
  H       -3.1511970     1.1523310     0.8973960
  H        1.3824760     2.9891980    -0.0128990
  H        3.6392146    -0.8784365    -0.2278425
  H        2.4950688    -2.1340448    -0.2295311
units angstrom
no_reorient  #important for SAPT in psi4, default
symmetry c1  #important for SAPT in psi4, default
}

set PROPERTIES_ORIGIN ["COM"]
properties('MP2/aug-cc-pvtz', properties = ['dipole'])
--------------------------------------------------------------------------

    Molecular point group: c1
  Charge       = 0
  Multiplicity = 1
  Basis Set: AUG-CC-PVTZ
    Blend: AUG-CC-PVTZ
  Basis Set: (AUG-CC-PVTZ AUX)
    Blend: AUG-CC-PVTZ-JKFIT

    Orbital Energies [Eh]
    ---------------------

    Doubly Occupied:

       1A    -15.633054     2A    -15.580913     3A    -15.567243
       4A    -15.560831     5A    -15.552475     6A    -11.334919
       7A    -11.322492     8A    -11.313067     9A    -11.311569
      10A    -11.288723    11A    -11.252012    12A     -1.367780
      13A     -1.296100    14A     -1.242121    15A     -1.196795
      16A     -1.151986    17A     -1.031494    18A     -0.986066
      19A     -0.891134    20A     -0.871948    21A     -0.803503
      22A     -0.752651    23A     -0.724738    24A     -0.680344
      25A     -0.672216    26A     -0.666380    27A     -0.624944
      28A     -0.605903    29A     -0.596821    30A     -0.591503
      31A     -0.571744    32A     -0.536768    33A     -0.495623
      34A     -0.492609    35A     -0.450457    36A     -0.414365
      37A     -0.408555    38A     -0.368385    39A     -0.307910

  @DF-RHF Final Energy:  -503.72478020806545

   => Energetics <=

    Nuclear Repulsion Energy =            594.2725267300891119
    One-Electron Energy =               -1862.9583309446745716
    Two-Electron Energy =                 764.9610240065200060
    Total Energy =                       -503.7247802080654537
  Basis Set: (AUG-CC-PVTZ AUX)
    Blend: AUG-CC-PVTZ-RI
    Molecular point group: c1

    Geometry (in Angstrom), charge = 0, multiplicity = 1:

       Center              X                  Y                   Z               Mass
    ------------   -----------------  -----------------  -----------------  -----------------
         N           -1.823020297190    -0.162452111116    -0.003033828469    14.003074004430
         N           -0.305040297190    -1.850335111116    -0.011144828469    14.003074004430
         N           -0.301009297190     1.749111888884    -0.001868828469    14.003074004430
         N            2.019517702810     1.035504888884    -0.010796828469    14.003074004430
         N            2.693100702810    -1.197394111116     0.075697171531    14.003074004430
         C           -0.582492297190     0.435226888884     0.001878171531    12.000000000000
         C            0.332911702810    -0.626433111116     0.005288171531    12.000000000000
         C           -1.590647297190    -1.516421111116    -0.009229828469    12.000000000000
         C            1.692048702810    -0.265993111116    -0.001434828469    12.000000000000
         C           -3.099184297190     0.532174888884    -0.000056828469    12.000000000000
         C            1.024166702810     1.949948888884    -0.012064828469    12.000000000000
         H           -2.412351297190    -2.224259111116    -0.015579828469     1.007825032230
         H           -3.179213297190     1.168664888884    -0.883024828469     1.007825032230
         H           -3.896332297190    -0.212456111116    -0.009621828469     1.007825032230
         H           -3.184913297190     1.151651888884     0.894473171531     1.007825032230
         H            1.348759702810     2.988518888884    -0.015821828469     1.007825032230
         H            3.605498302810    -0.879115611116    -0.230765328469     1.007825032230
         H            2.461352502810    -2.134723911116    -0.232453928469     1.007825032230

  Basis Set: AUG-CC-PVTZ
    Blend: AUG-CC-PVTZ
  Basis Set: (AUG-CC-PVTZ AUX)
    Blend: AUG-CC-PVTZ-JKFIT
	 Reference Energy          =    -503.7247802080654537 [Eh]
	 Singles Energy            =      -0.0000000000000000 [Eh]
	 Same-Spin Energy          =      -0.5492443867075538 [Eh]
	 Opposite-Spin Energy      =      -1.6331044560151795 [Eh]
	 Correlation Energy        =      -2.1823488427227336 [Eh]
	 Total Energy              =    -505.9071290507881713 [Eh]

	 ================> DF-SCS-MP2 Energies <==================
	-----------------------------------------------------------
	 SCS Same-Spin Scale       =       0.3333333333333333 [-]
	 SCS Opposite-Spin Scale   =       1.2000000000000000 [-]
	 SCS Same-Spin Energy      =      -0.1830814622358513 [Eh]
	 SCS Opposite-Spin Energy  =      -1.9597253472182152 [Eh]
	 SCS Correlation Energy    =      -2.1428068094540667 [Eh]
	 SCS Total Energy          =    -505.8675870175194973 [Eh]
	-----------------------------------------------------------

  Dipole Moment: [D]
     X:    -2.7302      Y:    -1.1636      Z:    -0.8098     Total:     3.0763

*** Psi4 exiting successfully. Buy a developer a beer!
