                               Psi4 1.4a3.dev225

  ==> Input File <==

--------------------------------------------------------------------------
#psi4
#
memory 32 gb

molecule  {
0 1
  N       -1.7889380    -0.1640290    -0.0179520
  N       -0.2703210    -1.8482040    -0.0023970
  N       -0.2671710     1.7490810    -0.0033560
  N        2.0541740     1.0368940    -0.0085470
  N        2.7206340    -1.1973270     0.0732090
  C       -0.5486140     0.4351420     0.0045870
  C        0.3650590    -0.6247560     0.0169900
  C       -1.5569260    -1.5161270    -0.0162740
  C        1.7266360    -0.2641570     0.0048060
  C       -3.1079735     0.5564429     0.0190144
  C        1.0564750     1.9508360    -0.0110870
  H       -2.3762040    -2.2259510    -0.0342240
  H       -2.9284720     1.5041700    -0.4579320
  H       -3.8067760    -0.0485880    -0.5312030
  H       -3.3972360     0.6796990     1.0480130
  H        1.3812150     2.9891510    -0.0228070
  H        3.6427950    -0.8729100    -0.1905990
  H        2.4748820    -2.1409930    -0.1987870
units angstrom
no_reorient  #important for SAPT in psi4, default
symmetry c1  #important for SAPT in psi4, default
}

set PROPERTIES_ORIGIN ["COM"]
properties('MP2/aug-cc-pvtz', properties = ['dipole'])
--------------------------------------------------------------------------

    Molecular point group: c1
  Charge       = 0
  Multiplicity = 1
  Basis Set: AUG-CC-PVTZ
    Blend: AUG-CC-PVTZ
  Basis Set: (AUG-CC-PVTZ AUX)
    Blend: AUG-CC-PVTZ-JKFIT

    Orbital Energies [Eh]
    ---------------------

    Doubly Occupied:

       1A    -15.630371     2A    -15.580449     3A    -15.565336
       4A    -15.558753     5A    -15.550464     6A    -11.333652
       7A    -11.319145     8A    -11.310827     9A    -11.310346
      10A    -11.289111    11A    -11.249263    12A     -1.362843
      13A     -1.294120    14A     -1.241441    15A     -1.190034
      16A     -1.150002    17A     -1.029016    18A     -0.986904
      19A     -0.888510    20A     -0.870214    21A     -0.801104
      22A     -0.751872    23A     -0.721252    24A     -0.676763
      25A     -0.672475    26A     -0.664866    27A     -0.621234
      28A     -0.606061    29A     -0.599406    30A     -0.594323
      31A     -0.573050    32A     -0.539400    33A     -0.494512
      34A     -0.489751    35A     -0.448968    36A     -0.413567
      37A     -0.407162    38A     -0.366543    39A     -0.305480

  @DF-RHF Final Energy:  -503.72288579880689

   => Energetics <=

    Nuclear Repulsion Energy =            593.5758195118015692
    One-Electron Energy =               -1861.6802324020763990
    Two-Electron Energy =                 764.3815270914681150
    Total Energy =                       -503.7228857988068285
  Basis Set: (AUG-CC-PVTZ AUX)
    Blend: AUG-CC-PVTZ-RI
    Molecular point group: c1

    Geometry (in Angstrom), charge = 0, multiplicity = 1:

       Center              X                  Y                   Z               Mass
    ------------   -----------------  -----------------  -----------------  -----------------
         N           -1.818801112445    -0.166717355313    -0.020631203111    14.003074004430
         N           -0.300184112445    -1.850892355313    -0.005076203111    14.003074004430
         N           -0.297034112445     1.746392644687    -0.006035203111    14.003074004430
         N            2.024310887555     1.034205644687    -0.011226203111    14.003074004430
         N            2.690770887555    -1.200015355313     0.070529796889    14.003074004430
         C           -0.578477112445     0.432453644687     0.001907796889    12.000000000000
         C            0.335195887555    -0.627444355313     0.014310796889    12.000000000000
         C           -1.586789112445    -1.518815355313    -0.018953203111    12.000000000000
         C            1.696772887555    -0.266845355313     0.002126796889    12.000000000000
         C           -3.137836612445     0.553754544687     0.016335196889    12.000000000000
         C            1.026611887555     1.948147644687    -0.013766203111    12.000000000000
         H           -2.406067112445    -2.228639355313    -0.036903203111     1.007825032230
         H           -2.958335112445     1.501481644687    -0.460611203111     1.007825032230
         H           -3.836639112445    -0.051276355313    -0.533882203111     1.007825032230
         H           -3.427099112445     0.677010644687     1.045333796889     1.007825032230
         H            1.351351887555     2.986462644687    -0.025486203111     1.007825032230
         H            3.612931887555    -0.875598355313    -0.193278203111     1.007825032230
         H            2.445018887555    -2.143681355313    -0.201466203111     1.007825032230

  Basis Set: AUG-CC-PVTZ
    Blend: AUG-CC-PVTZ
  Basis Set: (AUG-CC-PVTZ AUX)
    Blend: AUG-CC-PVTZ-JKFIT
	 Reference Energy          =    -503.7228857988068853 [Eh]
	 Singles Energy            =      -0.0000000000000000 [Eh]
	 Same-Spin Energy          =      -0.5491388092039601 [Eh]
	 Opposite-Spin Energy      =      -1.6330059431725992 [Eh]
	 Correlation Energy        =      -2.1821447523765594 [Eh]
	 Total Energy              =    -505.9050305511834722 [Eh]

	 ================> DF-SCS-MP2 Energies <==================
	-----------------------------------------------------------
	 SCS Same-Spin Scale       =       0.3333333333333333 [-]
	 SCS Opposite-Spin Scale   =       1.2000000000000000 [-]
	 SCS Same-Spin Energy      =      -0.1830462697346533 [Eh]
	 SCS Opposite-Spin Energy  =      -1.9596071318071189 [Eh]
	 SCS Correlation Energy    =      -2.1426534015417724 [Eh]
	 SCS Total Energy          =    -505.8655392003486782 [Eh]
	-----------------------------------------------------------

  Dipole Moment: [D]
     X:    -2.7997      Y:    -1.1518      Z:    -0.7012     Total:     3.1075

*** Psi4 exiting successfully. Buy a developer a beer!
