                               Psi4 1.4a3.dev225

  ==> Input File <==

--------------------------------------------------------------------------
#psi4
#
memory 32 gb

molecule  {
0 1
  N       -1.7889380    -0.1640290    -0.0179520
  N       -0.2703210    -1.8482040    -0.0023970
  N       -0.2671710     1.7490810    -0.0033560
  N        2.0541740     1.0368940    -0.0085470
  N        2.7206340    -1.1973270     0.0732090
  C       -0.5486140     0.4351420     0.0045870
  C        0.3650590    -0.6247560     0.0169900
  C       -1.5569260    -1.5161270    -0.0162740
  C        1.7266360    -0.2641570     0.0048060
  C       -3.0641060     0.5324820     0.0177850
  C        1.0564750     1.9508360    -0.0110870
  H       -2.3762040    -2.2259510    -0.0342240
  H       -2.9284720     1.5041700    -0.4579320
  H       -3.8067760    -0.0485880    -0.5312030
  H       -3.3972360     0.6796990     1.0480130
  H        1.3812150     2.9891510    -0.0228070
  H        3.6883324    -0.8568899    -0.2036261
  H        2.4748820    -2.1409930    -0.1987870
units angstrom
no_reorient  #important for SAPT in psi4, default
symmetry c1  #important for SAPT in psi4, default
}

set PROPERTIES_ORIGIN ["COM"]
properties('MP2/aug-cc-pvtz', properties = ['dipole'])
--------------------------------------------------------------------------

    Molecular point group: c1
  Charge       = 0
  Multiplicity = 1
  Basis Set: AUG-CC-PVTZ
    Blend: AUG-CC-PVTZ
  Basis Set: (AUG-CC-PVTZ AUX)
    Blend: AUG-CC-PVTZ-JKFIT

    Orbital Energies [Eh]
    ---------------------

    Doubly Occupied:

       1A    -15.631941     2A    -15.585634     3A    -15.567139
       4A    -15.559612     5A    -15.551301     6A    -11.334669
       7A    -11.320674     8A    -11.312346     9A    -11.311222
      10A    -11.286922    11A    -11.250662    12A     -1.367435
      13A     -1.294976    14A     -1.240451    15A     -1.195208
      16A     -1.149899    17A     -1.029855    18A     -0.984840
      19A     -0.889140    20A     -0.871461    21A     -0.801251
      22A     -0.752063    23A     -0.722600    24A     -0.677245
      25A     -0.670805    26A     -0.666056    27A     -0.624616
      28A     -0.602821    29A     -0.594819    30A     -0.592021
      31A     -0.570804    32A     -0.536379    33A     -0.495065
      34A     -0.490996    35A     -0.450141    36A     -0.413733
      37A     -0.407755    38A     -0.367293    39A     -0.306498

  @DF-RHF Final Energy:  -503.72135032460562

   => Energetics <=

    Nuclear Repulsion Energy =            594.3294592199664521
    One-Electron Energy =               -1863.1449236568880679
    Two-Electron Energy =                 765.0941141123158786
    Total Energy =                       -503.7213503246056234
  Basis Set: (AUG-CC-PVTZ AUX)
    Blend: AUG-CC-PVTZ-RI
    Molecular point group: c1

    Geometry (in Angstrom), charge = 0, multiplicity = 1:

       Center              X                  Y                   Z               Mass
    ------------   -----------------  -----------------  -----------------  -----------------
         N           -1.822640269713    -0.164896834230    -0.020444164737    14.003074004430
         N           -0.304023269713    -1.849071834230    -0.004889164737    14.003074004430
         N           -0.300873269713     1.748213165770    -0.005848164737    14.003074004430
         N            2.020471730287     1.036026165770    -0.011039164737    14.003074004430
         N            2.686931730287    -1.198194834230     0.070716835263    14.003074004430
         C           -0.582316269713     0.434274165770     0.002094835263    12.000000000000
         C            0.331356730287    -0.625623834230     0.014497835263    12.000000000000
         C           -1.590628269713    -1.516994834230    -0.018766164737    12.000000000000
         C            1.692933730287    -0.265024834230     0.002313835263    12.000000000000
         C           -3.097808269713     0.531614165770     0.015292835263    12.000000000000
         C            1.022772730287     1.949968165770    -0.013579164737    12.000000000000
         H           -2.409906269713    -2.226818834230    -0.036716164737     1.007825032230
         H           -2.962174269713     1.503302165770    -0.460424164737     1.007825032230
         H           -3.840478269713    -0.049455834230    -0.533695164737     1.007825032230
         H           -3.430938269713     0.678831165770     1.045520835263     1.007825032230
         H            1.347512730287     2.988283165770    -0.025299164737     1.007825032230
         H            3.654630130287    -0.857757734230    -0.206118264737     1.007825032230
         H            2.441179730287    -2.141860834230    -0.201279164737     1.007825032230

  Basis Set: AUG-CC-PVTZ
    Blend: AUG-CC-PVTZ
  Basis Set: (AUG-CC-PVTZ AUX)
    Blend: AUG-CC-PVTZ-JKFIT
	 Reference Energy          =    -503.7213503246056234 [Eh]
	 Singles Energy            =      -0.0000000000000000 [Eh]
	 Same-Spin Energy          =      -0.5496486843789539 [Eh]
	 Opposite-Spin Energy      =      -1.6337981263145394 [Eh]
	 Correlation Energy        =      -2.1834468106934932 [Eh]
	 Total Energy              =    -505.9047971352991340 [Eh]

	 ================> DF-SCS-MP2 Energies <==================
	-----------------------------------------------------------
	 SCS Same-Spin Scale       =       0.3333333333333333 [-]
	 SCS Opposite-Spin Scale   =       1.2000000000000000 [-]
	 SCS Same-Spin Energy      =      -0.1832162281263179 [Eh]
	 SCS Opposite-Spin Energy  =      -1.9605577515774470 [Eh]
	 SCS Correlation Energy    =      -2.1437739797037652 [Eh]
	 SCS Total Energy          =    -505.8651243043094041 [Eh]
	-----------------------------------------------------------

  Dipole Moment: [D]
     X:    -2.5845      Y:    -1.1939      Z:    -0.7213     Total:     2.9369

*** Psi4 exiting successfully. Buy a developer a beer!
