                               Psi4 1.4a3.dev225

  ==> Input File <==

--------------------------------------------------------------------------
#psi4
#
memory 32 gb

molecule  {
0 1
  N       -1.7889380    -0.1640290    -0.0179520
  N       -0.2703210    -1.8482040    -0.0023970
  N       -0.2671710     1.7490810    -0.0033560
  N        2.0541740     1.0368940    -0.0085470
  N        2.7206340    -1.1973270     0.0732090
  C       -0.5486140     0.4351420     0.0045870
  C        0.3650590    -0.6247560     0.0169900
  C       -1.5569260    -1.5161270    -0.0162740
  C        1.7266360    -0.2641570     0.0048060
  C       -3.0641060     0.5324820     0.0177850
  C        1.0564750     1.9508360    -0.0110870
  H       -2.3913177    -2.2390455    -0.0345551
  H       -2.9284720     1.5041700    -0.4579320
  H       -3.8067760    -0.0485880    -0.5312030
  H       -3.3972360     0.6796990     1.0480130
  H        1.3812150     2.9891510    -0.0228070
  H        3.6427950    -0.8729100    -0.1905990
  H        2.4748820    -2.1409930    -0.1987870
units angstrom
no_reorient  #important for SAPT in psi4, default
symmetry c1  #important for SAPT in psi4, default
}

set PROPERTIES_ORIGIN ["COM"]
properties('MP2/aug-cc-pvtz', properties = ['dipole'])
--------------------------------------------------------------------------

    Molecular point group: c1
  Charge       = 0
  Multiplicity = 1
  Basis Set: AUG-CC-PVTZ
    Blend: AUG-CC-PVTZ
  Basis Set: (AUG-CC-PVTZ AUX)
    Blend: AUG-CC-PVTZ-JKFIT

    Orbital Energies [Eh]
    ---------------------

    Doubly Occupied:

       1A    -15.632257     2A    -15.581417     3A    -15.567390
       4A    -15.559918     5A    -15.551612     6A    -11.334852
       7A    -11.323007     8A    -11.312588     9A    -11.311445
      10A    -11.287018    11A    -11.250851    12A     -1.367691
      13A     -1.296095    14A     -1.242821    15A     -1.196624
      16A     -1.151785    17A     -1.030359    18A     -0.985238
      19A     -0.889045    20A     -0.872030    21A     -0.802006
      22A     -0.753388    23A     -0.724266    24A     -0.680887
      25A     -0.673506    26A     -0.666251    27A     -0.623896
      28A     -0.605454    29A     -0.594819    30A     -0.591772
      31A     -0.571149    32A     -0.536792    33A     -0.495601
      34A     -0.491224    35A     -0.450284    36A     -0.414178
      37A     -0.408122    38A     -0.367586    39A     -0.306874

  @DF-RHF Final Energy:  -503.72434800462679

   => Energetics <=

    Nuclear Repulsion Energy =            594.4945050329542937
    One-Electron Energy =               -1863.4335116438130626
    Two-Electron Energy =                 765.2146586062319784
    Total Energy =                       -503.7243480046267905
  Basis Set: (AUG-CC-PVTZ AUX)
    Blend: AUG-CC-PVTZ-RI
    Molecular point group: c1

    Geometry (in Angstrom), charge = 0, multiplicity = 1:

       Center              X                  Y                   Z               Mass
    ------------   -----------------  -----------------  -----------------  -----------------
         N           -1.822230223176    -0.164699997884    -0.020529999138    14.003074004430
         N           -0.303613223176    -1.848874997884    -0.004974999138    14.003074004430
         N           -0.300463223176     1.748410002116    -0.005933999138    14.003074004430
         N            2.020881776824     1.036223002116    -0.011124999138    14.003074004430
         N            2.687341776824    -1.197997997884     0.070631000862    14.003074004430
         C           -0.581906223176     0.434471002116     0.002009000862    12.000000000000
         C            0.331766776824    -0.625426997884     0.014412000862    12.000000000000
         C           -1.590218223176    -1.516797997884    -0.018851999138    12.000000000000
         C            1.693343776824    -0.264827997884     0.002228000862    12.000000000000
         C           -3.097398223176     0.531811002116     0.015207000862    12.000000000000
         C            1.023182776824     1.950165002116    -0.013664999138    12.000000000000
         H           -2.424609923176    -2.239716497884    -0.037133099138     1.007825032230
         H           -2.961764223176     1.503499002116    -0.460509999138     1.007825032230
         H           -3.840068223176    -0.049258997884    -0.533780999138     1.007825032230
         H           -3.430528223176     0.679028002116     1.045435000862     1.007825032230
         H            1.347922776824     2.988480002116    -0.025384999138     1.007825032230
         H            3.609502776824    -0.873580997884    -0.193176999138     1.007825032230
         H            2.441589776824    -2.141663997884    -0.201364999138     1.007825032230

  Basis Set: AUG-CC-PVTZ
    Blend: AUG-CC-PVTZ
  Basis Set: (AUG-CC-PVTZ AUX)
    Blend: AUG-CC-PVTZ-JKFIT
	 Reference Energy          =    -503.7243480046267905 [Eh]
	 Singles Energy            =      -0.0000000000000000 [Eh]
	 Same-Spin Energy          =      -0.5493714031079980 [Eh]
	 Opposite-Spin Energy      =      -1.6330593769876209 [Eh]
	 Correlation Energy        =      -2.1824307800956189 [Eh]
	 Total Energy              =    -505.9067787847224054 [Eh]

	 ================> DF-SCS-MP2 Energies <==================
	-----------------------------------------------------------
	 SCS Same-Spin Scale       =       0.3333333333333333 [-]
	 SCS Opposite-Spin Scale   =       1.2000000000000000 [-]
	 SCS Same-Spin Energy      =      -0.1831238010359993 [Eh]
	 SCS Opposite-Spin Energy  =      -1.9596712523851449 [Eh]
	 SCS Correlation Energy    =      -2.1427950534211444 [Eh]
	 SCS Total Energy          =    -505.8671430580479296 [Eh]
	-----------------------------------------------------------

  Dipole Moment: [D]
     X:    -2.6373      Y:    -1.2060      Z:    -0.7129     Total:     2.9863

*** Psi4 exiting successfully. Buy a developer a beer!
