                               Psi4 1.3.2 release

  ==> Input File <==

--------------------------------------------------------------------------
#psi4
#
memory 32 gb

molecule  {
0 1
  N       -1.7893040    -0.1617730    -0.0001110
  N       -0.2713240    -1.8496560    -0.0082220
  N       -0.2672930     1.7497910     0.0010540
  N        2.0983790     1.0240024    -0.0050378
  N        2.7587103    -1.1611229     0.0796717
  C       -0.5487760     0.4359060     0.0048010
  C        0.3666280    -0.6257540     0.0082110
  C       -1.5569310    -1.5157420    -0.0063070
  C        1.7257650    -0.2653140     0.0014880
  C       -3.0654680     0.5328540     0.0028660
  C        1.0578830     1.9506280    -0.0091420
  H       -2.3786350    -2.2235800    -0.0126570
  H       -3.1454970     1.1693440    -0.8801020
  H       -3.8626160    -0.2117770    -0.0066990
  H       -3.1511970     1.1523310     0.8973960
  H        1.3824760     2.9891980    -0.0128990
  H        3.6364610    -0.8630510    -0.2195510
  H        2.4794860    -2.1327440    -0.2212610
units angstrom
no_reorient  #important for SAPT in psi4, default
symmetry c1  #important for SAPT in psi4, default
}

set PROPERTIES_ORIGIN ["COM"]
properties('MP2/aug-cc-pvtz', properties = ['dipole'])
--------------------------------------------------------------------------

    Molecular point group: c1
  Charge       = 0
  Multiplicity = 1
  Basis Set: AUG-CC-PVTZ
    Blend: AUG-CC-PVTZ
  Basis Set: (AUG-CC-PVTZ AUX)
    Blend: AUG-CC-PVTZ-JKFIT

    Orbital Energies [Eh]
    ---------------------

    Doubly Occupied:

       1A    -15.634838     2A    -15.577921     3A    -15.568995
       4A    -15.564759     5A    -15.555769     6A    -11.333045
       7A    -11.322919     8A    -11.316709     9A    -11.315036
      10A    -11.289892    11A    -11.254240    12A     -1.368712
      13A     -1.292666    14A     -1.242770    15A     -1.197992
      16A     -1.145697    17A     -1.031440    18A     -0.987298
      19A     -0.887379    20A     -0.874179    21A     -0.803817
      22A     -0.749576    23A     -0.726677    24A     -0.684904
      25A     -0.667810    26A     -0.662582    27A     -0.622343
      28A     -0.607178    29A     -0.595390    30A     -0.589585
      31A     -0.570894    32A     -0.535910    33A     -0.495005
      34A     -0.494460    35A     -0.455097    36A     -0.414958
      37A     -0.410276    38A     -0.366625    39A     -0.309289

  @DF-RHF Final Energy:  -503.71692653598086

   => Energetics <=

    Nuclear Repulsion Energy =            593.2102532284562812
    One-Electron Energy =               -1860.8050990075157642
    Two-Electron Energy =                 763.8779192430787361
    Total Energy =                       -503.7169265359808605
  Basis Set: (AUG-CC-PVTZ AUX)
    Blend: AUG-CC-PVTZ-RI
    Molecular point group: c1

    Geometry (in Angstrom), charge = 0, multiplicity = 1:

       Center              X                  Y                   Z               Mass
    ------------   -----------------  -----------------  -----------------  -----------------
         N           -1.830133010010    -0.164764014913    -0.003511011518    14.003074004430
         N           -0.312153010010    -1.852647014913    -0.011622011518    14.003074004430
         N           -0.308122010010     1.746799985087    -0.002346011518    14.003074004430
         N            2.057549989990     1.021011385087    -0.008437811518    14.003074004430
         N            2.717881289990    -1.164113914913     0.076271688482    14.003074004430
         C           -0.589605010010     0.432914985087     0.001400988482    12.000000000000
         C            0.325798989990    -0.628745014913     0.004810988482    12.000000000000
         C           -1.597760010010    -1.518733014913    -0.009707011518    12.000000000000
         C            1.684935989990    -0.268305014913    -0.001912011518    12.000000000000
         C           -3.106297010010     0.529862985087    -0.000534011518    12.000000000000
         C            1.017053989990     1.947636985087    -0.012542011518    12.000000000000
         H           -2.419464010010    -2.226571014913    -0.016057011518     1.007825032230
         H           -3.186326010010     1.166352985087    -0.883502011518     1.007825032230
         H           -3.903445010010    -0.214768014913    -0.010099011518     1.007825032230
         H           -3.192026010010     1.149339985087     0.893995988482     1.007825032230
         H            1.341646989990     2.986206985087    -0.016299011518     1.007825032230
         H            3.595631989990    -0.866042014913    -0.222951011518     1.007825032230
         H            2.438656989990    -2.135735014913    -0.224661011518     1.007825032230

  Basis Set: AUG-CC-PVTZ
    Blend: AUG-CC-PVTZ
  Basis Set: (AUG-CC-PVTZ AUX)
    Blend: AUG-CC-PVTZ-JKFIT
	 Reference Energy          =    -503.7169265359808605 [Eh]
	 Singles Energy            =      -0.0000000000000000 [Eh]
	 Same-Spin Energy          =      -0.5495391848318614 [Eh]
	 Opposite-Spin Energy      =      -1.6346031535920043 [Eh]
	 Correlation Energy        =      -2.1841423384238654 [Eh]
	 Total Energy              =    -505.9010688744047002 [Eh]

	 ================> DF-SCS-MP2 Energies <==================
	-----------------------------------------------------------
	 SCS Same-Spin Scale       =       0.3333333333333333 [-]
	 SCS Opposite-Spin Scale   =       1.2000000000000000 [-]
	 SCS Same-Spin Energy      =      -0.1831797282772871 [Eh]
	 SCS Opposite-Spin Energy  =      -1.9615237843104050 [Eh]
	 SCS Correlation Energy    =      -2.1447035125876921 [Eh]
	 SCS Total Energy          =    -505.8616300485685429 [Eh]
	-----------------------------------------------------------

  Dipole Moment: [D]
     X:    -2.9400      Y:    -1.1272      Z:    -0.7947     Total:     3.2474

*** Psi4 exiting successfully. Buy a developer a beer!
