                               Psi4 1.3.2 release

  ==> Input File <==

--------------------------------------------------------------------------
#psi4
#
memory 32 gb

molecule  {
0 1
  N       -1.7893040    -0.1617730    -0.0001110
  N       -0.2498668    -1.8606057    -0.0080423
  N       -0.2672930     1.7497910     0.0010540
  N        2.0532340     1.0361840    -0.0078740
  N        2.7268170    -1.1967150     0.0786200
  C       -0.5301103     0.4517195     0.0051387
  C        0.3666280    -0.6257540     0.0082110
  C       -1.5569310    -1.5157420    -0.0063070
  C        1.7257650    -0.2653140     0.0014880
  C       -3.0654680     0.5328540     0.0028660
  C        1.0578830     1.9506280    -0.0091420
  H       -2.3786350    -2.2235800    -0.0126570
  H       -3.1454970     1.1693440    -0.8801020
  H       -3.8626160    -0.2117770    -0.0066990
  H       -3.1511970     1.1523310     0.8973960
  H        1.3824760     2.9891980    -0.0128990
  H        3.6364610    -0.8630510    -0.2195510
  H        2.4794860    -2.1327440    -0.2212610
units angstrom
no_reorient  #important for SAPT in psi4, default
symmetry c1  #important for SAPT in psi4, default
}

set PROPERTIES_ORIGIN ["COM"]
properties('MP2/aug-cc-pvtz', properties = ['dipole'])
--------------------------------------------------------------------------

    Molecular point group: c1
  Charge       = 0
  Multiplicity = 1
  Basis Set: AUG-CC-PVTZ
    Blend: AUG-CC-PVTZ
  Basis Set: (AUG-CC-PVTZ AUX)
    Blend: AUG-CC-PVTZ-JKFIT

    Orbital Energies [Eh]
    ---------------------

    Doubly Occupied:

       1A    -15.633618     2A    -15.580368     3A    -15.569185
       4A    -15.561841     5A    -15.553824     6A    -11.333243
       7A    -11.326878     8A    -11.313701     9A    -11.312334
      10A    -11.288283    11A    -11.252763    12A     -1.361898
      13A     -1.297107    14A     -1.245050    15A     -1.192325
      16A     -1.154880    17A     -1.029245    18A     -0.984728
      19A     -0.889546    20A     -0.873136    21A     -0.803217
      22A     -0.753519    23A     -0.721921    24A     -0.680674
      25A     -0.672035    26A     -0.663924    27A     -0.624237
      28A     -0.605762    29A     -0.596167    30A     -0.591263
      31A     -0.567252    32A     -0.534304    33A     -0.497709
      34A     -0.495466    35A     -0.452961    36A     -0.413796
      37A     -0.408937    38A     -0.371475    39A     -0.304471

  @DF-RHF Final Energy:  -503.72073008140433

   => Energetics <=

    Nuclear Repulsion Energy =            593.8648420461787509
    One-Electron Energy =               -1862.1450609463377077
    Two-Electron Energy =                 764.5594888187547440
    Total Energy =                       -503.7207300814043265
  Basis Set: (AUG-CC-PVTZ AUX)
    Blend: AUG-CC-PVTZ-RI
    Molecular point group: c1

    Geometry (in Angstrom), charge = 0, multiplicity = 1:

       Center              X                  Y                   Z               Mass
    ------------   -----------------  -----------------  -----------------  -----------------
         N           -1.826414506512    -0.162809321551    -0.003189862042    14.003074004430
         N           -0.286977306512    -1.861642021551    -0.011121162042    14.003074004430
         N           -0.304403506512     1.748754678449    -0.002024862042    14.003074004430
         N            2.016123493488     1.035147678449    -0.010952862042    14.003074004430
         N            2.689706493488    -1.197751321551     0.075541137958    14.003074004430
         C           -0.567220806512     0.450683178449     0.002059837958    12.000000000000
         C            0.329517493488    -0.626790321551     0.005132137958    12.000000000000
         C           -1.594041506512    -1.516778321551    -0.009385862042    12.000000000000
         C            1.688654493488    -0.266350321551    -0.001590862042    12.000000000000
         C           -3.102578506512     0.531817678449    -0.000212862042    12.000000000000
         C            1.020772493488     1.949591678449    -0.012220862042    12.000000000000
         H           -2.415745506512    -2.224616321551    -0.015735862042     1.007825032230
         H           -3.182607506512     1.168307678449    -0.883180862042     1.007825032230
         H           -3.899726506512    -0.212813321551    -0.009777862042     1.007825032230
         H           -3.188307506512     1.151294678449     0.894317137958     1.007825032230
         H            1.345365493488     2.988161678449    -0.015977862042     1.007825032230
         H            3.599350493488    -0.864087321551    -0.222629862042     1.007825032230
         H            2.442375493488    -2.133780321551    -0.224339862042     1.007825032230

  Basis Set: AUG-CC-PVTZ
    Blend: AUG-CC-PVTZ
  Basis Set: (AUG-CC-PVTZ AUX)
    Blend: AUG-CC-PVTZ-JKFIT
	 Reference Energy          =    -503.7207300814043265 [Eh]
	 Singles Energy            =      -0.0000000000000000 [Eh]
	 Same-Spin Energy          =      -0.5500828804615951 [Eh]
	 Opposite-Spin Energy      =      -1.6346467753027649 [Eh]
	 Correlation Energy        =      -2.1847296557643601 [Eh]
	 Total Energy              =    -505.9054597371687123 [Eh]

	 ================> DF-SCS-MP2 Energies <==================
	-----------------------------------------------------------
	 SCS Same-Spin Scale       =       0.3333333333333333 [-]
	 SCS Opposite-Spin Scale   =       1.2000000000000000 [-]
	 SCS Same-Spin Energy      =      -0.1833609601538650 [Eh]
	 SCS Opposite-Spin Energy  =      -1.9615761303633179 [Eh]
	 SCS Correlation Energy    =      -2.1449370905171827 [Eh]
	 SCS Total Energy          =    -505.8656671719215296 [Eh]
	-----------------------------------------------------------

  Dipole Moment: [D]
     X:    -2.7108      Y:    -1.0636      Z:    -0.7885     Total:     3.0169

*** Psi4 exiting successfully. Buy a developer a beer!
