                               Psi4 1.3.2 release

  ==> Input File <==

--------------------------------------------------------------------------
#psi4
#
memory 32 gb

molecule  {
0 1
  N       -1.7893040    -0.1617730    -0.0001110
  N       -0.2713240    -1.8496560    -0.0082220
  N       -0.2672930     1.7497910     0.0010540
  N        2.0532340     1.0361840    -0.0078740
  N        2.7268170    -1.1967150     0.0786200
  C       -0.5487760     0.4359060     0.0048010
  C        0.3878928    -0.6370738     0.0081068
  C       -1.5625628    -1.5382279    -0.0065982
  C        1.7257650    -0.2653140     0.0014880
  C       -3.0654680     0.5328540     0.0028660
  C        1.0578830     1.9506280    -0.0091420
  H       -2.3786350    -2.2235800    -0.0126570
  H       -3.1454970     1.1693440    -0.8801020
  H       -3.8626160    -0.2117770    -0.0066990
  H       -3.1511970     1.1523310     0.8973960
  H        1.3824760     2.9891980    -0.0128990
  H        3.6364610    -0.8630510    -0.2195510
  H        2.4794860    -2.1327440    -0.2212610
units angstrom
no_reorient  #important for SAPT in psi4, default
symmetry c1  #important for SAPT in psi4, default
}

set PROPERTIES_ORIGIN ["COM"]
properties('MP2/aug-cc-pvtz', properties = ['dipole'])
--------------------------------------------------------------------------

    Molecular point group: c1
  Charge       = 0
  Multiplicity = 1
  Basis Set: AUG-CC-PVTZ
    Blend: AUG-CC-PVTZ
  Basis Set: (AUG-CC-PVTZ AUX)
    Blend: AUG-CC-PVTZ-JKFIT

    Orbital Energies [Eh]
    ---------------------

    Doubly Occupied:

       1A    -15.632785     2A    -15.579138     3A    -15.569903
       4A    -15.561051     5A    -15.552411     6A    -11.332249
       7A    -11.323901     8A    -11.317096     9A    -11.312365
      10A    -11.287876    11A    -11.252701    12A     -1.362135
      13A     -1.295465    14A     -1.242430    15A     -1.195232
      16A     -1.151455    17A     -1.031307    18A     -0.984144
      19A     -0.892415    20A     -0.872909    21A     -0.801368
      22A     -0.752999    23A     -0.724348    24A     -0.679070
      25A     -0.674602    26A     -0.663687    27A     -0.628461
      28A     -0.606051    29A     -0.598819    30A     -0.591983
      31A     -0.571853    32A     -0.534828    33A     -0.496073
      34A     -0.491689    35A     -0.448759    36A     -0.414624
      37A     -0.407983    38A     -0.366357    39A     -0.308358

  @DF-RHF Final Energy:  -503.72255901892987

   => Energetics <=

    Nuclear Repulsion Energy =            593.6113151674342134
    One-Electron Energy =               -1861.6459823682835122
    Two-Electron Energy =                 764.3121081819194842
    Total Energy =                       -503.7225590189298146
  Basis Set: (AUG-CC-PVTZ AUX)
    Blend: AUG-CC-PVTZ-RI
    Molecular point group: c1

    Geometry (in Angstrom), charge = 0, multiplicity = 1:

       Center              X                  Y                   Z               Mass
    ------------   -----------------  -----------------  -----------------  -----------------
         N           -1.824154770607    -0.159843597329    -0.003113967889    14.003074004430
         N           -0.306174770607    -1.847726597329    -0.011224967889    14.003074004430
         N           -0.302143770607     1.751720402671    -0.001948967889    14.003074004430
         N            2.018383229393     1.038113402671    -0.010876967889    14.003074004430
         N            2.691966229393    -1.194785597329     0.075617032111    14.003074004430
         C           -0.583626770607     0.437835402671     0.001798032111    12.000000000000
         C            0.353042029393    -0.635144397329     0.005103832111    12.000000000000
         C           -1.597413570607    -1.536298497329    -0.009601167889    12.000000000000
         C            1.690914229393    -0.263384597329    -0.001514967889    12.000000000000
         C           -3.100318770607     0.534783402671    -0.000136967889    12.000000000000
         C            1.023032229393     1.952557402671    -0.012144967889    12.000000000000
         H           -2.413485770607    -2.221650597329    -0.015659967889     1.007825032230
         H           -3.180347770607     1.171273402671    -0.883104967889     1.007825032230
         H           -3.897466770607    -0.209847597329    -0.009701967889     1.007825032230
         H           -3.186047770607     1.154260402671     0.894393032111     1.007825032230
         H            1.347625229393     2.991127402671    -0.015901967889     1.007825032230
         H            3.601610229393    -0.861121597329    -0.222553967889     1.007825032230
         H            2.444635229393    -2.130814597329    -0.224263967889     1.007825032230

  Basis Set: AUG-CC-PVTZ
    Blend: AUG-CC-PVTZ
  Basis Set: (AUG-CC-PVTZ AUX)
    Blend: AUG-CC-PVTZ-JKFIT
	 Reference Energy          =    -503.7225590189298714 [Eh]
	 Singles Energy            =      -0.0000000000000000 [Eh]
	 Same-Spin Energy          =      -0.5493637627306838 [Eh]
	 Opposite-Spin Energy      =      -1.6335038062089358 [Eh]
	 Correlation Energy        =      -2.1828675689396198 [Eh]
	 Total Energy              =    -505.9054265878694991 [Eh]

	 ================> DF-SCS-MP2 Energies <==================
	-----------------------------------------------------------
	 SCS Same-Spin Scale       =       0.3333333333333333 [-]
	 SCS Opposite-Spin Scale   =       1.2000000000000000 [-]
	 SCS Same-Spin Energy      =      -0.1831212542435612 [Eh]
	 SCS Opposite-Spin Energy  =      -1.9602045674507229 [Eh]
	 SCS Correlation Energy    =      -2.1433258216942841 [Eh]
	 SCS Total Energy          =    -505.8658848406241759 [Eh]
	-----------------------------------------------------------

  Dipole Moment: [D]
     X:    -2.7610      Y:    -1.1898      Z:    -0.7906     Total:     3.1086

*** Psi4 exiting successfully. Buy a developer a beer!
