                               Psi4 1.3.2 release

  ==> Input File <==

--------------------------------------------------------------------------
#psi4
#
memory 32 gb

molecule  {
0 1
  N       -1.7893040    -0.1617730    -0.0001110
  N       -0.2713240    -1.8496560    -0.0082220
  N       -0.2672930     1.7497910     0.0010540
  N        2.0532340     1.0361840    -0.0078740
  N        2.7268170    -1.1967150     0.0786200
  C       -0.5385337     0.4141649     0.0047121
  C        0.3666280    -0.6257540     0.0082110
  C       -1.5333362    -1.5114805    -0.0062481
  C        1.7257650    -0.2653140     0.0014880
  C       -3.0654680     0.5328540     0.0028660
  C        1.0578830     1.9506280    -0.0091420
  H       -2.3786350    -2.2235800    -0.0126570
  H       -3.1454970     1.1693440    -0.8801020
  H       -3.8626160    -0.2117770    -0.0066990
  H       -3.1511970     1.1523310     0.8973960
  H        1.3824760     2.9891980    -0.0128990
  H        3.6364610    -0.8630510    -0.2195510
  H        2.4794860    -2.1327440    -0.2212610
units angstrom
no_reorient  #important for SAPT in psi4, default
symmetry c1  #important for SAPT in psi4, default
}

set PROPERTIES_ORIGIN ["COM"]
properties('MP2/aug-cc-pvtz', properties = ['dipole'])
--------------------------------------------------------------------------

    Molecular point group: c1
  Charge       = 0
  Multiplicity = 1
  Basis Set: AUG-CC-PVTZ
    Blend: AUG-CC-PVTZ
  Basis Set: (AUG-CC-PVTZ AUX)
    Blend: AUG-CC-PVTZ-JKFIT

    Orbital Energies [Eh]
    ---------------------

    Doubly Occupied:

       1A    -15.631100     2A    -15.582286     3A    -15.565582
       4A    -15.560772     5A    -15.551313     6A    -11.335931
       7A    -11.321513     8A    -11.311234     9A    -11.310715
      10A    -11.289268    11A    -11.250395    12A     -1.371396
      13A     -1.295788    14A     -1.241140    15A     -1.201149
      16A     -1.149281    17A     -1.035348    18A     -0.986982
      19A     -0.888103    20A     -0.870668    21A     -0.804180
      22A     -0.753353    23A     -0.723218    24A     -0.679890
      25A     -0.671998    26A     -0.666951    27A     -0.624197
      28A     -0.607329    29A     -0.596257    30A     -0.590441
      31A     -0.571168    32A     -0.538754    33A     -0.494160
      34A     -0.492787    35A     -0.450950    36A     -0.414984
      37A     -0.409487    38A     -0.367453    39A     -0.312897

  @DF-RHF Final Energy:  -503.72516549048169

   => Energetics <=

    Nuclear Repulsion Energy =            594.9876215747576680
    One-Electron Energy =               -1864.3847419261821869
    Two-Electron Energy =                 765.6719548609428330
    Total Energy =                       -503.7251654904816860
  Basis Set: (AUG-CC-PVTZ AUX)
    Blend: AUG-CC-PVTZ-RI
    Molecular point group: c1

    Geometry (in Angstrom), charge = 0, multiplicity = 1:

       Center              X                  Y                   Z               Mass
    ------------   -----------------  -----------------  -----------------  -----------------
         N           -1.825620182743    -0.161157832313    -0.003143382230    14.003074004430
         N           -0.307640182743    -1.849040832313    -0.011254382230    14.003074004430
         N           -0.303609182743     1.750406167687    -0.001978382230    14.003074004430
         N            2.016917817257     1.036799167687    -0.010906382230    14.003074004430
         N            2.690500817257    -1.196099832313     0.075587617770    14.003074004430
         C           -0.574849882743     0.414780067687     0.001679717770    12.000000000000
         C            0.330311817257    -0.625138832313     0.005178617770    12.000000000000
         C           -1.569652382743    -1.510865332313    -0.009280482230    12.000000000000
         C            1.689448817257    -0.264698832313    -0.001544382230    12.000000000000
         C           -3.101784182743     0.533469167687    -0.000166382230    12.000000000000
         C            1.021566817257     1.951243167687    -0.012174382230    12.000000000000
         H           -2.414951182743    -2.222964832313    -0.015689382230     1.007825032230
         H           -3.181813182743     1.169959167687    -0.883134382230     1.007825032230
         H           -3.898932182743    -0.211161832313    -0.009731382230     1.007825032230
         H           -3.187513182743     1.152946167687     0.894363617770     1.007825032230
         H            1.346159817257     2.989813167687    -0.015931382230     1.007825032230
         H            3.600144817257    -0.862435832313    -0.222583382230     1.007825032230
         H            2.443169817257    -2.132128832313    -0.224293382230     1.007825032230

  Basis Set: AUG-CC-PVTZ
    Blend: AUG-CC-PVTZ
  Basis Set: (AUG-CC-PVTZ AUX)
    Blend: AUG-CC-PVTZ-JKFIT
	 Reference Energy          =    -503.7251654904816860 [Eh]
	 Singles Energy            =      -0.0000000000000000 [Eh]
	 Same-Spin Energy          =      -0.5484473275353632 [Eh]
	 Opposite-Spin Energy      =      -1.6320845096465066 [Eh]
	 Correlation Energy        =      -2.1805318371818698 [Eh]
	 Total Energy              =    -505.9056973276635745 [Eh]

	 ================> DF-SCS-MP2 Energies <==================
	-----------------------------------------------------------
	 SCS Same-Spin Scale       =       0.3333333333333333 [-]
	 SCS Opposite-Spin Scale   =       1.2000000000000000 [-]
	 SCS Same-Spin Energy      =      -0.1828157758451210 [Eh]
	 SCS Opposite-Spin Energy  =      -1.9585014115758079 [Eh]
	 SCS Correlation Energy    =      -2.1413171874209289 [Eh]
	 SCS Total Energy          =    -505.8664826779026384 [Eh]
	-----------------------------------------------------------

  Dipole Moment: [D]
     X:    -2.6824      Y:    -1.1944      Z:    -0.7887     Total:     3.0404

*** Psi4 exiting successfully. Buy a developer a beer!
