                               Psi4 1.3.2 release

  ==> Input File <==

--------------------------------------------------------------------------
#psi4
#
memory 32 gb

molecule  {
0 1
  N       -1.7893040    -0.1617730    -0.0001110
  N       -0.2713240    -1.8496560    -0.0082220
  N       -0.2672930     1.7497910     0.0010540
  N        2.0532340     1.0361840    -0.0078740
  N        2.7103568    -1.2140192     0.0795888
  C       -0.5487760     0.4359060     0.0048010
  C        0.3731183    -0.6493601     0.0099159
  C       -1.5569310    -1.5157420    -0.0063070
  C        1.7257650    -0.2653140     0.0014880
  C       -3.0654680     0.5328540     0.0028660
  C        1.0578830     1.9506280    -0.0091420
  H       -2.3786350    -2.2235800    -0.0126570
  H       -3.1454970     1.1693440    -0.8801020
  H       -3.8626160    -0.2117770    -0.0066990
  H       -3.1511970     1.1523310     0.8973960
  H        1.3824760     2.9891980    -0.0128990
  H        3.6364610    -0.8630510    -0.2195510
  H        2.4794860    -2.1327440    -0.2212610
units angstrom
no_reorient  #important for SAPT in psi4, default
symmetry c1  #important for SAPT in psi4, default
}

set PROPERTIES_ORIGIN ["COM"]
properties('MP2/aug-cc-pvtz', properties = ['dipole'])
--------------------------------------------------------------------------

    Molecular point group: c1
  Charge       = 0
  Multiplicity = 1
  Basis Set: AUG-CC-PVTZ
    Blend: AUG-CC-PVTZ
  Basis Set: (AUG-CC-PVTZ AUX)
    Blend: AUG-CC-PVTZ-JKFIT

    Orbital Energies [Eh]
    ---------------------

    Doubly Occupied:

       1A    -15.634324     2A    -15.579869     3A    -15.567085
       4A    -15.561275     5A    -15.553366     6A    -11.333972
       7A    -11.322387     8A    -11.314366     9A    -11.311992
      10A    -11.289101    11A    -11.252803    12A     -1.368013
      13A     -1.295621    14A     -1.243203    15A     -1.199474
      16A     -1.152568    17A     -1.028341    18A     -0.987152
      19A     -0.891224    20A     -0.872697    21A     -0.800564
      22A     -0.753472    23A     -0.726018    24A     -0.678600
      25A     -0.675893    26A     -0.666348    27A     -0.626642
      28A     -0.602580    29A     -0.597267    30A     -0.590802
      31A     -0.571557    32A     -0.536917    33A     -0.496401
      34A     -0.493218    35A     -0.451523    36A     -0.415686
      37A     -0.407555    38A     -0.368597    39A     -0.304231

  @DF-RHF Final Energy:  -503.72219639643578

   => Energetics <=

    Nuclear Repulsion Energy =            594.2098015302060503
    One-Electron Energy =               -1862.8185827528013760
    Two-Electron Energy =                 764.8865848261594920
    Total Energy =                       -503.7221963964358338
  Basis Set: (AUG-CC-PVTZ AUX)
    Blend: AUG-CC-PVTZ-RI
    Molecular point group: c1

    Geometry (in Angstrom), charge = 0, multiplicity = 1:

       Center              X                  Y                   Z               Mass
    ------------   -----------------  -----------------  -----------------  -----------------
         N           -1.821872584606    -0.159039165342    -0.003374045305    14.003074004430
         N           -0.303892584606    -1.846922165342    -0.011485045305    14.003074004430
         N           -0.299861584606     1.752524834658    -0.002209045305    14.003074004430
         N            2.020665415394     1.038917834658    -0.011137045305    14.003074004430
         N            2.677788215394    -1.211285365342     0.076325754695    14.003074004430
         C           -0.581344584606     0.438639834658     0.001537954695    12.000000000000
         C            0.340549715394    -0.646626265342     0.006652854695    12.000000000000
         C           -1.589499584606    -1.513008165342    -0.009570045305    12.000000000000
         C            1.693196415394    -0.262580165342    -0.001775045305    12.000000000000
         C           -3.098036584606     0.535587834658    -0.000397045305    12.000000000000
         C            1.025314415394     1.953361834658    -0.012405045305    12.000000000000
         H           -2.411203584606    -2.220846165342    -0.015920045305     1.007825032230
         H           -3.178065584606     1.172077834658    -0.883365045305     1.007825032230
         H           -3.895184584606    -0.209043165342    -0.009962045305     1.007825032230
         H           -3.183765584606     1.155064834658     0.894132954695     1.007825032230
         H            1.349907415394     2.991931834658    -0.016162045305     1.007825032230
         H            3.603892415394    -0.860317165342    -0.222814045305     1.007825032230
         H            2.446917415394    -2.130010165342    -0.224524045305     1.007825032230

  Basis Set: AUG-CC-PVTZ
    Blend: AUG-CC-PVTZ
  Basis Set: (AUG-CC-PVTZ AUX)
    Blend: AUG-CC-PVTZ-JKFIT
	 Reference Energy          =    -503.7221963964357769 [Eh]
	 Singles Energy            =      -0.0000000000000000 [Eh]
	 Same-Spin Energy          =      -0.5498365561436320 [Eh]
	 Opposite-Spin Energy      =      -1.6336237654871897 [Eh]
	 Correlation Energy        =      -2.1834603216308217 [Eh]
	 Total Energy              =    -505.9056567180666093 [Eh]

	 ================> DF-SCS-MP2 Energies <==================
	-----------------------------------------------------------
	 SCS Same-Spin Scale       =       0.3333333333333333 [-]
	 SCS Opposite-Spin Scale   =       1.2000000000000000 [-]
	 SCS Same-Spin Energy      =      -0.1832788520478773 [Eh]
	 SCS Opposite-Spin Energy  =      -1.9603485185846274 [Eh]
	 SCS Correlation Energy    =      -2.1436273706325046 [Eh]
	 SCS Total Energy          =    -505.8658237670682638 [Eh]
	-----------------------------------------------------------

  Dipole Moment: [D]
     X:    -2.7721      Y:    -1.1461      Z:    -0.7901     Total:     3.1020

*** Psi4 exiting successfully. Buy a developer a beer!
