                               Psi4 1.4a3.dev225

  ==> Input File <==

--------------------------------------------------------------------------
#psi4
#
memory 32 gb

molecule  {
0 1
  N       -1.7889380    -0.1640290    -0.0179520
  N       -0.2703210    -1.8482040    -0.0023970
  N       -0.2671710     1.7490810    -0.0033560
  N        2.0541740     1.0368940    -0.0085470
  N        2.7206340    -1.1973270     0.0732090
  C       -0.5486140     0.4351420     0.0045870
  C        0.3650590    -0.6247560     0.0169900
  C       -1.5085152    -1.5286220    -0.0157519
  C        1.7266360    -0.2641570     0.0048060
  C       -3.0641060     0.5324820     0.0177850
  C        1.0564750     1.9508360    -0.0110870
  H       -2.3762040    -2.2259510    -0.0342240
  H       -2.9284720     1.5041700    -0.4579320
  H       -3.8067760    -0.0485880    -0.5312030
  H       -3.3972360     0.6796990     1.0480130
  H        1.3812150     2.9891510    -0.0228070
  H        3.6427950    -0.8729100    -0.1905990
  H        2.4748820    -2.1409930    -0.1987870
units angstrom
no_reorient  #important for SAPT in psi4, default
symmetry c1  #important for SAPT in psi4, default
}

set PROPERTIES_ORIGIN ["COM"]
properties('MP2/aug-cc-pvtz', properties = ['dipole'])
--------------------------------------------------------------------------

    Molecular point group: c1
  Charge       = 0
  Multiplicity = 1
  Basis Set: AUG-CC-PVTZ
    Blend: AUG-CC-PVTZ
  Basis Set: (AUG-CC-PVTZ AUX)
    Blend: AUG-CC-PVTZ-JKFIT

    Orbital Energies [Eh]
    ---------------------

    Doubly Occupied:

       1A    -15.626777     2A    -15.581426     3A    -15.566447
       4A    -15.559078     5A    -15.550932     6A    -11.334689
       7A    -11.319722     8A    -11.313279     9A    -11.312082
      10A    -11.285860    11A    -11.250440    12A     -1.369493
      13A     -1.295911    14A     -1.246014    15A     -1.204231
      16A     -1.151082    17A     -1.033291    18A     -0.982752
      19A     -0.885869    20A     -0.872778    21A     -0.800705
      22A     -0.753629    23A     -0.723984    24A     -0.680110
      25A     -0.673902    26A     -0.664777    27A     -0.626970
      28A     -0.602313    29A     -0.595546    30A     -0.591250
      31A     -0.570130    32A     -0.538640    33A     -0.497496
      34A     -0.491699    35A     -0.451350    36A     -0.417135
      37A     -0.408659    38A     -0.365264    39A     -0.311920

  @DF-RHF Final Energy:  -503.72525369587947

   => Energetics <=

    Nuclear Repulsion Energy =            595.1939700364513328
    One-Electron Energy =               -1864.8231877095734035
    Two-Electron Energy =                 765.9039639772427108
    Total Energy =                       -503.7252536958794735
  Basis Set: (AUG-CC-PVTZ AUX)
    Blend: AUG-CC-PVTZ-RI
    Molecular point group: c1

    Geometry (in Angstrom), charge = 0, multiplicity = 1:

       Center              X                  Y                   Z               Mass
    ------------   -----------------  -----------------  -----------------  -----------------
         N           -1.826229424788    -0.163782691237    -0.020574266157    14.003074004430
         N           -0.307612424788    -1.847957691237    -0.005019266157    14.003074004430
         N           -0.304462424788     1.749327308763    -0.005978266157    14.003074004430
         N            2.016882575212     1.037140308763    -0.011169266157    14.003074004430
         N            2.683342575212    -1.197080691237     0.070586733843    14.003074004430
         C           -0.585905424788     0.435388308763     0.001964733843    12.000000000000
         C            0.327767575212    -0.624509691237     0.014367733843    12.000000000000
         C           -1.545806624788    -1.528375691237    -0.018374166157    12.000000000000
         C            1.689344575212    -0.263910691237     0.002183733843    12.000000000000
         C           -3.101397424788     0.532728308763     0.015162733843    12.000000000000
         C            1.019183575212     1.951082308763    -0.013709266157    12.000000000000
         H           -2.413495424788    -2.225704691237    -0.036846266157     1.007825032230
         H           -2.965763424788     1.504416308763    -0.460554266157     1.007825032230
         H           -3.844067424788    -0.048341691237    -0.533825266157     1.007825032230
         H           -3.434527424788     0.679945308763     1.045390733843     1.007825032230
         H            1.343923575212     2.989397308763    -0.025429266157     1.007825032230
         H            3.605503575212    -0.872663691237    -0.193221266157     1.007825032230
         H            2.437590575212    -2.140746691237    -0.201409266157     1.007825032230

  Basis Set: AUG-CC-PVTZ
    Blend: AUG-CC-PVTZ
  Basis Set: (AUG-CC-PVTZ AUX)
    Blend: AUG-CC-PVTZ-JKFIT
	 Reference Energy          =    -503.7252536958794735 [Eh]
	 Singles Energy            =      -0.0000000000000000 [Eh]
	 Same-Spin Energy          =      -0.5479939427729810 [Eh]
	 Opposite-Spin Energy      =      -1.6307146104421844 [Eh]
	 Correlation Energy        =      -2.1787085532151655 [Eh]
	 Total Energy              =    -505.9039622490946613 [Eh]

	 ================> DF-SCS-MP2 Energies <==================
	-----------------------------------------------------------
	 SCS Same-Spin Scale       =       0.3333333333333333 [-]
	 SCS Opposite-Spin Scale   =       1.2000000000000000 [-]
	 SCS Same-Spin Energy      =      -0.1826646475909937 [Eh]
	 SCS Opposite-Spin Energy  =      -1.9568575325306212 [Eh]
	 SCS Correlation Energy    =      -2.1395221801216149 [Eh]
	 SCS Total Energy          =    -505.8647758760010902 [Eh]
	-----------------------------------------------------------

  Dipole Moment: [D]
     X:    -2.5500      Y:    -1.3122      Z:    -0.7129     Total:     2.9551

*** Psi4 exiting successfully. Buy a developer a beer!
