                               Psi4 1.4a3.dev225

  ==> Input File <==

--------------------------------------------------------------------------
#psi4
#
memory 32 gb

molecule  {
0 1
  N       -1.7889380    -0.1640290    -0.0179520
  N       -0.2703210    -1.8482040    -0.0023970
  N       -0.2671710     1.7490810    -0.0033560
  N        2.0541740     1.0368940    -0.0085470
  N        2.7206340    -1.1973270     0.0732090
  C       -0.5486140     0.4351420     0.0045870
  C        0.3650590    -0.6247560     0.0169900
  C       -1.5569260    -1.5161270    -0.0162740
  C        1.7749679    -0.2513568     0.0043735
  C       -3.0641060     0.5324820     0.0177850
  C        1.0564750     1.9508360    -0.0110870
  H       -2.3762040    -2.2259510    -0.0342240
  H       -2.9284720     1.5041700    -0.4579320
  H       -3.8067760    -0.0485880    -0.5312030
  H       -3.3972360     0.6796990     1.0480130
  H        1.3812150     2.9891510    -0.0228070
  H        3.6427950    -0.8729100    -0.1905990
  H        2.4748820    -2.1409930    -0.1987870
units angstrom
no_reorient  #important for SAPT in psi4, default
symmetry c1  #important for SAPT in psi4, default
}

set PROPERTIES_ORIGIN ["COM"]
properties('MP2/aug-cc-pvtz', properties = ['dipole'])
--------------------------------------------------------------------------

    Molecular point group: c1
  Charge       = 0
  Multiplicity = 1
  Basis Set: AUG-CC-PVTZ
    Blend: AUG-CC-PVTZ
  Basis Set: (AUG-CC-PVTZ AUX)
    Blend: AUG-CC-PVTZ-JKFIT

    Orbital Energies [Eh]
    ---------------------

    Doubly Occupied:

       1A    -15.629673     2A    -15.586310     3A    -15.565329
       4A    -15.559196     5A    -15.549309     6A    -11.337839
       7A    -11.316757     8A    -11.312375     9A    -11.307036
      10A    -11.285163    11A    -11.251828    12A     -1.364320
      13A     -1.301087    14A     -1.247570    15A     -1.196057
      16A     -1.157768    17A     -1.023488    18A     -0.981210
      19A     -0.890406    20A     -0.867533    21A     -0.802627
      22A     -0.755363    23A     -0.729046    24A     -0.681223
      25A     -0.678866    26A     -0.663514    27A     -0.628351
      28A     -0.601759    29A     -0.594626    30A     -0.589184
      31A     -0.569340    32A     -0.540551    33A     -0.496901
      34A     -0.489058    35A     -0.448449    36A     -0.412462
      37A     -0.404739    38A     -0.368842    39A     -0.301176

  @DF-RHF Final Energy:  -503.72200298314920

   => Energetics <=

    Nuclear Repulsion Energy =            594.1977570868837120
    One-Electron Energy =               -1862.8668567108095431
    Two-Electron Energy =                 764.9470966407766355
    Total Energy =                       -503.7220029831491956
  Basis Set: (AUG-CC-PVTZ AUX)
    Blend: AUG-CC-PVTZ-RI
    Molecular point group: c1

    Geometry (in Angstrom), charge = 0, multiplicity = 1:

       Center              X                  Y                   Z               Mass
    ------------   -----------------  -----------------  -----------------  -----------------
         N           -1.826223073416    -0.165818929946    -0.020497421796    14.003074004430
         N           -0.307606073416    -1.849993929946    -0.004942421796    14.003074004430
         N           -0.304456073416     1.747291070054    -0.005901421796    14.003074004430
         N            2.016888926584     1.035104070054    -0.011092421796    14.003074004430
         N            2.683348926584    -1.199116929946     0.070663578204    14.003074004430
         C           -0.585899073416     0.433352070054     0.002041578204    12.000000000000
         C            0.327773926584    -0.626545929946     0.014444578204    12.000000000000
         C           -1.594211073416    -1.517916929946    -0.018819421796    12.000000000000
         C            1.737682826584    -0.253146729946     0.001828078204    12.000000000000
         C           -3.101391073416     0.530692070054     0.015239578204    12.000000000000
         C            1.019189926584     1.949046070054    -0.013632421796    12.000000000000
         H           -2.413489073416    -2.227740929946    -0.036769421796     1.007825032230
         H           -2.965757073416     1.502380070054    -0.460477421796     1.007825032230
         H           -3.844061073416    -0.050377929946    -0.533748421796     1.007825032230
         H           -3.434521073416     0.677909070054     1.045467578204     1.007825032230
         H            1.343929926584     2.987361070054    -0.025352421796     1.007825032230
         H            3.605509926584    -0.874699929946    -0.193144421796     1.007825032230
         H            2.437596926584    -2.142782929946    -0.201332421796     1.007825032230

  Basis Set: AUG-CC-PVTZ
    Blend: AUG-CC-PVTZ
  Basis Set: (AUG-CC-PVTZ AUX)
    Blend: AUG-CC-PVTZ-JKFIT
	 Reference Energy          =    -503.7220029831491956 [Eh]
	 Singles Energy            =      -0.0000000000000000 [Eh]
	 Same-Spin Energy          =      -0.5494050250431045 [Eh]
	 Opposite-Spin Energy      =      -1.6328103098603632 [Eh]
	 Correlation Energy        =      -2.1822153349034679 [Eh]
	 Total Energy              =    -505.9042183180526422 [Eh]

	 ================> DF-SCS-MP2 Energies <==================
	-----------------------------------------------------------
	 SCS Same-Spin Scale       =       0.3333333333333333 [-]
	 SCS Opposite-Spin Scale   =       1.2000000000000000 [-]
	 SCS Same-Spin Energy      =      -0.1831350083477015 [Eh]
	 SCS Opposite-Spin Energy  =      -1.9593723718324358 [Eh]
	 SCS Correlation Energy    =      -2.1425073801801373 [Eh]
	 SCS Total Energy          =    -505.8645103633293161 [Eh]
	-----------------------------------------------------------

  Dipole Moment: [D]
     X:    -2.3549      Y:    -1.2804      Z:    -0.7080     Total:     2.7725

*** Psi4 exiting successfully. Buy a developer a beer!
