                               Psi4 1.3.2 release

  ==> Input File <==

--------------------------------------------------------------------------
#psi4
#
memory 32 gb

molecule  {
0 1
  N       -1.8188821    -0.0960299    -0.0005582
  N       -0.2713240    -1.8496560    -0.0082220
  N       -0.3364412     1.7627205     0.0005894
  N        2.0532340     1.0361840    -0.0078740
  N        2.7268170    -1.1967150     0.0786200
  C       -0.5487760     0.4359060     0.0048010
  C        0.3666280    -0.6257540     0.0082110
  C       -1.5569310    -1.5157420    -0.0063070
  C        1.7257650    -0.2653140     0.0014880
  C       -3.0654680     0.5328540     0.0028660
  C        1.0578830     1.9506280    -0.0091420
  H       -2.3786350    -2.2235800    -0.0126570
  H       -3.1454970     1.1693440    -0.8801020
  H       -3.8626160    -0.2117770    -0.0066990
  H       -3.1511970     1.1523310     0.8973960
  H        1.3824760     2.9891980    -0.0128990
  H        3.6364610    -0.8630510    -0.2195510
  H        2.4794860    -2.1327440    -0.2212610
units angstrom
no_reorient  #important for SAPT in psi4, default
symmetry c1  #important for SAPT in psi4, default
}

set PROPERTIES_ORIGIN ["COM"]
properties('MP2/aug-cc-pvtz', properties = ['dipole'])
--------------------------------------------------------------------------

    Molecular point group: c1
  Charge       = 0
  Multiplicity = 1
  Basis Set: AUG-CC-PVTZ
    Blend: AUG-CC-PVTZ
  Basis Set: (AUG-CC-PVTZ AUX)
    Blend: AUG-CC-PVTZ-JKFIT

    Orbital Energies [Eh]
    ---------------------

    Doubly Occupied:

       1A    -15.626556     2A    -15.584264     3A    -15.576135
       4A    -15.566175     5A    -15.559225     6A    -11.338140
       7A    -11.329014     8A    -11.322557     9A    -11.315937
      10A    -11.279507    11A    -11.254303    12A     -1.358564
      13A     -1.292716    14A     -1.238706    15A     -1.204447
      16A     -1.153621    17A     -1.027456    18A     -0.983757
      19A     -0.888199    20A     -0.865912    21A     -0.803852
      22A     -0.750156    23A     -0.724810    24A     -0.678605
      25A     -0.669115    26A     -0.665284    27A     -0.630856
      28A     -0.605036    29A     -0.594560    30A     -0.588375
      31A     -0.565257    32A     -0.530704    33A     -0.498585
      34A     -0.490400    35A     -0.456737    36A     -0.417454
      37A     -0.412827    38A     -0.366444    39A     -0.306411

  @DF-RHF Final Energy:  -503.70688581663660

   => Energetics <=

    Nuclear Repulsion Energy =            592.6109567714347577
    One-Electron Energy =               -1859.5943659384220155
    Two-Electron Energy =                 763.2765233503506579
    Total Energy =                       -503.7068858166365999
  Basis Set: (AUG-CC-PVTZ AUX)
    Blend: AUG-CC-PVTZ-RI
    Molecular point group: c1

    Geometry (in Angstrom), charge = 0, multiplicity = 1:

       Center              X                  Y                   Z               Mass
    ------------   -----------------  -----------------  -----------------  -----------------
         N           -1.843200461972    -0.104212023265    -0.003507346228    14.003074004430
         N           -0.295642361972    -1.857838123265    -0.011171146228    14.003074004430
         N           -0.360759561972     1.754538376735    -0.002359746228    14.003074004430
         N            2.028915638028     1.028001876735    -0.010823146228    14.003074004430
         N            2.702498638028    -1.204897123265     0.075670853772    14.003074004430
         C           -0.573094361972     0.427723876735     0.001851853772    12.000000000000
         C            0.342309638028    -0.633936123265     0.005261853772    12.000000000000
         C           -1.581249361972    -1.523924123265    -0.009256146228    12.000000000000
         C            1.701446638028    -0.273496123265    -0.001461146228    12.000000000000
         C           -3.089786361972     0.524671876735    -0.000083146228    12.000000000000
         C            1.033564638028     1.942445876735    -0.012091146228    12.000000000000
         H           -2.402953361972    -2.231762123265    -0.015606146228     1.007825032230
         H           -3.169815361972     1.161161876735    -0.883051146228     1.007825032230
         H           -3.886934361972    -0.219959123265    -0.009648146228     1.007825032230
         H           -3.175515361972     1.144148876735     0.894446853772     1.007825032230
         H            1.358157638028     2.981015876735    -0.015848146228     1.007825032230
         H            3.612142638028    -0.871233123265    -0.222500146228     1.007825032230
         H            2.455167638028    -2.140926123265    -0.224210146228     1.007825032230

  Basis Set: AUG-CC-PVTZ
    Blend: AUG-CC-PVTZ
  Basis Set: (AUG-CC-PVTZ AUX)
    Blend: AUG-CC-PVTZ-JKFIT
	 Reference Energy          =    -503.7068858166365999 [Eh]
	 Singles Energy            =      -0.0000000000000000 [Eh]
	 Same-Spin Energy          =      -0.5503966252098840 [Eh]
	 Opposite-Spin Energy      =      -1.6370422939471456 [Eh]
	 Correlation Energy        =      -2.1874389191570298 [Eh]
	 Total Energy              =    -505.8943247357936457 [Eh]

	 ================> DF-SCS-MP2 Energies <==================
	-----------------------------------------------------------
	 SCS Same-Spin Scale       =       0.3333333333333333 [-]
	 SCS Opposite-Spin Scale   =       1.2000000000000000 [-]
	 SCS Same-Spin Energy      =      -0.1834655417366280 [Eh]
	 SCS Opposite-Spin Energy  =      -1.9644507527365747 [Eh]
	 SCS Correlation Energy    =      -2.1479162944732026 [Eh]
	 SCS Total Energy          =    -505.8548021111097910 [Eh]
	-----------------------------------------------------------

  Dipole Moment: [D]
     X:    -2.3513      Y:    -1.3775      Z:    -0.7888     Total:     2.8369

*** Psi4 exiting successfully. Buy a developer a beer!
