                               Psi4 1.3.2 release

  ==> Input File <==

--------------------------------------------------------------------------
#psi4
#
memory 32 gb

molecule  {
0 1
  N       -1.7893040    -0.1617730    -0.0001110
  N       -0.2713240    -1.8496560    -0.0082220
  N       -0.2672930     1.7497910     0.0010540
  N        2.0532340     1.0361840    -0.0078740
  N        2.7268170    -1.1967150     0.0786200
  C       -0.5487760     0.4359060     0.0048010
  C        0.3666280    -0.6257540     0.0082110
  C       -1.5805967    -1.5195912    -0.0063289
  C        1.7257650    -0.2653140     0.0014880
  C       -3.0773967     0.5104763     0.0027608
  C        1.0578830     1.9506280    -0.0091420
  H       -2.3786350    -2.2235800    -0.0126570
  H       -3.1454970     1.1693440    -0.8801020
  H       -3.8626160    -0.2117770    -0.0066990
  H       -3.1511970     1.1523310     0.8973960
  H        1.3824760     2.9891980    -0.0128990
  H        3.6364610    -0.8630510    -0.2195510
  H        2.4794860    -2.1327440    -0.2212610
units angstrom
no_reorient  #important for SAPT in psi4, default
symmetry c1  #important for SAPT in psi4, default
}

set PROPERTIES_ORIGIN ["COM"]
properties('MP2/aug-cc-pvtz', properties = ['dipole'])
--------------------------------------------------------------------------

    Molecular point group: c1
  Charge       = 0
  Multiplicity = 1
  Basis Set: AUG-CC-PVTZ
    Blend: AUG-CC-PVTZ
  Basis Set: (AUG-CC-PVTZ AUX)
    Blend: AUG-CC-PVTZ-JKFIT

    Orbital Energies [Eh]
    ---------------------

    Doubly Occupied:

       1A    -15.634942     2A    -15.581179     3A    -15.568202
       4A    -15.561000     5A    -15.552713     6A    -11.334947
       7A    -11.322790     8A    -11.313377     9A    -11.311567
      10A    -11.288585    11A    -11.252260    12A     -1.365499
      13A     -1.296175    14A     -1.241274    15A     -1.192487
      16A     -1.152249    17A     -1.030981    18A     -0.985761
      19A     -0.893348    20A     -0.870840    21A     -0.804778
      22A     -0.753895    23A     -0.724742    24A     -0.682205
      25A     -0.673422    26A     -0.663683    27A     -0.624557
      28A     -0.607304    29A     -0.598550    30A     -0.589803
      31A     -0.577618    32A     -0.533608    33A     -0.494916
      34A     -0.491165    35A     -0.449818    36A     -0.412659
      37A     -0.407872    38A     -0.368576    39A     -0.305943

  @DF-RHF Final Energy:  -503.72150518988406

   => Energetics <=

    Nuclear Repulsion Energy =            593.7871272824821745
    One-Electron Energy =               -1861.9866899571286467
    Two-Electron Energy =                 764.4780574847625303
    Total Energy =                       -503.7215051898840557
  Basis Set: (AUG-CC-PVTZ AUX)
    Blend: AUG-CC-PVTZ-RI
    Molecular point group: c1

    Geometry (in Angstrom), charge = 0, multiplicity = 1:

       Center              X                  Y                   Z               Mass
    ------------   -----------------  -----------------  -----------------  -----------------
         N           -1.820031015317    -0.160453683271    -0.003135565775    14.003074004430
         N           -0.302051015317    -1.848336683271    -0.011246565775    14.003074004430
         N           -0.298020015317     1.751110316729    -0.001970565775    14.003074004430
         N            2.022506984683     1.037503316729    -0.010898565775    14.003074004430
         N            2.696089984683    -1.195395683271     0.075595434225    14.003074004430
         C           -0.579503015317     0.437225316729     0.001776434225    12.000000000000
         C            0.335900984683    -0.624434683271     0.005186434225    12.000000000000
         C           -1.611323715317    -1.518271883271    -0.009353465775    12.000000000000
         C            1.695037984683    -0.263994683271    -0.001536565775    12.000000000000
         C           -3.108123715317     0.511795616729    -0.000263765775    12.000000000000
         C            1.027155984683     1.951947316729    -0.012166565775    12.000000000000
         H           -2.409362015317    -2.222260683271    -0.015681565775     1.007825032230
         H           -3.176224015317     1.170663316729    -0.883126565775     1.007825032230
         H           -3.893343015317    -0.210457683271    -0.009723565775     1.007825032230
         H           -3.181924015317     1.153650316729     0.894371434225     1.007825032230
         H            1.351748984683     2.990517316729    -0.015923565775     1.007825032230
         H            3.605733984683    -0.861731683271    -0.222575565775     1.007825032230
         H            2.448758984683    -2.131424683271    -0.224285565775     1.007825032230

  Basis Set: AUG-CC-PVTZ
    Blend: AUG-CC-PVTZ
  Basis Set: (AUG-CC-PVTZ AUX)
    Blend: AUG-CC-PVTZ-JKFIT
	 Reference Energy          =    -503.7215051898840557 [Eh]
	 Singles Energy            =      -0.0000000000000000 [Eh]
	 Same-Spin Energy          =      -0.5498444854863949 [Eh]
	 Opposite-Spin Energy      =      -1.6342401193954597 [Eh]
	 Correlation Energy        =      -2.1840846048818543 [Eh]
	 Total Energy              =    -505.9055897947658877 [Eh]

	 ================> DF-SCS-MP2 Energies <==================
	-----------------------------------------------------------
	 SCS Same-Spin Scale       =       0.3333333333333333 [-]
	 SCS Opposite-Spin Scale   =       1.2000000000000000 [-]
	 SCS Same-Spin Energy      =      -0.1832814951621316 [Eh]
	 SCS Opposite-Spin Energy  =      -1.9610881432745515 [Eh]
	 SCS Correlation Energy    =      -2.1443696384366833 [Eh]
	 SCS Total Energy          =    -505.8658748283207274 [Eh]
	-----------------------------------------------------------

  Dipole Moment: [D]
     X:    -2.7567      Y:    -1.1449      Z:    -0.7885     Total:     3.0874

*** Psi4 exiting successfully. Buy a developer a beer!
