                               Psi4 1.3.2 release

  ==> Input File <==

--------------------------------------------------------------------------
#psi4
#
memory 32 gb

molecule  {
0 1
  N       -1.7893040    -0.1617730    -0.0001110
  N       -0.2713240    -1.8496560    -0.0082220
  N       -0.2672930     1.7497910     0.0010540
  N        2.0532340     1.0361840    -0.0078740
  N        2.7268170    -1.1967150     0.0786200
  C       -0.5487760     0.4359060     0.0048010
  C        0.3666280    -0.6257540     0.0082110
  C       -1.5569310    -1.5157420    -0.0063070
  C        1.5324497    -0.3165808     0.0024442
  C       -3.0654680     0.5328540     0.0028660
  C        1.0578830     1.9506280    -0.0091420
  H       -2.3786350    -2.2235800    -0.0126570
  H       -3.1454970     1.1693440    -0.8801020
  H       -3.8626160    -0.2117770    -0.0066990
  H       -3.1511970     1.1523310     0.8973960
  H        1.3824760     2.9891980    -0.0128990
  H        3.6364610    -0.8630510    -0.2195510
  H        2.4794860    -2.1327440    -0.2212610
units angstrom
no_reorient  #important for SAPT in psi4, default
symmetry c1  #important for SAPT in psi4, default
}

set PROPERTIES_ORIGIN ["COM"]
properties('MP2/aug-cc-pvtz', properties = ['dipole'])
--------------------------------------------------------------------------

    Molecular point group: c1
  Charge       = 0
  Multiplicity = 1
  Basis Set: AUG-CC-PVTZ
    Blend: AUG-CC-PVTZ
  Basis Set: (AUG-CC-PVTZ AUX)
    Blend: AUG-CC-PVTZ-JKFIT

    Orbital Energies [Eh]
    ---------------------

    Doubly Occupied:

       1A    -15.643824     2A    -15.574733     3A    -15.565292
       4A    -15.560117     5A    -15.559661     6A    -11.340398
       7A    -11.336950     8A    -11.312743     9A    -11.308283
      10A    -11.296963    11A    -11.240782    12A     -1.383072
      13A     -1.287316    14A     -1.235318    15A     -1.184420
      16A     -1.125016    17A     -1.071922    18A     -1.002433
      19A     -0.915946    20A     -0.866415    21A     -0.807264
      22A     -0.746142    23A     -0.721028    24A     -0.680391
      25A     -0.678816    26A     -0.655270    27A     -0.626562
      28A     -0.612543    29A     -0.603343    30A     -0.581933
      31A     -0.567880    32A     -0.527628    33A     -0.499252
      34A     -0.491158    35A     -0.451292    36A     -0.422026
      37A     -0.410635    38A     -0.366211    39A     -0.333503

  @DF-RHF Final Energy:  -503.65857645842493

   => Energetics <=

    Nuclear Repulsion Energy =            596.3892792539426182
    One-Electron Energy =               -1866.9067527773327129
    Two-Electron Energy =                 766.8588970649650491
    Total Energy =                       -503.6585764584249318
  Basis Set: (AUG-CC-PVTZ AUX)
    Blend: AUG-CC-PVTZ-RI
    Molecular point group: c1

    Geometry (in Angstrom), charge = 0, multiplicity = 1:

       Center              X                  Y                   Z               Mass
    ------------   -----------------  -----------------  -----------------  -----------------
         N           -1.807334638073    -0.158437995961    -0.003222770359    14.003074004430
         N           -0.289354638073    -1.846320995961    -0.011333770359    14.003074004430
         N           -0.285323638073     1.753126004039    -0.002057770359    14.003074004430
         N            2.035203361927     1.039519004039    -0.010985770359    14.003074004430
         N            2.708786361927    -1.193379995961     0.075508229641    14.003074004430
         C           -0.566806638073     0.439241004039     0.001689229641    12.000000000000
         C            0.348597361927    -0.622418995961     0.005099229641    12.000000000000
         C           -1.574961638073    -1.512406995961    -0.009418770359    12.000000000000
         C            1.514419061927    -0.313245795961    -0.000667570359    12.000000000000
         C           -3.083498638073     0.536189004039    -0.000245770359    12.000000000000
         C            1.039852361927     1.953963004039    -0.012253770359    12.000000000000
         H           -2.396665638073    -2.220244995961    -0.015768770359     1.007825032230
         H           -3.163527638073     1.172679004039    -0.883213770359     1.007825032230
         H           -3.880646638073    -0.208441995961    -0.009810770359     1.007825032230
         H           -3.169227638073     1.155666004039     0.894284229641     1.007825032230
         H            1.364445361927     2.992533004039    -0.016010770359     1.007825032230
         H            3.618430361927    -0.859715995961    -0.222662770359     1.007825032230
         H            2.461455361927    -2.129408995961    -0.224372770359     1.007825032230

  Basis Set: AUG-CC-PVTZ
    Blend: AUG-CC-PVTZ
  Basis Set: (AUG-CC-PVTZ AUX)
    Blend: AUG-CC-PVTZ-JKFIT
	 Reference Energy          =    -503.6585764584249318 [Eh]
	 Singles Energy            =      -0.0000000000000000 [Eh]
	 Same-Spin Energy          =      -0.5484627009442993 [Eh]
	 Opposite-Spin Energy      =      -1.6361217447395919 [Eh]
	 Correlation Energy        =      -2.1845844456838912 [Eh]
	 Total Energy              =    -505.8431609041087995 [Eh]

	 ================> DF-SCS-MP2 Energies <==================
	-----------------------------------------------------------
	 SCS Same-Spin Scale       =       0.3333333333333333 [-]
	 SCS Opposite-Spin Scale   =       1.2000000000000000 [-]
	 SCS Same-Spin Energy      =      -0.1828209003147664 [Eh]
	 SCS Opposite-Spin Energy  =      -1.9633460936875102 [Eh]
	 SCS Correlation Energy    =      -2.1461669940022765 [Eh]
	 SCS Total Energy          =    -505.8047434524272035 [Eh]
	-----------------------------------------------------------

  Dipole Moment: [D]
     X:    -3.8914      Y:    -0.7669      Z:    -0.8141     Total:     4.0490

*** Psi4 exiting successfully. Buy a developer a beer!
