                               Psi4 1.4a3.dev225

  ==> Input File <==

--------------------------------------------------------------------------
#psi4
#
memory 32 gb

molecule  {
0 1
  N       -1.7889380    -0.1640290    -0.0179520
  N       -0.2703210    -1.8482040    -0.0023970
  N       -0.2671710     1.7490810    -0.0033560
  N        2.0541740     1.0368940    -0.0085470
  N        2.7206340    -1.1973270     0.0732090
  C       -0.5486140     0.4351420     0.0045870
  C        0.3650590    -0.6247560     0.0169900
  C       -1.5569260    -1.5161270    -0.0162740
  C        1.7120731    -0.2504853     0.0038038
  C       -3.0641060     0.5324820     0.0177850
  C        1.0564750     1.9508360    -0.0110870
  H       -2.3762040    -2.2259510    -0.0342240
  H       -2.9284720     1.5041700    -0.4579320
  H       -3.8067760    -0.0485880    -0.5312030
  H       -3.3972360     0.6796990     1.0480130
  H        1.3812150     2.9891510    -0.0228070
  H        3.6427950    -0.8729100    -0.1905990
  H        2.4748820    -2.1409930    -0.1987870
units angstrom
no_reorient  #important for SAPT in psi4, default
symmetry c1  #important for SAPT in psi4, default
}

set PROPERTIES_ORIGIN ["COM"]
properties('MP2/aug-cc-pvtz', properties = ['dipole'])
--------------------------------------------------------------------------

    Molecular point group: c1
  Charge       = 0
  Multiplicity = 1
  Basis Set: AUG-CC-PVTZ
    Blend: AUG-CC-PVTZ
  Basis Set: (AUG-CC-PVTZ AUX)
    Blend: AUG-CC-PVTZ-JKFIT

    Orbital Energies [Eh]
    ---------------------

    Doubly Occupied:

       1A    -15.633049     2A    -15.577479     3A    -15.568310
       4A    -15.561830     5A    -15.552737     6A    -11.333288
       7A    -11.322322     8A    -11.313708     9A    -11.312426
      10A    -11.287799    11A    -11.250988    12A     -1.368955
      13A     -1.297282    14A     -1.239403    15A     -1.195660
      16A     -1.152373    17A     -1.033076    18A     -0.986325
      19A     -0.891445    20A     -0.874475    21A     -0.802443
      22A     -0.753332    23A     -0.722955    24A     -0.680238
      25A     -0.672198    26A     -0.667250    27A     -0.623576
      28A     -0.607260    29A     -0.595777    30A     -0.592546
      31A     -0.572175    32A     -0.536205    33A     -0.493874
      34A     -0.492811    35A     -0.452730    36A     -0.414871
      37A     -0.408802    38A     -0.368914    39A     -0.309015

  @DF-RHF Final Energy:  -503.72466201656789

   => Energetics <=

    Nuclear Repulsion Energy =            594.8166980733751643
    One-Electron Energy =               -1864.0429073514605989
    Two-Electron Energy =                 765.5015472615175440
    Total Energy =                       -503.7246620165678905
  Basis Set: (AUG-CC-PVTZ AUX)
    Blend: AUG-CC-PVTZ-RI
    Molecular point group: c1

    Geometry (in Angstrom), charge = 0, multiplicity = 1:

       Center              X                  Y                   Z               Mass
    ------------   -----------------  -----------------  -----------------  -----------------
         N           -1.821160103907    -0.165889084838    -0.020451561507    14.003074004430
         N           -0.302543103907    -1.850064084838    -0.004896561507    14.003074004430
         N           -0.299393103907     1.747220915162    -0.005855561507    14.003074004430
         N            2.021951896093     1.035033915162    -0.011046561507    14.003074004430
         N            2.688411896093    -1.199187084838     0.070709438493    14.003074004430
         C           -0.580836103907     0.433281915162     0.002087438493    12.000000000000
         C            0.332836896093    -0.626616084838     0.014490438493    12.000000000000
         C           -1.589148103907    -1.517987084838    -0.018773561507    12.000000000000
         C            1.679850996093    -0.252345384838     0.001304238493    12.000000000000
         C           -3.096328103907     0.530621915162     0.015285438493    12.000000000000
         C            1.024252896093     1.948975915162    -0.013586561507    12.000000000000
         H           -2.408426103907    -2.227811084838    -0.036723561507     1.007825032230
         H           -2.960694103907     1.502309915162    -0.460431561507     1.007825032230
         H           -3.838998103907    -0.050448084838    -0.533702561507     1.007825032230
         H           -3.429458103907     0.677838915162     1.045513438493     1.007825032230
         H            1.348992896093     2.987290915162    -0.025306561507     1.007825032230
         H            3.610572896093    -0.874770084838    -0.193098561507     1.007825032230
         H            2.442659896093    -2.142853084838    -0.201286561507     1.007825032230

  Basis Set: AUG-CC-PVTZ
    Blend: AUG-CC-PVTZ
  Basis Set: (AUG-CC-PVTZ AUX)
    Blend: AUG-CC-PVTZ-JKFIT
	 Reference Energy          =    -503.7246620165678905 [Eh]
	 Singles Energy            =      -0.0000000000000000 [Eh]
	 Same-Spin Energy          =      -0.5492469206750056 [Eh]
	 Opposite-Spin Energy      =      -1.6328627639487747 [Eh]
	 Correlation Energy        =      -2.1821096846237804 [Eh]
	 Total Energy              =    -505.9067717011916443 [Eh]

	 ================> DF-SCS-MP2 Energies <==================
	-----------------------------------------------------------
	 SCS Same-Spin Scale       =       0.3333333333333333 [-]
	 SCS Opposite-Spin Scale   =       1.2000000000000000 [-]
	 SCS Same-Spin Energy      =      -0.1830823068916685 [Eh]
	 SCS Opposite-Spin Energy  =      -1.9594353167385297 [Eh]
	 SCS Correlation Energy    =      -2.1425176236301984 [Eh]
	 SCS Total Energy          =    -505.8671796401981169 [Eh]
	-----------------------------------------------------------

  Dipole Moment: [D]
     X:    -2.7984      Y:    -1.0822      Z:    -0.7187     Total:     3.0853

*** Psi4 exiting successfully. Buy a developer a beer!
