                               Psi4 1.3.2 release

  ==> Input File <==

--------------------------------------------------------------------------
#psi4
#
memory 32 gb

molecule  {
0 1
  N       -1.7893040    -0.1617730    -0.0001110
  N       -0.2713240    -1.8496560    -0.0082220
  N       -0.2672930     1.7497910     0.0010540
  N        2.0845412     1.0714780    -0.0080340
  N        2.7268170    -1.1967150     0.0786200
  C       -0.5487760     0.4359060     0.0048010
  C        0.3666280    -0.6257540     0.0082110
  C       -1.5569310    -1.5157420    -0.0063070
  C        1.7257650    -0.2653140     0.0014880
  C       -3.0654680     0.5328540     0.0028660
  C        1.0578830     1.9506280    -0.0091420
  H       -2.3786350    -2.2235800    -0.0126570
  H       -3.1454970     1.1693440    -0.8801020
  H       -3.8626160    -0.2117770    -0.0066990
  H       -3.1511970     1.1523310     0.8973960
  H        1.4185240     2.9772371    -0.0129191
  H        3.6364610    -0.8630510    -0.2195510
  H        2.4794860    -2.1327440    -0.2212610
units angstrom
no_reorient  #important for SAPT in psi4, default
symmetry c1  #important for SAPT in psi4, default
}

set PROPERTIES_ORIGIN ["COM"]
properties('MP2/aug-cc-pvtz', properties = ['dipole'])
--------------------------------------------------------------------------

    Molecular point group: c1
  Charge       = 0
  Multiplicity = 1
  Basis Set: AUG-CC-PVTZ
    Blend: AUG-CC-PVTZ
  Basis Set: (AUG-CC-PVTZ AUX)
    Blend: AUG-CC-PVTZ-JKFIT

    Orbital Energies [Eh]
    ---------------------

    Doubly Occupied:

       1A    -15.633892     2A    -15.583861     3A    -15.568551
       4A    -15.559758     5A    -15.557163     6A    -11.339371
       7A    -11.323889     8A    -11.315676     9A    -11.309910
      10A    -11.289258    11A    -11.252972    12A     -1.368432
      13A     -1.290277    14A     -1.242490    15A     -1.197895
      16A     -1.148743    17A     -1.031667    18A     -0.987074
      19A     -0.891272    20A     -0.868385    21A     -0.802647
      22A     -0.752212    23A     -0.724414    24A     -0.681371
      25A     -0.672131    26A     -0.666950    27A     -0.622722
      28A     -0.605868    29A     -0.595166    30A     -0.589603
      31A     -0.571679    32A     -0.534943    33A     -0.496711
      34A     -0.491207    35A     -0.451937    36A     -0.415520
      37A     -0.411318    38A     -0.368277    39A     -0.307859

  @DF-RHF Final Energy:  -503.72093591323045

   => Energetics <=

    Nuclear Repulsion Energy =            593.0726403258862547
    One-Electron Energy =               -1860.5410096874929877
    Two-Electron Energy =                 763.7474334483761140
    Total Energy =                       -503.7209359132305053
  Basis Set: (AUG-CC-PVTZ AUX)
    Blend: AUG-CC-PVTZ-RI
    Molecular point group: c1

    Geometry (in Angstrom), charge = 0, multiplicity = 1:

       Center              X                  Y                   Z               Mass
    ------------   -----------------  -----------------  -----------------  -----------------
         N           -1.826080918293    -0.165799440452    -0.003130631527    14.003074004430
         N           -0.308100918293    -1.853682440452    -0.011241631527    14.003074004430
         N           -0.304069918293     1.745764559548    -0.001965631527    14.003074004430
         N            2.047764281707     1.067451559548    -0.011053631527    14.003074004430
         N            2.690040081707    -1.200741440452     0.075600368473    14.003074004430
         C           -0.585552918293     0.431879559548     0.001781368473    12.000000000000
         C            0.329851081707    -0.629780440452     0.005191368473    12.000000000000
         C           -1.593707918293    -1.519768440452    -0.009326631527    12.000000000000
         C            1.688988081707    -0.269340440452    -0.001531631527    12.000000000000
         C           -3.102244918293     0.528827559548    -0.000153631527    12.000000000000
         C            1.021106081707     1.946601559548    -0.012161631527    12.000000000000
         H           -2.415411918293    -2.227606440452    -0.015676631527     1.007825032230
         H           -3.182273918293     1.165317559548    -0.883121631527     1.007825032230
         H           -3.899392918293    -0.215803440452    -0.009718631527     1.007825032230
         H           -3.187973918293     1.148304559548     0.894376368473     1.007825032230
         H            1.381747081707     2.973210659548    -0.015938731527     1.007825032230
         H            3.599684081707    -0.867077440452    -0.222570631527     1.007825032230
         H            2.442709081707    -2.136770440452    -0.224280631527     1.007825032230

  Basis Set: AUG-CC-PVTZ
    Blend: AUG-CC-PVTZ
  Basis Set: (AUG-CC-PVTZ AUX)
    Blend: AUG-CC-PVTZ-JKFIT
	 Reference Energy          =    -503.7209359132304485 [Eh]
	 Singles Energy            =      -0.0000000000000000 [Eh]
	 Same-Spin Energy          =      -0.5492426122366074 [Eh]
	 Opposite-Spin Energy      =      -1.6339330507509073 [Eh]
	 Correlation Energy        =      -2.1831756629875150 [Eh]
	 Total Energy              =    -505.9041115762179857 [Eh]

	 ================> DF-SCS-MP2 Energies <==================
	-----------------------------------------------------------
	 SCS Same-Spin Scale       =       0.3333333333333333 [-]
	 SCS Opposite-Spin Scale   =       1.2000000000000000 [-]
	 SCS Same-Spin Energy      =      -0.1830808707455358 [Eh]
	 SCS Opposite-Spin Energy  =      -1.9607196609010886 [Eh]
	 SCS Correlation Energy    =      -2.1438005316466242 [Eh]
	 SCS Total Energy          =    -505.8647364448770531 [Eh]
	-----------------------------------------------------------

  Dipole Moment: [D]
     X:    -2.7491      Y:    -1.3206      Z:    -0.7833     Total:     3.1488

*** Psi4 exiting successfully. Buy a developer a beer!
