                               Psi4 1.3.2 release

  ==> Input File <==

--------------------------------------------------------------------------
#psi4
#
memory 32 gb

molecule  {
0 1
  N       -1.7893040    -0.1617730    -0.0001110
  N       -0.2713240    -1.8496560    -0.0082220
  N       -0.2672930     1.7497910     0.0010540
  N        2.0532340     1.0361840    -0.0078740
  N        2.7268170    -1.1967150     0.0786200
  C       -0.4796286     0.4229739     0.0042981
  C        0.3666280    -0.6257540     0.0082110
  C       -1.5569310    -1.5157420    -0.0063070
  C        1.7257650    -0.2653140     0.0014880
  C       -3.0654680     0.5328540     0.0028660
  C        1.0665782     1.8809964    -0.0091206
  H       -2.3786350    -2.2235800    -0.0126570
  H       -3.1454970     1.1693440    -0.8801020
  H       -3.8626160    -0.2117770    -0.0066990
  H       -3.1511970     1.1523310     0.8973960
  H        1.3824760     2.9891980    -0.0128990
  H        3.6364610    -0.8630510    -0.2195510
  H        2.4794860    -2.1327440    -0.2212610
units angstrom
no_reorient  #important for SAPT in psi4, default
symmetry c1  #important for SAPT in psi4, default
}

set PROPERTIES_ORIGIN ["COM"]
properties('MP2/aug-cc-pvtz', properties = ['dipole'])
--------------------------------------------------------------------------

    Molecular point group: c1
  Charge       = 0
  Multiplicity = 1
  Basis Set: AUG-CC-PVTZ
    Blend: AUG-CC-PVTZ
  Basis Set: (AUG-CC-PVTZ AUX)
    Blend: AUG-CC-PVTZ-JKFIT

    Orbital Energies [Eh]
    ---------------------

    Doubly Occupied:

       1A    -15.625772     2A    -15.586661     3A    -15.563014
       4A    -15.561864     5A    -15.554949     6A    -11.340726
       7A    -11.323486     8A    -11.311496     9A    -11.310562
      10A    -11.285418    11A    -11.249964    12A     -1.362568
      13A     -1.308682    14A     -1.247086    15A     -1.192161
      16A     -1.167266    17A     -1.039446    18A     -0.979965
      19A     -0.892966    20A     -0.865886    21A     -0.808295
      22A     -0.757457    23A     -0.716634    24A     -0.678738
      25A     -0.672086    26A     -0.660992    27A     -0.625342
      28A     -0.612564    29A     -0.600456    30A     -0.584224
      31A     -0.556612    32A     -0.538493    33A     -0.499602
      34A     -0.489895    35A     -0.450061    36A     -0.423552
      37A     -0.409593    38A     -0.379686    39A     -0.312306

  @DF-RHF Final Energy:  -503.71311050730083

   => Energetics <=

    Nuclear Repulsion Energy =            596.1822474443198416
    One-Electron Energy =               -1866.6976630373392254
    Two-Electron Energy =                 766.8023050857186718
    Total Energy =                       -503.7131105073008257
  Basis Set: (AUG-CC-PVTZ AUX)
    Blend: AUG-CC-PVTZ-RI
    Molecular point group: c1

    Geometry (in Angstrom), charge = 0, multiplicity = 1:

       Center              X                  Y                   Z               Mass
    ------------   -----------------  -----------------  -----------------  -----------------
         N           -1.829162582190    -0.155918626309    -0.003107036924    14.003074004430
         N           -0.311182582190    -1.843801626309    -0.011218036924    14.003074004430
         N           -0.307151582190     1.755645373691    -0.001942036924    14.003074004430
         N            2.013375417810     1.042038373691    -0.010870036924    14.003074004430
         N            2.686958417810    -1.190860626309     0.075623963076    14.003074004430
         C           -0.519487182190     0.428828273691     0.001302063076    12.000000000000
         C            0.326769417810    -0.619899626309     0.005214963076    12.000000000000
         C           -1.596789582190    -1.509887626309    -0.009303036924    12.000000000000
         C            1.685906417810    -0.259459626309    -0.001508036924    12.000000000000
         C           -3.105326582190     0.538708373691    -0.000130036924    12.000000000000
         C            1.026719617810     1.886850773691    -0.012116636924    12.000000000000
         H           -2.418493582190    -2.217725626309    -0.015653036924     1.007825032230
         H           -3.185355582190     1.175198373691    -0.883098036924     1.007825032230
         H           -3.902474582190    -0.205922626309    -0.009695036924     1.007825032230
         H           -3.191055582190     1.158185373691     0.894399963076     1.007825032230
         H            1.342617417810     2.995052373691    -0.015895036924     1.007825032230
         H            3.596602417810    -0.857196626309    -0.222547036924     1.007825032230
         H            2.439627417810    -2.126889626309    -0.224257036924     1.007825032230

  Basis Set: AUG-CC-PVTZ
    Blend: AUG-CC-PVTZ
  Basis Set: (AUG-CC-PVTZ AUX)
    Blend: AUG-CC-PVTZ-JKFIT
	 Reference Energy          =    -503.7131105073008257 [Eh]
	 Singles Energy            =      -0.0000000000000000 [Eh]
	 Same-Spin Energy          =      -0.5486358960271882 [Eh]
	 Opposite-Spin Energy      =      -1.6326229640328878 [Eh]
	 Correlation Energy        =      -2.1812588600600762 [Eh]
	 Total Energy              =    -505.8943693673609232 [Eh]

	 ================> DF-SCS-MP2 Energies <==================
	-----------------------------------------------------------
	 SCS Same-Spin Scale       =       0.3333333333333333 [-]
	 SCS Opposite-Spin Scale   =       1.2000000000000000 [-]
	 SCS Same-Spin Energy      =      -0.1828786320090627 [Eh]
	 SCS Opposite-Spin Energy  =      -1.9591475568394652 [Eh]
	 SCS Correlation Energy    =      -2.1420261888485279 [Eh]
	 SCS Total Energy          =    -505.8551366961493727 [Eh]
	-----------------------------------------------------------

  Dipole Moment: [D]
     X:    -2.3647      Y:    -1.2967      Z:    -0.7854     Total:     2.8089

*** Psi4 exiting successfully. Buy a developer a beer!
