                               Psi4 1.3.2 release

  ==> Input File <==

--------------------------------------------------------------------------
#psi4
#
memory 32 gb

molecule  {
0 1
  N       -1.7893040    -0.1617730    -0.0001110
  N       -0.2713240    -1.8496560    -0.0082220
  N       -0.2672930     1.7497910     0.0010540
  N        2.0532340     1.0361840    -0.0078740
  N        2.7268170    -1.1967150     0.0786200
  C       -0.6030842     0.3865442     0.0052824
  C        0.3666280    -0.6257540     0.0082110
  C       -1.5569310    -1.5157420    -0.0063070
  C        1.7427680    -0.3369392     0.0018672
  C       -3.0654680     0.5328540     0.0028660
  C        1.0578830     1.9506280    -0.0091420
  H       -2.3786350    -2.2235800    -0.0126570
  H       -3.1454970     1.1693440    -0.8801020
  H       -3.8626160    -0.2117770    -0.0066990
  H       -3.1511970     1.1523310     0.8973960
  H        1.3824760     2.9891980    -0.0128990
  H        3.6364610    -0.8630510    -0.2195510
  H        2.4794860    -2.1327440    -0.2212610
units angstrom
no_reorient  #important for SAPT in psi4, default
symmetry c1  #important for SAPT in psi4, default
}

set PROPERTIES_ORIGIN ["COM"]
properties('MP2/aug-cc-pvtz', properties = ['dipole'])
--------------------------------------------------------------------------

    Molecular point group: c1
  Charge       = 0
  Multiplicity = 1
  Basis Set: AUG-CC-PVTZ
    Blend: AUG-CC-PVTZ
  Basis Set: (AUG-CC-PVTZ AUX)
    Blend: AUG-CC-PVTZ-JKFIT

    Orbital Energies [Eh]
    ---------------------

    Doubly Occupied:

       1A    -15.637849     2A    -15.593932     3A    -15.568873
       4A    -15.550047     5A    -15.544029     6A    -11.339286
       7A    -11.318050     8A    -11.311108     9A    -11.302782
      10A    -11.292597    11A    -11.248453    12A     -1.383264
      13A     -1.295392    14A     -1.238343    15A     -1.207583
      16A     -1.128720    17A     -1.030113    18A     -0.994846
      19A     -0.894085    20A     -0.856583    21A     -0.810137
      22A     -0.756978    23A     -0.734443    24A     -0.685834
      25A     -0.675169    26A     -0.671963    27A     -0.626695
      28A     -0.600748    29A     -0.595116    30A     -0.591162
      31A     -0.581423    32A     -0.544085    33A     -0.491577
      34A     -0.484104    35A     -0.436245    36A     -0.419495
      37A     -0.398190    38A     -0.352654    39A     -0.306487

  @DF-RHF Final Energy:  -503.70752738624662

   => Energetics <=

    Nuclear Repulsion Energy =            594.0491478785029358
    One-Electron Energy =               -1862.5164718373632695
    Two-Electron Energy =                 764.7597965726137090
    Total Energy =                       -503.7075273862466247
  Basis Set: (AUG-CC-PVTZ AUX)
    Blend: AUG-CC-PVTZ-RI
    Molecular point group: c1

    Geometry (in Angstrom), charge = 0, multiplicity = 1:

       Center              X                  Y                   Z               Mass
    ------------   -----------------  -----------------  -----------------  -----------------
         N           -1.819893297601    -0.152825588470    -0.003215074653    14.003074004430
         N           -0.301913297601    -1.840708588470    -0.011326074653    14.003074004430
         N           -0.297882297601     1.758738411530    -0.002050074653    14.003074004430
         N            2.022644702399     1.045131411530    -0.010978074653    14.003074004430
         N            2.696227702399    -1.187767588470     0.075515925347    14.003074004430
         C           -0.633673497601     0.395491611530     0.002178325347    12.000000000000
         C            0.336038702399    -0.616806588470     0.005106925347    12.000000000000
         C           -1.587520297601    -1.506794588470    -0.009411074653    12.000000000000
         C            1.712178702399    -0.327991788470    -0.001236874653    12.000000000000
         C           -3.096057297601     0.541801411530    -0.000238074653    12.000000000000
         C            1.027293702399     1.959575411530    -0.012246074653    12.000000000000
         H           -2.409224297601    -2.214632588470    -0.015761074653     1.007825032230
         H           -3.176086297601     1.178291411530    -0.883206074653     1.007825032230
         H           -3.893205297601    -0.202829588470    -0.009803074653     1.007825032230
         H           -3.181786297601     1.161278411530     0.894291925347     1.007825032230
         H            1.351886702399     2.998145411530    -0.016003074653     1.007825032230
         H            3.605871702399    -0.854103588470    -0.222655074653     1.007825032230
         H            2.448896702399    -2.123796588470    -0.224365074653     1.007825032230

  Basis Set: AUG-CC-PVTZ
    Blend: AUG-CC-PVTZ
  Basis Set: (AUG-CC-PVTZ AUX)
    Blend: AUG-CC-PVTZ-JKFIT
	 Reference Energy          =    -503.7075273862466247 [Eh]
	 Singles Energy            =      -0.0000000000000000 [Eh]
	 Same-Spin Energy          =      -0.5496165117023877 [Eh]
	 Opposite-Spin Energy      =      -1.6343006167252974 [Eh]
	 Correlation Energy        =      -2.1839171284276850 [Eh]
	 Total Energy              =    -505.8914445146743333 [Eh]

	 ================> DF-SCS-MP2 Energies <==================
	-----------------------------------------------------------
	 SCS Same-Spin Scale       =       0.3333333333333333 [-]
	 SCS Opposite-Spin Scale   =       1.2000000000000000 [-]
	 SCS Same-Spin Energy      =      -0.1832055039007959 [Eh]
	 SCS Opposite-Spin Energy  =      -1.9611607400703568 [Eh]
	 SCS Correlation Energy    =      -2.1443662439711528 [Eh]
	 SCS Total Energy          =    -505.8518936302177735 [Eh]
	-----------------------------------------------------------

  Dipole Moment: [D]
     X:    -2.5651      Y:    -1.7563      Z:    -0.7681     Total:     3.2022

*** Psi4 exiting successfully. Buy a developer a beer!
