                               Psi4 1.3.2 release

  ==> Input File <==

--------------------------------------------------------------------------
#psi4
#
memory 32 gb

molecule  {
0 1
  N       -1.7893040    -0.1617730    -0.0001110
  N       -0.2713240    -1.8496560    -0.0082220
  N       -0.2672930     1.7497910     0.0010540
  N        2.0532340     1.0361840    -0.0078740
  N        2.7268170    -1.1967150     0.0786200
  C       -0.5487760     0.4359060     0.0048010
  C        0.3204092    -0.7144242     0.0070204
  C       -1.5569310    -1.5157420    -0.0063070
  C        1.7257650    -0.2653140     0.0014880
  C       -3.0654680     0.5328540     0.0028660
  C        1.0578830     1.9506280    -0.0091420
  H       -2.3786350    -2.2235800    -0.0126570
  H       -3.1454970     1.1693440    -0.8801020
  H       -3.8626160    -0.2117770    -0.0066990
  H       -3.1511970     1.1523310     0.8973960
  H        1.3824760     2.9891980    -0.0128990
  H        3.6364610    -0.8630510    -0.2195510
  H        2.4794860    -2.1327440    -0.2212610
units angstrom
no_reorient  #important for SAPT in psi4, default
symmetry c1  #important for SAPT in psi4, default
}

set PROPERTIES_ORIGIN ["COM"]
properties('MP2/aug-cc-pvtz', properties = ['dipole'])
--------------------------------------------------------------------------

    Molecular point group: c1
  Charge       = 0
  Multiplicity = 1
  Basis Set: AUG-CC-PVTZ
    Blend: AUG-CC-PVTZ
  Basis Set: (AUG-CC-PVTZ AUX)
    Blend: AUG-CC-PVTZ-JKFIT

    Orbital Energies [Eh]
    ---------------------

    Doubly Occupied:

       1A    -15.636538     2A    -15.581404     3A    -15.564923
       4A    -15.560581     5A    -15.553371     6A    -11.340377
       7A    -11.319072     8A    -11.310928     9A    -11.308563
      10A    -11.288306    11A    -11.257786    12A     -1.376272
      13A     -1.293611    14A     -1.248972    15A     -1.212872
      16A     -1.151389    17A     -1.019731    18A     -0.989191
      19A     -0.889944    20A     -0.866280    21A     -0.800562
      22A     -0.752491    23A     -0.735435    24A     -0.679425
      25A     -0.674897    26A     -0.666952    27A     -0.627938
      28A     -0.599244    29A     -0.594443    30A     -0.584301
      31A     -0.569621    32A     -0.539676    33A     -0.497720
      34A     -0.494376    35A     -0.461582    36A     -0.422488
      37A     -0.402181    38A     -0.370109    39A     -0.291257

  @DF-RHF Final Energy:  -503.70737932328177

   => Energetics <=

    Nuclear Repulsion Energy =            594.0781117789240398
    One-Electron Energy =               -1862.5013646627298840
    Two-Electron Energy =                 764.7158735605240736
    Total Energy =                       -503.7073793232817707
  Basis Set: (AUG-CC-PVTZ AUX)
    Blend: AUG-CC-PVTZ-RI
    Molecular point group: c1

    Geometry (in Angstrom), charge = 0, multiplicity = 1:

       Center              X                  Y                   Z               Mass
    ------------   -----------------  -----------------  -----------------  -----------------
         N           -1.819175761572    -0.155427059068    -0.003049955072    14.003074004430
         N           -0.301195761572    -1.843310059068    -0.011160955072    14.003074004430
         N           -0.297164761572     1.756136940932    -0.001884955072    14.003074004430
         N            2.023362238428     1.042529940932    -0.010812955072    14.003074004430
         N            2.696945238428    -1.190369059068     0.075681044928    14.003074004430
         C           -0.578647761572     0.442251940932     0.001862044928    12.000000000000
         C            0.290537438428    -0.708078259068     0.004081444928    12.000000000000
         C           -1.586802761572    -1.509396059068    -0.009245955072    12.000000000000
         C            1.695893238428    -0.258968059068    -0.001450955072    12.000000000000
         C           -3.095339761572     0.539199940932    -0.000072955072    12.000000000000
         C            1.028011238428     1.956973940932    -0.012080955072    12.000000000000
         H           -2.408506761572    -2.217234059068    -0.015595955072     1.007825032230
         H           -3.175368761572     1.175689940932    -0.883040955072     1.007825032230
         H           -3.892487761572    -0.205431059068    -0.009637955072     1.007825032230
         H           -3.181068761572     1.158676940932     0.894457044928     1.007825032230
         H            1.352604238428     2.995543940932    -0.015837955072     1.007825032230
         H            3.606589238428    -0.856705059068    -0.222489955072     1.007825032230
         H            2.449614238428    -2.126398059068    -0.224199955072     1.007825032230

  Basis Set: AUG-CC-PVTZ
    Blend: AUG-CC-PVTZ
  Basis Set: (AUG-CC-PVTZ AUX)
    Blend: AUG-CC-PVTZ-JKFIT
	 Reference Energy          =    -503.7073793232817707 [Eh]
	 Singles Energy            =      -0.0000000000000000 [Eh]
	 Same-Spin Energy          =      -0.5515176721870162 [Eh]
	 Opposite-Spin Energy      =      -1.6350502860215705 [Eh]
	 Correlation Energy        =      -2.1865679582085868 [Eh]
	 Total Energy              =    -505.8939472814903411 [Eh]

	 ================> DF-SCS-MP2 Energies <==================
	-----------------------------------------------------------
	 SCS Same-Spin Scale       =       0.3333333333333333 [-]
	 SCS Opposite-Spin Scale   =       1.2000000000000000 [-]
	 SCS Same-Spin Energy      =      -0.1838392240623387 [Eh]
	 SCS Opposite-Spin Energy  =      -1.9620603432258845 [Eh]
	 SCS Correlation Energy    =      -2.1458995672882231 [Eh]
	 SCS Total Energy          =    -505.8532788905699817 [Eh]
	-----------------------------------------------------------

  Dipole Moment: [D]
     X:    -2.7941      Y:    -1.2973      Z:    -0.7849     Total:     3.1790

*** Psi4 exiting successfully. Buy a developer a beer!
