                               Psi4 1.4a3.dev225

  ==> Input File <==

--------------------------------------------------------------------------
#psi4
#
memory 32 gb

molecule  {
0 1
  N       -1.7889380    -0.1640290    -0.0179520
  N       -0.2703210    -1.8482040    -0.0023970
  N       -0.2671710     1.7490810    -0.0033560
  N        2.0541740     1.0368940    -0.0085470
  N        2.7206340    -1.1973270     0.0732090
  C       -0.5035980     0.4568881     0.0054050
  C        0.3650590    -0.6247560     0.0169900
  C       -1.5569260    -1.5161270    -0.0162740
  C        1.7266360    -0.2641570     0.0048060
  C       -3.0641060     0.5324820     0.0177850
  C        1.0564750     1.9508360    -0.0110870
  H       -2.3762040    -2.2259510    -0.0342240
  H       -2.9284720     1.5041700    -0.4579320
  H       -3.8067760    -0.0485880    -0.5312030
  H       -3.3972360     0.6796990     1.0480130
  H        1.3812150     2.9891510    -0.0228070
  H        3.6427950    -0.8729100    -0.1905990
  H        2.4748820    -2.1409930    -0.1987870
units angstrom
no_reorient  #important for SAPT in psi4, default
symmetry c1  #important for SAPT in psi4, default
}

set PROPERTIES_ORIGIN ["COM"]
properties('MP2/aug-cc-pvtz', properties = ['dipole'])
--------------------------------------------------------------------------

    Molecular point group: c1
  Charge       = 0
  Multiplicity = 1
  Basis Set: AUG-CC-PVTZ
    Blend: AUG-CC-PVTZ
  Basis Set: (AUG-CC-PVTZ AUX)
    Blend: AUG-CC-PVTZ-JKFIT

    Orbital Energies [Eh]
    ---------------------

    Doubly Occupied:

       1A    -15.626614     2A    -15.581558     3A    -15.564291
       4A    -15.561993     5A    -15.554575     6A    -11.334904
       7A    -11.321905     8A    -11.313693     9A    -11.313027
      10A    -11.283566    11A    -11.251538    12A     -1.359858
      13A     -1.298890    14A     -1.248973    15A     -1.191243
      16A     -1.156899    17A     -1.032513    18A     -0.978849
      19A     -0.888766    20A     -0.874113    21A     -0.802940
      22A     -0.754254    23A     -0.721974    24A     -0.681286
      25A     -0.673330    26A     -0.660585    27A     -0.626641
      28A     -0.606152    29A     -0.595439    30A     -0.592797
      31A     -0.560393    32A     -0.534183    33A     -0.500174
      34A     -0.494991    35A     -0.452326    36A     -0.414895
      37A     -0.407570    38A     -0.372315    39A     -0.306533

  @DF-RHF Final Energy:  -503.72167089823455

   => Energetics <=

    Nuclear Repulsion Energy =            594.6715702999061932
    One-Electron Energy =               -1863.7933944095243533
    Two-Electron Energy =                 765.4001532113834401
    Total Energy =                       -503.7216708982346063
  Basis Set: (AUG-CC-PVTZ AUX)
    Blend: AUG-CC-PVTZ-RI
    Molecular point group: c1

    Geometry (in Angstrom), charge = 0, multiplicity = 1:

       Center              X                  Y                   Z               Mass
    ------------   -----------------  -----------------  -----------------  -----------------
         N           -1.825956146729    -0.166539066092    -0.020598085815    14.003074004430
         N           -0.307339146729    -1.850714066092    -0.005043085815    14.003074004430
         N           -0.304189146729     1.746570933908    -0.006002085815    14.003074004430
         N            2.017155853271     1.034383933908    -0.011193085815    14.003074004430
         N            2.683615853271    -1.199837066092     0.070562914185    14.003074004430
         C           -0.540616146729     0.454378033908     0.002758914185    12.000000000000
         C            0.328040853271    -0.627266066092     0.014343914185    12.000000000000
         C           -1.593944146729    -1.518637066092    -0.018920085815    12.000000000000
         C            1.689617853271    -0.266667066092     0.002159914185    12.000000000000
         C           -3.101124146729     0.529971933908     0.015138914185    12.000000000000
         C            1.019456853271     1.948325933908    -0.013733085815    12.000000000000
         H           -2.413222146729    -2.228461066092    -0.036870085815     1.007825032230
         H           -2.965490146729     1.501659933908    -0.460578085815     1.007825032230
         H           -3.843794146729    -0.051098066092    -0.533849085815     1.007825032230
         H           -3.434254146729     0.677188933908     1.045366914185     1.007825032230
         H            1.344196853271     2.986640933908    -0.025453085815     1.007825032230
         H            3.605776853271    -0.875420066092    -0.193245085815     1.007825032230
         H            2.437863853271    -2.143503066092    -0.201433085815     1.007825032230

  Basis Set: AUG-CC-PVTZ
    Blend: AUG-CC-PVTZ
  Basis Set: (AUG-CC-PVTZ AUX)
    Blend: AUG-CC-PVTZ-JKFIT
	 Reference Energy          =    -503.7216708982345494 [Eh]
	 Singles Energy            =      -0.0000000000000000 [Eh]
	 Same-Spin Energy          =      -0.5493763193539003 [Eh]
	 Opposite-Spin Energy      =      -1.6329881069499348 [Eh]
	 Correlation Energy        =      -2.1823644263038351 [Eh]
	 Total Energy              =    -505.9040353245383699 [Eh]

	 ================> DF-SCS-MP2 Energies <==================
	-----------------------------------------------------------
	 SCS Same-Spin Scale       =       0.3333333333333333 [-]
	 SCS Opposite-Spin Scale   =       1.2000000000000000 [-]
	 SCS Same-Spin Energy      =      -0.1831254397846334 [Eh]
	 SCS Opposite-Spin Energy  =      -1.9595857283399216 [Eh]
	 SCS Correlation Energy    =      -2.1427111681245550 [Eh]
	 SCS Total Energy          =    -505.8643820663590986 [Eh]
	-----------------------------------------------------------

  Dipole Moment: [D]
     X:    -2.4462      Y:    -1.0986      Z:    -0.7112     Total:     2.7743

*** Psi4 exiting successfully. Buy a developer a beer!
