                               Psi4 1.3.2 release

  ==> Input File <==

--------------------------------------------------------------------------
#psi4
#
memory 32 gb

molecule  {
0 1
  N       -1.7893040    -0.1617730    -0.0001110
  N       -0.2713240    -1.8496560    -0.0082220
  N       -0.2672930     1.7497910     0.0010540
  N        2.0532340     1.0361840    -0.0078740
  N        2.6935966    -1.2310345     0.0805338
  C       -0.5487760     0.4359060     0.0048010
  C        0.3800206    -0.6728492     0.0116182
  C       -1.5569310    -1.5157420    -0.0063070
  C        1.7257650    -0.2653140     0.0014880
  C       -3.0654680     0.5328540     0.0028660
  C        1.0578830     1.9506280    -0.0091420
  H       -2.3786350    -2.2235800    -0.0126570
  H       -3.1454970     1.1693440    -0.8801020
  H       -3.8626160    -0.2117770    -0.0066990
  H       -3.1511970     1.1523310     0.8973960
  H        1.3824760     2.9891980    -0.0128990
  H        3.6364610    -0.8630510    -0.2195510
  H        2.4794860    -2.1327440    -0.2212610
units angstrom
no_reorient  #important for SAPT in psi4, default
symmetry c1  #important for SAPT in psi4, default
}

set PROPERTIES_ORIGIN ["COM"]
properties('MP2/aug-cc-pvtz', properties = ['dipole'])
--------------------------------------------------------------------------

    Molecular point group: c1
  Charge       = 0
  Multiplicity = 1
  Basis Set: AUG-CC-PVTZ
    Blend: AUG-CC-PVTZ
  Basis Set: (AUG-CC-PVTZ AUX)
    Blend: AUG-CC-PVTZ-JKFIT

    Orbital Energies [Eh]
    ---------------------

    Doubly Occupied:

       1A    -15.635577     2A    -15.578762     3A    -15.566823
       4A    -15.561834     5A    -15.554418     6A    -11.333646
       7A    -11.322260     8A    -11.315511     9A    -11.312398
      10A    -11.289477    11A    -11.253831    12A     -1.368300
      13A     -1.295174    14A     -1.244459    15A     -1.202057
      16A     -1.153375    17A     -1.025461    18A     -0.988306
      19A     -0.892017    20A     -0.873257    21A     -0.799144
      22A     -0.753072    23A     -0.728770    24A     -0.681866
      25A     -0.672372    26A     -0.666297    27A     -0.629056
      28A     -0.600432    29A     -0.596720    30A     -0.589164
      31A     -0.570831    32A     -0.537098    33A     -0.497321
      34A     -0.493814    35A     -0.452284    36A     -0.417358
      37A     -0.406031    38A     -0.368901    39A     -0.300717

  @DF-RHF Final Energy:  -503.71619033578361

   => Energetics <=

    Nuclear Repulsion Energy =            594.1068706005127069
    One-Electron Energy =               -1862.5897364057295817
    Two-Electron Energy =                 764.7666754694333804
    Total Energy =                       -503.7161903357836081
  Basis Set: (AUG-CC-PVTZ AUX)
    Blend: AUG-CC-PVTZ-RI
    Molecular point group: c1

    Geometry (in Angstrom), charge = 0, multiplicity = 1:

       Center              X                  Y                   Z               Mass
    ------------   -----------------  -----------------  -----------------  -----------------
         N           -1.820853824473    -0.155549964306    -0.003599848432    14.003074004430
         N           -0.302873824473    -1.843432964306    -0.011710848432    14.003074004430
         N           -0.298842824473     1.756014035694    -0.002434848432    14.003074004430
         N            2.021684175527     1.042407035694    -0.011362848432    14.003074004430
         N            2.662046775527    -1.224811464306     0.077044951568    14.003074004430
         C           -0.580325824473     0.442129035694     0.001312151568    12.000000000000
         C            0.348470775527    -0.666626164306     0.008129351568    12.000000000000
         C           -1.588480824473    -1.509518964306    -0.009795848432    12.000000000000
         C            1.694215175527    -0.259090964306    -0.002000848432    12.000000000000
         C           -3.097017824473     0.539077035694    -0.000622848432    12.000000000000
         C            1.026333175527     1.956851035694    -0.012630848432    12.000000000000
         H           -2.410184824473    -2.217356964306    -0.016145848432     1.007825032230
         H           -3.177046824473     1.175567035694    -0.883590848432     1.007825032230
         H           -3.894165824473    -0.205553964306    -0.010187848432     1.007825032230
         H           -3.182746824473     1.158554035694     0.893907151568     1.007825032230
         H            1.350926175527     2.995421035694    -0.016387848432     1.007825032230
         H            3.604911175527    -0.856827964306    -0.223039848432     1.007825032230
         H            2.447936175527    -2.126520964306    -0.224749848432     1.007825032230

  Basis Set: AUG-CC-PVTZ
    Blend: AUG-CC-PVTZ
  Basis Set: (AUG-CC-PVTZ AUX)
    Blend: AUG-CC-PVTZ-JKFIT
	 Reference Energy          =    -503.7161903357836081 [Eh]
	 Singles Energy            =      -0.0000000000000000 [Eh]
	 Same-Spin Energy          =      -0.5504899981060806 [Eh]
	 Opposite-Spin Energy      =      -1.6343205352326484 [Eh]
	 Correlation Energy        =      -2.1848105333387289 [Eh]
	 Total Energy              =    -505.9010008691223561 [Eh]

	 ================> DF-SCS-MP2 Energies <==================
	-----------------------------------------------------------
	 SCS Same-Spin Scale       =       0.3333333333333333 [-]
	 SCS Opposite-Spin Scale   =       1.2000000000000000 [-]
	 SCS Same-Spin Energy      =      -0.1834966660353602 [Eh]
	 SCS Opposite-Spin Energy  =      -1.9611846422791781 [Eh]
	 SCS Correlation Energy    =      -2.1446813083145382 [Eh]
	 SCS Total Energy          =    -505.8608716440981539 [Eh]
	-----------------------------------------------------------

  Dipole Moment: [D]
     X:    -2.8125      Y:    -1.1342      Z:    -0.7912     Total:     3.1341

*** Psi4 exiting successfully. Buy a developer a beer!
