                               Psi4 1.3.2 release

  ==> Input File <==

--------------------------------------------------------------------------
#psi4
#
memory 32 gb

molecule  {
0 1
  N       -1.7893040    -0.1617730    -0.0001110
  N       -0.2713240    -1.8496560    -0.0082220
  N       -0.2672930     1.7497910     0.0010540
  N        2.0532340     1.0361840    -0.0078740
  N        2.7268170    -1.1967150     0.0786200
  C       -0.5487760     0.4359060     0.0048010
  C        0.3666280    -0.6257540     0.0082110
  C       -1.5569310    -1.5157420    -0.0063070
  C        1.7575661    -0.2337392    -0.0151495
  C       -3.0654680     0.5328540     0.0028660
  C        1.0578830     1.9506280    -0.0091420
  H       -2.3786350    -2.2235800    -0.0126570
  H       -3.1454970     1.1693440    -0.8801020
  H       -3.8626160    -0.2117770    -0.0066990
  H       -3.1511970     1.1523310     0.8973960
  H        1.3824760     2.9891980    -0.0128990
  H        3.6219767    -0.8314826    -0.2263131
  H        2.4794860    -2.1327440    -0.2212610
units angstrom
no_reorient  #important for SAPT in psi4, default
symmetry c1  #important for SAPT in psi4, default
}

set PROPERTIES_ORIGIN ["COM"]
properties('MP2/aug-cc-pvtz', properties = ['dipole'])
--------------------------------------------------------------------------

    Molecular point group: c1
  Charge       = 0
  Multiplicity = 1
  Basis Set: AUG-CC-PVTZ
    Blend: AUG-CC-PVTZ
  Basis Set: (AUG-CC-PVTZ AUX)
    Blend: AUG-CC-PVTZ-JKFIT

    Orbital Energies [Eh]
    ---------------------

    Doubly Occupied:

       1A    -15.631850     2A    -15.581028     3A    -15.566683
       4A    -15.562901     5A    -15.551888     6A    -11.335285
       7A    -11.320159     8A    -11.314151     9A    -11.308773
      10A    -11.287791    11A    -11.253453    12A     -1.366110
      13A     -1.302788    14A     -1.242751    15A     -1.195846
      16A     -1.159753    17A     -1.026461    18A     -0.983085
      19A     -0.891720    20A     -0.870825    21A     -0.801011
      22A     -0.754729    23A     -0.724029    24A     -0.679863
      25A     -0.676780    26A     -0.665030    27A     -0.627826
      28A     -0.603723    29A     -0.596704    30A     -0.588151
      31A     -0.571102    32A     -0.539765    33A     -0.495315
      34A     -0.492760    35A     -0.451888    36A     -0.413508
      37A     -0.406981    38A     -0.371914    39A     -0.304572

  @DF-RHF Final Energy:  -503.72216715618737

   => Energetics <=

    Nuclear Repulsion Energy =            594.2222349934799013
    One-Electron Energy =               -1862.8508963632616542
    Two-Electron Energy =                 764.9064942135942147
    Total Energy =                       -503.7221671561874246
  Basis Set: (AUG-CC-PVTZ AUX)
    Blend: AUG-CC-PVTZ-RI
    Molecular point group: c1

    Geometry (in Angstrom), charge = 0, multiplicity = 1:

       Center              X                  Y                   Z               Mass
    ------------   -----------------  -----------------  -----------------  -----------------
         N           -1.825358362108    -0.165320089100    -0.001760777998    14.003074004430
         N           -0.307378362108    -1.853203089100    -0.009871777998    14.003074004430
         N           -0.303347362108     1.746243910900    -0.000595777998    14.003074004430
         N            2.017179637892     1.032636910900    -0.009523777998    14.003074004430
         N            2.690762637892    -1.200262089100     0.076970222002    14.003074004430
         C           -0.584830362108     0.432358910900     0.003151222002    12.000000000000
         C            0.330573637892    -0.629301089100     0.006561222002    12.000000000000
         C           -1.592985362108    -1.519289089100    -0.007956777998    12.000000000000
         C            1.721511737892    -0.237286289100    -0.016799277998    12.000000000000
         C           -3.101522362108     0.529306910900     0.001216222002    12.000000000000
         C            1.021828637892     1.947080910900    -0.010791777998    12.000000000000
         H           -2.414689362108    -2.227127089100    -0.014306777998     1.007825032230
         H           -3.181551362108     1.165796910900    -0.881751777998     1.007825032230
         H           -3.898670362108    -0.215324089100    -0.008348777998     1.007825032230
         H           -3.187251362108     1.148783910900     0.895746222002     1.007825032230
         H            1.346421637892     2.985650910900    -0.014548777998     1.007825032230
         H            3.585922337892    -0.835029689100    -0.227962877998     1.007825032230
         H            2.443431637892    -2.136291089100    -0.222910777998     1.007825032230

  Basis Set: AUG-CC-PVTZ
    Blend: AUG-CC-PVTZ
  Basis Set: (AUG-CC-PVTZ AUX)
    Blend: AUG-CC-PVTZ-JKFIT
	 Reference Energy          =    -503.7221671561873677 [Eh]
	 Singles Energy            =      -0.0000000000000000 [Eh]
	 Same-Spin Energy          =      -0.5493458453462883 [Eh]
	 Opposite-Spin Energy      =      -1.6330619364328403 [Eh]
	 Correlation Energy        =      -2.1824077817791285 [Eh]
	 Total Energy              =    -505.9045749379665153 [Eh]

	 ================> DF-SCS-MP2 Energies <==================
	-----------------------------------------------------------
	 SCS Same-Spin Scale       =       0.3333333333333333 [-]
	 SCS Opposite-Spin Scale   =       1.2000000000000000 [-]
	 SCS Same-Spin Energy      =      -0.1831152817820961 [Eh]
	 SCS Opposite-Spin Energy  =      -1.9596743237194083 [Eh]
	 SCS Correlation Energy    =      -2.1427896055015045 [Eh]
	 SCS Total Energy          =    -505.8649567616888589 [Eh]
	-----------------------------------------------------------

  Dipole Moment: [D]
     X:    -2.6767      Y:    -1.0481      Z:    -0.8122     Total:     2.9871

*** Psi4 exiting successfully. Buy a developer a beer!
