                               Psi4 1.3.2 release

  ==> Input File <==

--------------------------------------------------------------------------
#psi4
#
memory 32 gb

molecule  {
0 1
  N       -1.7893040    -0.1617730    -0.0001110
  N       -0.2713240    -1.8496560    -0.0082220
  N       -0.2672930     1.7497910     0.0010540
  N        2.0532340     1.0361840    -0.0078740
  N        2.7268170    -1.1967150     0.0786200
  C       -0.5487760     0.4359060     0.0048010
  C        0.3666280    -0.6257540     0.0082110
  C       -1.5569310    -1.5157420    -0.0063070
  C        1.7257650    -0.2653140     0.0014880
  C       -3.0654680     0.5328540     0.0028660
  C        1.0578830     1.9506280    -0.0091420
  H       -2.3786350    -2.2235800    -0.0126570
  H       -3.1454970     1.1693440    -0.8801020
  H       -4.0087642    -0.3482967    -0.0084526
  H       -3.1511970     1.1523310     0.8973960
  H        1.3824760     2.9891980    -0.0128990
  H        3.6364610    -0.8630510    -0.2195510
  H        2.4794860    -2.1327440    -0.2212610
units angstrom
no_reorient  #important for SAPT in psi4, default
symmetry c1  #important for SAPT in psi4, default
}

set PROPERTIES_ORIGIN ["COM"]
properties('MP2/aug-cc-pvtz', properties = ['dipole'])
--------------------------------------------------------------------------

    Molecular point group: c1
  Charge       = 0
  Multiplicity = 1
  Basis Set: AUG-CC-PVTZ
    Blend: AUG-CC-PVTZ
  Basis Set: (AUG-CC-PVTZ AUX)
    Blend: AUG-CC-PVTZ-JKFIT

    Orbital Energies [Eh]
    ---------------------

    Doubly Occupied:

       1A    -15.635050     2A    -15.581582     3A    -15.567816
       4A    -15.561723     5A    -15.553148     6A    -11.335256
       7A    -11.322959     8A    -11.314590     9A    -11.312423
      10A    -11.310651    11A    -11.252810    12A     -1.368783
      13A     -1.296920    14A     -1.243075    15A     -1.196950
      16A     -1.152520    17A     -1.031418    18A     -0.975801
      19A     -0.891359    20A     -0.872997    21A     -0.799656
      22A     -0.752020    23A     -0.725011    24A     -0.677694
      25A     -0.673023    26A     -0.668321    27A     -0.625528
      28A     -0.606104    29A     -0.595685    30A     -0.589068
      31A     -0.539617    32A     -0.537973    33A     -0.496379
      34A     -0.492972    35A     -0.451148    36A     -0.415206
      37A     -0.409419    38A     -0.369378    39A     -0.308490

  @DF-RHF Final Energy:  -503.70413751676762

   => Energetics <=

    Nuclear Repulsion Energy =            593.4803223853776899
    One-Electron Energy =               -1861.3478715223525342
    Two-Electron Energy =                 764.1634116202073983
    Total Energy =                       -503.7041375167675596
  Basis Set: (AUG-CC-PVTZ AUX)
    Blend: AUG-CC-PVTZ-RI
    Molecular point group: c1

    Geometry (in Angstrom), charge = 0, multiplicity = 1:

       Center              X                  Y                   Z               Mass
    ------------   -----------------  -----------------  -----------------  -----------------
         N           -1.821908258981    -0.161641948223    -0.003133941560    14.003074004430
         N           -0.303928258981    -1.849524948223    -0.011244941560    14.003074004430
         N           -0.299897258981     1.749922051777    -0.001968941560    14.003074004430
         N            2.020629741019     1.036315051777    -0.010896941560    14.003074004430
         N            2.694212741019    -1.196583948223     0.075597058440    14.003074004430
         C           -0.581380258981     0.436037051777     0.001778058440    12.000000000000
         C            0.334023741019    -0.625622948223     0.005188058440    12.000000000000
         C           -1.589535258981    -1.515610948223    -0.009329941560    12.000000000000
         C            1.693160741019    -0.265182948223    -0.001534941560    12.000000000000
         C           -3.098072258981     0.532985051777    -0.000156941560    12.000000000000
         C            1.025278741019     1.950759051777    -0.012164941560    12.000000000000
         H           -2.411239258981    -2.223448948223    -0.015679941560     1.007825032230
         H           -3.178101258981     1.169475051777    -0.883124941560     1.007825032230
         H           -4.041368458981    -0.348165648223    -0.011475541560     1.007825032230
         H           -3.183801258981     1.152462051777     0.894373058440     1.007825032230
         H            1.349871741019     2.989329051777    -0.015921941560     1.007825032230
         H            3.603856741019    -0.862919948223    -0.222573941560     1.007825032230
         H            2.446881741019    -2.132612948223    -0.224283941560     1.007825032230

  Basis Set: AUG-CC-PVTZ
    Blend: AUG-CC-PVTZ
  Basis Set: (AUG-CC-PVTZ AUX)
    Blend: AUG-CC-PVTZ-JKFIT
	 Reference Energy          =    -503.7041375167676165 [Eh]
	 Singles Energy            =      -0.0000000000000000 [Eh]
	 Same-Spin Energy          =      -0.5493876471967644 [Eh]
	 Opposite-Spin Energy      =      -1.6348944822986962 [Eh]
	 Correlation Energy        =      -2.1842821294954606 [Eh]
	 Total Energy              =    -505.8884196462630598 [Eh]

	 ================> DF-SCS-MP2 Energies <==================
	-----------------------------------------------------------
	 SCS Same-Spin Scale       =       0.3333333333333333 [-]
	 SCS Opposite-Spin Scale   =       1.2000000000000000 [-]
	 SCS Same-Spin Energy      =      -0.1831292157322548 [Eh]
	 SCS Opposite-Spin Energy  =      -1.9618733787584353 [Eh]
	 SCS Correlation Energy    =      -2.1450025944906899 [Eh]
	 SCS Total Energy          =    -505.8491401112582935 [Eh]
	-----------------------------------------------------------

  Dipole Moment: [D]
     X:    -2.6296      Y:    -1.1348      Z:    -0.7884     Total:     2.9705

*** Psi4 exiting successfully. Buy a developer a beer!
