                               Psi4 1.3.2 release

  ==> Input File <==

--------------------------------------------------------------------------
#psi4
#
memory 32 gb

molecule  {
0 1
  N       -1.7840411    -0.1725758    -0.0000921
  N       -0.2713240    -1.8496560    -0.0082220
  N       -0.2672930     1.7497910     0.0010540
  N        2.0532340     1.0361840    -0.0078740
  N        2.7268170    -1.1967150     0.0786200
  C       -0.5487760     0.4359060     0.0048010
  C        0.3573286    -0.6337019     0.0081737
  C       -1.5569310    -1.5157420    -0.0063070
  C        1.7257650    -0.2653140     0.0014880
  C       -3.0654680     0.5328540     0.0028660
  C        1.0578830     1.9506280    -0.0091420
  H       -2.3786350    -2.2235800    -0.0126570
  H       -3.1454970     1.1693440    -0.8801020
  H       -3.8626160    -0.2117770    -0.0066990
  H       -3.1511970     1.1523310     0.8973960
  H        1.3824760     2.9891980    -0.0128990
  H        3.6364610    -0.8630510    -0.2195510
  H        2.4794860    -2.1327440    -0.2212610
units angstrom
no_reorient  #important for SAPT in psi4, default
symmetry c1  #important for SAPT in psi4, default
}

set PROPERTIES_ORIGIN ["COM"]
properties('MP2/aug-cc-pvtz', properties = ['dipole'])
--------------------------------------------------------------------------

    Molecular point group: c1
  Charge       = 0
  Multiplicity = 1
  Basis Set: AUG-CC-PVTZ
    Blend: AUG-CC-PVTZ
  Basis Set: (AUG-CC-PVTZ AUX)
    Blend: AUG-CC-PVTZ-JKFIT

    Orbital Energies [Eh]
    ---------------------

    Doubly Occupied:

       1A    -15.633494     2A    -15.581230     3A    -15.565365
       4A    -15.560819     5A    -15.552458     6A    -11.335532
       7A    -11.320747     8A    -11.311412     9A    -11.311276
      10A    -11.289758    11A    -11.251986    12A     -1.370278
      13A     -1.296057    14A     -1.242329    15A     -1.197194
      16A     -1.151830    17A     -1.030316    18A     -0.986207
      19A     -0.891399    20A     -0.871519    21A     -0.802251
      22A     -0.753342    23A     -0.725192    24A     -0.680907
      25A     -0.673490    26A     -0.666442    27A     -0.623873
      28A     -0.605464    29A     -0.596363    30A     -0.590902
      31A     -0.570888    32A     -0.538194    33A     -0.495613
      34A     -0.492481    35A     -0.451757    36A     -0.414424
      37A     -0.408017    38A     -0.369388    39A     -0.305620

  @DF-RHF Final Energy:  -503.72447059622499

   => Energetics <=

    Nuclear Repulsion Energy =            594.4386451692209903
    One-Electron Energy =               -1863.2946064374743855
    Two-Electron Energy =                 765.1314906720284625
    Total Energy =                       -503.7244705962249327
  Basis Set: (AUG-CC-PVTZ AUX)
    Blend: AUG-CC-PVTZ-RI
    Molecular point group: c1

    Geometry (in Angstrom), charge = 0, multiplicity = 1:

       Center              X                  Y                   Z               Mass
    ------------   -----------------  -----------------  -----------------  -----------------
         N           -1.817379213452    -0.171713151452    -0.003125669980    14.003074004430
         N           -0.304662113452    -1.848793351452    -0.011255569980    14.003074004430
         N           -0.300631113452     1.750653648548    -0.001979569980    14.003074004430
         N            2.019895886548     1.037046648548    -0.010907569980    14.003074004430
         N            2.693478886548    -1.195852351452     0.075586430020    14.003074004430
         C           -0.582114113452     0.436768648548     0.001767430020    12.000000000000
         C            0.323990486548    -0.632839251452     0.005140130020    12.000000000000
         C           -1.590269113452    -1.514879351452    -0.009340569980    12.000000000000
         C            1.692426886548    -0.264451351452    -0.001545569980    12.000000000000
         C           -3.098806113452     0.533716648548    -0.000167569980    12.000000000000
         C            1.024544886548     1.951490648548    -0.012175569980    12.000000000000
         H           -2.411973113452    -2.222717351452    -0.015690569980     1.007825032230
         H           -3.178835113452     1.170206648548    -0.883135569980     1.007825032230
         H           -3.895954113452    -0.210914351452    -0.009732569980     1.007825032230
         H           -3.184535113452     1.153193648548     0.894362430020     1.007825032230
         H            1.349137886548     2.990060648548    -0.015932569980     1.007825032230
         H            3.603122886548    -0.862188351452    -0.222584569980     1.007825032230
         H            2.446147886548    -2.131881351452    -0.224294569980     1.007825032230

  Basis Set: AUG-CC-PVTZ
    Blend: AUG-CC-PVTZ
  Basis Set: (AUG-CC-PVTZ AUX)
    Blend: AUG-CC-PVTZ-JKFIT
	 Reference Energy          =    -503.7244705962249895 [Eh]
	 Singles Energy            =      -0.0000000000000000 [Eh]
	 Same-Spin Energy          =      -0.5494349242817429 [Eh]
	 Opposite-Spin Energy      =      -1.6330846029068906 [Eh]
	 Correlation Energy        =      -2.1825195271886333 [Eh]
	 Total Energy              =    -505.9069901234136069 [Eh]

	 ================> DF-SCS-MP2 Energies <==================
	-----------------------------------------------------------
	 SCS Same-Spin Scale       =       0.3333333333333333 [-]
	 SCS Opposite-Spin Scale   =       1.2000000000000000 [-]
	 SCS Same-Spin Energy      =      -0.1831449747605809 [Eh]
	 SCS Opposite-Spin Energy  =      -1.9597015234882686 [Eh]
	 SCS Correlation Energy    =      -2.1428464982488498 [Eh]
	 SCS Total Energy          =    -505.8673170944738331 [Eh]
	-----------------------------------------------------------

  Dipole Moment: [D]
     X:    -2.7555      Y:    -1.1482      Z:    -0.7880     Total:     3.0875

*** Psi4 exiting successfully. Buy a developer a beer!
