                               Psi4 1.3.2 release

  ==> Input File <==

--------------------------------------------------------------------------
#psi4
#
memory 32 gb

molecule  {
0 1
  N       -1.7893040    -0.1617730    -0.0001110
  N       -0.2713240    -1.8496560    -0.0082220
  N       -0.2672930     1.7497910     0.0010540
  N        2.0532340     1.0361840    -0.0078740
  N        2.7268170    -1.1967150     0.0786200
  C       -0.5487760     0.4359060     0.0048010
  C        0.3013269    -0.5500196     0.0079677
  C       -1.5569310    -1.5157420    -0.0063070
  C        1.7257650    -0.2653140     0.0014880
  C       -3.0654680     0.5328540     0.0028660
  C        1.0578830     1.9506280    -0.0091420
  H       -2.3786350    -2.2235800    -0.0126570
  H       -3.1454970     1.1693440    -0.8801020
  H       -3.8626160    -0.2117770    -0.0066990
  H       -3.1511970     1.1523310     0.8973960
  H        1.3824760     2.9891980    -0.0128990
  H        3.6364610    -0.8630510    -0.2195510
  H        2.4794860    -2.1327440    -0.2212610
units angstrom
no_reorient  #important for SAPT in psi4, default
symmetry c1  #important for SAPT in psi4, default
}

set PROPERTIES_ORIGIN ["COM"]
properties('MP2/aug-cc-pvtz', properties = ['dipole'])
--------------------------------------------------------------------------

    Molecular point group: c1
  Charge       = 0
  Multiplicity = 1
  Basis Set: AUG-CC-PVTZ
    Blend: AUG-CC-PVTZ
  Basis Set: (AUG-CC-PVTZ AUX)
    Blend: AUG-CC-PVTZ-JKFIT

    Orbital Energies [Eh]
    ---------------------

    Doubly Occupied:

       1A    -15.626370     2A    -15.589034     3A    -15.566274
       4A    -15.557878     5A    -15.551496     6A    -11.343174
       7A    -11.320825     8A    -11.311366     9A    -11.298050
      10A    -11.285433    11A    -11.246646    12A     -1.369772
      13A     -1.296854    14A     -1.241613    15A     -1.190085
      16A     -1.152860    17A     -1.041442    18A     -0.979488
      19A     -0.889622    20A     -0.865231    21A     -0.812967
      22A     -0.755115    23A     -0.720264    24A     -0.681220
      25A     -0.670135    26A     -0.666333    27A     -0.625015
      28A     -0.607926    29A     -0.594224    30A     -0.586633
      31A     -0.569756    32A     -0.537468    33A     -0.494113
      34A     -0.490872    35A     -0.450526    36A     -0.411871
      37A     -0.405897    38A     -0.371286    39A     -0.316768

  @DF-RHF Final Energy:  -503.71366679719529

   => Energetics <=

    Nuclear Repulsion Energy =            595.3085019098743942
    One-Electron Energy =               -1865.0605415452059788
    Two-Electron Energy =                 766.0383728381362971
    Total Energy =                       -503.7136667971952875
  Basis Set: (AUG-CC-PVTZ AUX)
    Blend: AUG-CC-PVTZ-RI
    Molecular point group: c1

    Geometry (in Angstrom), charge = 0, multiplicity = 1:

       Center              X                  Y                   Z               Mass
    ------------   -----------------  -----------------  -----------------  -----------------
         N           -1.817639655200    -0.168661467586    -0.003126211790    14.003074004430
         N           -0.299659655200    -1.856544467586    -0.011237211790    14.003074004430
         N           -0.295628655200     1.742902532414    -0.001961211790    14.003074004430
         N            2.024898344800     1.029295532414    -0.010889211790    14.003074004430
         N            2.698481344800    -1.203603467586     0.075604788210    14.003074004430
         C           -0.577111655200     0.429017532414     0.001785788210    12.000000000000
         C            0.272991244800    -0.556908067586     0.004952488210    12.000000000000
         C           -1.585266655200    -1.522630467586    -0.009322211790    12.000000000000
         C            1.697429344800    -0.272202467586    -0.001527211790    12.000000000000
         C           -3.093803655200     0.525965532414    -0.000149211790    12.000000000000
         C            1.029547344800     1.943739532414    -0.012157211790    12.000000000000
         H           -2.406970655200    -2.230468467586    -0.015672211790     1.007825032230
         H           -3.173832655200     1.162455532414    -0.883117211790     1.007825032230
         H           -3.890951655200    -0.218665467586    -0.009714211790     1.007825032230
         H           -3.179532655200     1.145442532414     0.894380788210     1.007825032230
         H            1.354140344800     2.982309532414    -0.015914211790     1.007825032230
         H            3.608125344800    -0.869939467586    -0.222566211790     1.007825032230
         H            2.451150344800    -2.139632467586    -0.224276211790     1.007825032230

  Basis Set: AUG-CC-PVTZ
    Blend: AUG-CC-PVTZ
  Basis Set: (AUG-CC-PVTZ AUX)
    Blend: AUG-CC-PVTZ-JKFIT
	 Reference Energy          =    -503.7136667971952875 [Eh]
	 Singles Energy            =      -0.0000000000000000 [Eh]
	 Same-Spin Energy          =      -0.5478466243388622 [Eh]
	 Opposite-Spin Energy      =      -1.6323223716937365 [Eh]
	 Correlation Energy        =      -2.1801689960325987 [Eh]
	 Total Energy              =    -505.8938357932278791 [Eh]

	 ================> DF-SCS-MP2 Energies <==================
	-----------------------------------------------------------
	 SCS Same-Spin Scale       =       0.3333333333333333 [-]
	 SCS Opposite-Spin Scale   =       1.2000000000000000 [-]
	 SCS Same-Spin Energy      =      -0.1826155414462874 [Eh]
	 SCS Opposite-Spin Energy  =      -1.9587868460324838 [Eh]
	 SCS Correlation Energy    =      -2.1414023874787711 [Eh]
	 SCS Total Energy          =    -505.8550691846740506 [Eh]
	-----------------------------------------------------------

  Dipole Moment: [D]
     X:    -2.4392      Y:    -1.2016      Z:    -0.7848     Total:     2.8301

*** Psi4 exiting successfully. Buy a developer a beer!
