                               Psi4 1.3.2 release

  ==> Input File <==

--------------------------------------------------------------------------
#psi4
#
memory 32 gb

molecule  {
0 1
  N       -1.7893040    -0.1617730    -0.0001110
  N       -0.2713240    -1.8496560    -0.0082220
  N       -0.2672930     1.7497910     0.0010540
  N        2.0532340     1.0361840    -0.0078740
  N        2.7268170    -1.1967150     0.0786200
  C       -0.5487760     0.4359060     0.0048010
  C        0.4319291    -0.7014884     0.0084543
  C       -1.5569310    -1.5157420    -0.0063070
  C        1.7257650    -0.2653140     0.0014880
  C       -3.0654680     0.5328540     0.0028660
  C        1.0578830     1.9506280    -0.0091420
  H       -2.3786350    -2.2235800    -0.0126570
  H       -3.1454970     1.1693440    -0.8801020
  H       -3.8626160    -0.2117770    -0.0066990
  H       -3.1511970     1.1523310     0.8973960
  H        1.3824760     2.9891980    -0.0128990
  H        3.6364610    -0.8630510    -0.2195510
  H        2.4794860    -2.1327440    -0.2212610
units angstrom
no_reorient  #important for SAPT in psi4, default
symmetry c1  #important for SAPT in psi4, default
}

set PROPERTIES_ORIGIN ["COM"]
properties('MP2/aug-cc-pvtz', properties = ['dipole'])
--------------------------------------------------------------------------

    Molecular point group: c1
  Charge       = 0
  Multiplicity = 1
  Basis Set: AUG-CC-PVTZ
    Blend: AUG-CC-PVTZ
  Basis Set: (AUG-CC-PVTZ AUX)
    Blend: AUG-CC-PVTZ-JKFIT

    Orbital Energies [Eh]
    ---------------------

    Doubly Occupied:

       1A    -15.638795     2A    -15.572962     3A    -15.568591
       4A    -15.562783     5A    -15.553111     6A    -11.326442
       7A    -11.325030     8A    -11.323849     9A    -11.312225
      10A    -11.291633    11A    -11.257122    12A     -1.366453
      13A     -1.295523    14A     -1.244252    15A     -1.201924
      16A     -1.150877    17A     -1.025300    18A     -0.991555
      19A     -0.895498    20A     -0.877076    21A     -0.791932
      22A     -0.751899    23A     -0.731692    24A     -0.680858
      25A     -0.673153    26A     -0.666842    27A     -0.627676
      28A     -0.601410    29A     -0.599924    30A     -0.591700
      31A     -0.572194    32A     -0.536491    33A     -0.498075
      34A     -0.494515    35A     -0.447393    36A     -0.418860
      37A     -0.403774    38A     -0.366756    39A     -0.300369

  @DF-RHF Final Energy:  -503.71010666779205

   => Energetics <=

    Nuclear Repulsion Energy =            593.4397091762589298
    One-Electron Energy =               -1861.2266081751499769
    Two-Electron Energy =                 764.0767923310990000
    Total Energy =                       -503.7101066677920471
  Basis Set: (AUG-CC-PVTZ AUX)
    Blend: AUG-CC-PVTZ-RI
    Molecular point group: c1

    Geometry (in Angstrom), charge = 0, multiplicity = 1:

       Center              X                  Y                   Z               Mass
    ------------   -----------------  -----------------  -----------------  -----------------
         N           -1.828153003781    -0.156468378239    -0.003165382611    14.003074004430
         N           -0.310173003781    -1.844351378239    -0.011276382611    14.003074004430
         N           -0.306142003781     1.755095621761    -0.002000382611    14.003074004430
         N            2.014384996219     1.041488621761    -0.010928382611    14.003074004430
         N            2.687967996219    -1.191410378239     0.075565617389    14.003074004430
         C           -0.587625003781     0.441210621761     0.001746617389    12.000000000000
         C            0.393080096219    -0.696183778239     0.005399917389    12.000000000000
         C           -1.595780003781    -1.510437378239    -0.009361382611    12.000000000000
         C            1.686915996219    -0.260009378239    -0.001566382611    12.000000000000
         C           -3.104317003781     0.538158621761    -0.000188382611    12.000000000000
         C            1.019033996219     1.955932621761    -0.012196382611    12.000000000000
         H           -2.417484003781    -2.218275378239    -0.015711382611     1.007825032230
         H           -3.184346003781     1.174648621761    -0.883156382611     1.007825032230
         H           -3.901465003781    -0.206472378239    -0.009753382611     1.007825032230
         H           -3.190046003781     1.157635621761     0.894341617389     1.007825032230
         H            1.343626996219     2.994502621761    -0.015953382611     1.007825032230
         H            3.597611996219    -0.857746378239    -0.222605382611     1.007825032230
         H            2.440636996219    -2.127439378239    -0.224315382611     1.007825032230

  Basis Set: AUG-CC-PVTZ
    Blend: AUG-CC-PVTZ
  Basis Set: (AUG-CC-PVTZ AUX)
    Blend: AUG-CC-PVTZ-JKFIT
	 Reference Energy          =    -503.7101066677920471 [Eh]
	 Singles Energy            =      -0.0000000000000000 [Eh]
	 Same-Spin Energy          =      -0.5509398268140178 [Eh]
	 Opposite-Spin Energy      =      -1.6349621414563762 [Eh]
	 Correlation Energy        =      -2.1859019682703940 [Eh]
	 Total Energy              =    -505.8960086360624473 [Eh]

	 ================> DF-SCS-MP2 Energies <==================
	-----------------------------------------------------------
	 SCS Same-Spin Scale       =       0.3333333333333333 [-]
	 SCS Opposite-Spin Scale   =       1.2000000000000000 [-]
	 SCS Same-Spin Energy      =      -0.1836466089380059 [Eh]
	 SCS Opposite-Spin Energy  =      -1.9619545697476513 [Eh]
	 SCS Correlation Energy    =      -2.1456011786856570 [Eh]
	 SCS Total Energy          =    -505.8557078464776851 [Eh]
	-----------------------------------------------------------

  Dipole Moment: [D]
     X:    -2.9933      Y:    -1.1120      Z:    -0.7927     Total:     3.2901

*** Psi4 exiting successfully. Buy a developer a beer!
