                               Psi4 1.3.2 release

  ==> Input File <==

--------------------------------------------------------------------------
#psi4
#
memory 32 gb

molecule  {
0 1
  N       -1.7563240    -0.2258786     0.0000082
  N       -0.2713240    -1.8496560    -0.0082220
  N       -0.2672930     1.7497910     0.0010540
  N        2.0532340     1.0361840    -0.0078740
  N        2.7268170    -1.1967150     0.0786200
  C       -0.5487760     0.4359060     0.0048010
  C        0.3098109    -0.6722079     0.0079833
  C       -1.5569310    -1.5157420    -0.0063070
  C        1.7257650    -0.2653140     0.0014880
  C       -3.0654680     0.5328540     0.0028660
  C        1.0578830     1.9506280    -0.0091420
  H       -2.3786350    -2.2235800    -0.0126570
  H       -3.1454970     1.1693440    -0.8801020
  H       -3.8626160    -0.2117770    -0.0066990
  H       -3.1511970     1.1523310     0.8973960
  H        1.3824760     2.9891980    -0.0128990
  H        3.6364610    -0.8630510    -0.2195510
  H        2.4794860    -2.1327440    -0.2212610
units angstrom
no_reorient  #important for SAPT in psi4, default
symmetry c1  #important for SAPT in psi4, default
}

set PROPERTIES_ORIGIN ["COM"]
properties('MP2/aug-cc-pvtz', properties = ['dipole'])
--------------------------------------------------------------------------

    Molecular point group: c1
  Charge       = 0
  Multiplicity = 1
  Basis Set: AUG-CC-PVTZ
    Blend: AUG-CC-PVTZ
  Basis Set: (AUG-CC-PVTZ AUX)
    Blend: AUG-CC-PVTZ-JKFIT

    Orbital Energies [Eh]
    ---------------------

    Doubly Occupied:

       1A    -15.635544     2A    -15.582104     3A    -15.561185
       4A    -15.555511     5A    -15.552384     6A    -11.339429
       7A    -11.311737     8A    -11.310072     9A    -11.302418
      10A    -11.295038    11A    -11.252836    12A     -1.386039
      13A     -1.295109    14A     -1.242526    15A     -1.200482
      16A     -1.151425    17A     -1.026367    18A     -0.987883
      19A     -0.893751    20A     -0.867545    21A     -0.799829
      22A     -0.753053    23A     -0.732214    24A     -0.682410
      25A     -0.673990    26A     -0.668183    27A     -0.620123
      28A     -0.603646    29A     -0.594818    30A     -0.587919
      31A     -0.560745    32A     -0.544594    33A     -0.495520
      34A     -0.490851    35A     -0.457615    36A     -0.417321
      37A     -0.403628    38A     -0.373908    39A     -0.295257

  @DF-RHF Final Energy:  -503.70923215260996

   => Energetics <=

    Nuclear Repulsion Energy =            595.1383208809869529
    One-Electron Energy =               -1864.6850913460236825
    Two-Electron Energy =                 765.8375383124268865
    Total Energy =                       -503.7092321526099568
  Basis Set: (AUG-CC-PVTZ AUX)
    Blend: AUG-CC-PVTZ-RI
    Molecular point group: c1

    Geometry (in Angstrom), charge = 0, multiplicity = 1:

       Center              X                  Y                   Z               Mass
    ------------   -----------------  -----------------  -----------------  -----------------
         N           -1.788440622742    -0.216909197072    -0.003019464762    14.003074004430
         N           -0.303440622742    -1.840686597072    -0.011249664762    14.003074004430
         N           -0.299409622742     1.758760402928    -0.001973664762    14.003074004430
         N            2.021117377258     1.045153402928    -0.010901664762    14.003074004430
         N            2.694700377258    -1.187745597072     0.075592335238    14.003074004430
         C           -0.580892622742     0.444875402928     0.001773335238    12.000000000000
         C            0.277694277258    -0.663238497072     0.004955635238    12.000000000000
         C           -1.589047622742    -1.506772597072    -0.009334664762    12.000000000000
         C            1.693648377258    -0.256344597072    -0.001539664762    12.000000000000
         C           -3.097584622742     0.541823402928    -0.000161664762    12.000000000000
         C            1.025766377258     1.959597402928    -0.012169664762    12.000000000000
         H           -2.410751622742    -2.214610597072    -0.015684664762     1.007825032230
         H           -3.177613622742     1.178313402928    -0.883129664762     1.007825032230
         H           -3.894732622742    -0.202807597072    -0.009726664762     1.007825032230
         H           -3.183313622742     1.161300402928     0.894368335238     1.007825032230
         H            1.350359377258     2.998167402928    -0.015926664762     1.007825032230
         H            3.604344377258    -0.854081597072    -0.222578664762     1.007825032230
         H            2.447369377258    -2.123774597072    -0.224288664762     1.007825032230

  Basis Set: AUG-CC-PVTZ
    Blend: AUG-CC-PVTZ
  Basis Set: (AUG-CC-PVTZ AUX)
    Blend: AUG-CC-PVTZ-JKFIT
	 Reference Energy          =    -503.7092321526099568 [Eh]
	 Singles Energy            =      -0.0000000000000000 [Eh]
	 Same-Spin Energy          =      -0.5504376463436814 [Eh]
	 Opposite-Spin Energy      =      -1.6334569736108282 [Eh]
	 Correlation Energy        =      -2.1838946199545095 [Eh]
	 Total Energy              =    -505.8931267725644716 [Eh]

	 ================> DF-SCS-MP2 Energies <==================
	-----------------------------------------------------------
	 SCS Same-Spin Scale       =       0.3333333333333333 [-]
	 SCS Opposite-Spin Scale   =       1.2000000000000000 [-]
	 SCS Same-Spin Energy      =      -0.1834792154478938 [Eh]
	 SCS Opposite-Spin Energy  =      -1.9601483683329937 [Eh]
	 SCS Correlation Energy    =      -2.1436275837808876 [Eh]
	 SCS Total Energy          =    -505.8528597363908261 [Eh]
	-----------------------------------------------------------

  Dipole Moment: [D]
     X:    -2.8825      Y:    -1.1289      Z:    -0.7836     Total:     3.1933

*** Psi4 exiting successfully. Buy a developer a beer!
