                               Psi4 1.3.2 release

  ==> Input File <==

--------------------------------------------------------------------------
#psi4
#
memory 32 gb

molecule  {
0 1
  N       -1.7893040    -0.1617730    -0.0001110
  N       -0.2713240    -1.8496560    -0.0082220
  N       -0.2672930     1.7497910     0.0010540
  N        2.0532340     1.0361840    -0.0078740
  N        2.7268170    -1.1967150     0.0786200
  C       -0.5487760     0.4359060     0.0048010
  C        0.3666280    -0.6257540     0.0082110
  C       -1.5569310    -1.5157420    -0.0063070
  C        1.7257650    -0.2653140     0.0014880
  C       -3.0654680     0.5328540     0.0028660
  C        1.0578830     1.9506280    -0.0091420
  H       -2.3028713    -2.1583151    -0.0120715
  H       -3.1454970     1.1693440    -0.8801020
  H       -3.8626160    -0.2117770    -0.0066990
  H       -3.1511970     1.1523310     0.8973960
  H        1.3824760     2.9891980    -0.0128990
  H        3.6364610    -0.8630510    -0.2195510
  H        2.4794860    -2.1327440    -0.2212610
units angstrom
no_reorient  #important for SAPT in psi4, default
symmetry c1  #important for SAPT in psi4, default
}

set PROPERTIES_ORIGIN ["COM"]
properties('MP2/aug-cc-pvtz', properties = ['dipole'])
--------------------------------------------------------------------------

    Molecular point group: c1
  Charge       = 0
  Multiplicity = 1
  Basis Set: AUG-CC-PVTZ
    Blend: AUG-CC-PVTZ
  Basis Set: (AUG-CC-PVTZ AUX)
    Blend: AUG-CC-PVTZ-JKFIT

    Orbital Energies [Eh]
    ---------------------

    Doubly Occupied:

       1A    -15.632387     2A    -15.580970     3A    -15.567037
       4A    -15.560524     5A    -15.552261     6A    -11.334422
       7A    -11.312662     8A    -11.311523     9A    -11.311397
      10A    -11.288880    11A    -11.251448    12A     -1.367605
      13A     -1.296165    14A     -1.242169    15A     -1.196485
      16A     -1.151873    17A     -1.034126    18A     -0.986394
      19A     -0.899878    20A     -0.871921    21A     -0.808013
      22A     -0.756416    23A     -0.726716    24A     -0.684328
      25A     -0.674450    26A     -0.666238    27A     -0.630250
      28A     -0.608044    29A     -0.599330    30A     -0.592258
      31A     -0.572136    32A     -0.536660    33A     -0.495448
      34A     -0.492572    35A     -0.450753    36A     -0.413943
      37A     -0.408400    38A     -0.368214    39A     -0.307715

  @DF-RHF Final Energy:  -503.71895457582696

   => Energetics <=

    Nuclear Repulsion Energy =            594.9227773422347809
    One-Electron Energy =               -1864.1994426053904590
    Two-Electron Energy =                 765.5577106873288358
    Total Energy =                       -503.7189545758269560
  Basis Set: (AUG-CC-PVTZ AUX)
    Blend: AUG-CC-PVTZ-RI
    Molecular point group: c1

    Geometry (in Angstrom), charge = 0, multiplicity = 1:

       Center              X                  Y                   Z               Mass
    ------------   -----------------  -----------------  -----------------  -----------------
         N           -1.823408548442    -0.163006162168    -0.003149755616    14.003074004430
         N           -0.305428548442    -1.850889162168    -0.011260755616    14.003074004430
         N           -0.301397548442     1.748557837832    -0.001984755616    14.003074004430
         N            2.019129451558     1.034950837832    -0.010912755616    14.003074004430
         N            2.692712451558    -1.197948162168     0.075581244384    14.003074004430
         C           -0.582880548442     0.434672837832     0.001762244384    12.000000000000
         C            0.332523451558    -0.626987162168     0.005172244384    12.000000000000
         C           -1.591035548442    -1.516975162168    -0.009345755616    12.000000000000
         C            1.691660451558    -0.266547162168    -0.001550755616    12.000000000000
         C           -3.099572548442     0.531620837832    -0.000172755616    12.000000000000
         C            1.023778451558     1.949394837832    -0.012180755616    12.000000000000
         H           -2.336975848442    -2.159548262168    -0.015110255616     1.007825032230
         H           -3.179601548442     1.168110837832    -0.883140755616     1.007825032230
         H           -3.896720548442    -0.213010162168    -0.009737755616     1.007825032230
         H           -3.185301548442     1.151097837832     0.894357244384     1.007825032230
         H            1.348371451558     2.987964837832    -0.015937755616     1.007825032230
         H            3.602356451558    -0.864284162168    -0.222589755616     1.007825032230
         H            2.445381451558    -2.133977162168    -0.224299755616     1.007825032230

  Basis Set: AUG-CC-PVTZ
    Blend: AUG-CC-PVTZ
  Basis Set: (AUG-CC-PVTZ AUX)
    Blend: AUG-CC-PVTZ-JKFIT
	 Reference Energy          =    -503.7189545758269560 [Eh]
	 Singles Energy            =      -0.0000000000000000 [Eh]
	 Same-Spin Energy          =      -0.5490500617684291 [Eh]
	 Opposite-Spin Energy      =      -1.6326295456208930 [Eh]
	 Correlation Energy        =      -2.1816796073893219 [Eh]
	 Total Energy              =    -505.9006341832162548 [Eh]

	 ================> DF-SCS-MP2 Energies <==================
	-----------------------------------------------------------
	 SCS Same-Spin Scale       =       0.3333333333333333 [-]
	 SCS Opposite-Spin Scale   =       1.2000000000000000 [-]
	 SCS Same-Spin Energy      =      -0.1830166872561430 [Eh]
	 SCS Opposite-Spin Energy  =      -1.9591554547450716 [Eh]
	 SCS Correlation Energy    =      -2.1421721420012148 [Eh]
	 SCS Total Energy          =    -505.8611267178281423 [Eh]
	-----------------------------------------------------------

  Dipole Moment: [D]
     X:    -2.7355      Y:    -1.1437      Z:    -0.7889     Total:     3.0682

*** Psi4 exiting successfully. Buy a developer a beer!
