                               Psi4 1.3.2 release

  ==> Input File <==

--------------------------------------------------------------------------
#psi4
#
memory 32 gb

molecule  {
0 1
  N       -1.7893040    -0.1617730    -0.0001110
  N       -0.2063957    -1.8813736    -0.0076682
  N       -0.2672930     1.7497910     0.0010540
  N        2.0532340     1.0361840    -0.0078740
  N        2.7268170    -1.1967150     0.0786200
  C       -0.4919652     0.4823570     0.0058167
  C        0.3666280    -0.6257540     0.0082110
  C       -1.5569310    -1.5157420    -0.0063070
  C        1.7257650    -0.2653140     0.0014880
  C       -3.0654680     0.5328540     0.0028660
  C        1.0578830     1.9506280    -0.0091420
  H       -2.3786350    -2.2235800    -0.0126570
  H       -3.1454970     1.1693440    -0.8801020
  H       -3.8626160    -0.2117770    -0.0066990
  H       -3.1511970     1.1523310     0.8973960
  H        1.3824760     2.9891980    -0.0128990
  H        3.6364610    -0.8630510    -0.2195510
  H        2.4794860    -2.1327440    -0.2212610
units angstrom
no_reorient  #important for SAPT in psi4, default
symmetry c1  #important for SAPT in psi4, default
}

set PROPERTIES_ORIGIN ["COM"]
properties('MP2/aug-cc-pvtz', properties = ['dipole'])
--------------------------------------------------------------------------

    Molecular point group: c1
  Charge       = 0
  Multiplicity = 1
  Basis Set: AUG-CC-PVTZ
    Blend: AUG-CC-PVTZ
  Basis Set: (AUG-CC-PVTZ AUX)
    Blend: AUG-CC-PVTZ-JKFIT

    Orbital Energies [Eh]
    ---------------------

    Doubly Occupied:

       1A    -15.634456     2A    -15.578904     3A    -15.572157
       4A    -15.564164     5A    -15.556495     6A    -11.335306
       7A    -11.330442     8A    -11.315267     9A    -11.313718
      10A    -11.287595    11A    -11.254592    12A     -1.354109
      13A     -1.297943    14A     -1.251092    15A     -1.183766
      16A     -1.160014    17A     -1.025320    18A     -0.982554
      19A     -0.887239    20A     -0.875104    21A     -0.804050
      22A     -0.754328    23A     -0.717921    24A     -0.680362
      25A     -0.669198    26A     -0.659792    27A     -0.624812
      28A     -0.604275    29A     -0.596678    30A     -0.588419
      31A     -0.557360    32A     -0.529292    33A     -0.502203
      34A     -0.500113    35A     -0.457584    36A     -0.415907
      37A     -0.406818    38A     -0.377357    39A     -0.297760

  @DF-RHF Final Energy:  -503.70446205298458

   => Energetics <=

    Nuclear Repulsion Energy =            593.0511204018052922
    One-Electron Energy =               -1860.5022360765569829
    Two-Electron Energy =                 763.7466536217671091
    Total Energy =                       -503.7044620529845815
  Basis Set: (AUG-CC-PVTZ AUX)
    Blend: AUG-CC-PVTZ-RI
    Molecular point group: c1

    Geometry (in Angstrom), charge = 0, multiplicity = 1:

       Center              X                  Y                   Z               Mass
    ------------   -----------------  -----------------  -----------------  -----------------
         N           -1.833568656852    -0.163324753794    -0.003279581885    14.003074004430
         N           -0.250660356852    -1.882925353794    -0.010836781885    14.003074004430
         N           -0.311557656852     1.748239246206    -0.002114581885    14.003074004430
         N            2.008969343148     1.034632246206    -0.011042581885    14.003074004430
         N            2.682552343148    -1.198266753794     0.075451418115    14.003074004430
         C           -0.536229856852     0.480805246206     0.002648118115    12.000000000000
         C            0.322363343148    -0.627305753794     0.005042418115    12.000000000000
         C           -1.601195656852    -1.517293753794    -0.009475581885    12.000000000000
         C            1.681500343148    -0.266865753794    -0.001680581885    12.000000000000
         C           -3.109732656852     0.531302246206    -0.000302581885    12.000000000000
         C            1.013618343148     1.949076246206    -0.012310581885    12.000000000000
         H           -2.422899656852    -2.225131753794    -0.015825581885     1.007825032230
         H           -3.189761656852     1.167792246206    -0.883270581885     1.007825032230
         H           -3.906880656852    -0.213328753794    -0.009867581885     1.007825032230
         H           -3.195461656852     1.150779246206     0.894227418115     1.007825032230
         H            1.338211343148     2.987646246206    -0.016067581885     1.007825032230
         H            3.592196343148    -0.864602753794    -0.222719581885     1.007825032230
         H            2.435221343148    -2.134295753794    -0.224429581885     1.007825032230

  Basis Set: AUG-CC-PVTZ
    Blend: AUG-CC-PVTZ
  Basis Set: (AUG-CC-PVTZ AUX)
    Blend: AUG-CC-PVTZ-JKFIT
	 Reference Energy          =    -503.7044620529845815 [Eh]
	 Singles Energy            =      -0.0000000000000000 [Eh]
	 Same-Spin Energy          =      -0.5518581153752316 [Eh]
	 Opposite-Spin Energy      =      -1.6380231420762059 [Eh]
	 Correlation Energy        =      -2.1898812574514377 [Eh]
	 Total Energy              =    -505.8943433104359997 [Eh]

	 ================> DF-SCS-MP2 Energies <==================
	-----------------------------------------------------------
	 SCS Same-Spin Scale       =       0.3333333333333333 [-]
	 SCS Opposite-Spin Scale   =       1.2000000000000000 [-]
	 SCS Same-Spin Energy      =      -0.1839527051250772 [Eh]
	 SCS Opposite-Spin Energy  =      -1.9656277704914471 [Eh]
	 SCS Correlation Energy    =      -2.1495804756165242 [Eh]
	 SCS Total Energy          =    -505.8540425286010986 [Eh]
	-----------------------------------------------------------

  Dipole Moment: [D]
     X:    -2.6652      Y:    -0.8721      Z:    -0.7874     Total:     2.9127

*** Psi4 exiting successfully. Buy a developer a beer!
