                               Psi4 1.3.2 release

  ==> Input File <==

--------------------------------------------------------------------------
#psi4
#
memory 32 gb

molecule  {
0 1
  N       -1.7893040    -0.1617730    -0.0001110
  N       -0.2713240    -1.8496560    -0.0082220
  N       -0.2672930     1.7497910     0.0010540
  N        2.0532340     1.0361840    -0.0078740
  N        2.7268170    -1.1967150     0.0786200
  C       -0.5487760     0.4359060     0.0048010
  C        0.3666280    -0.6257540     0.0082110
  C       -1.5738459    -1.4171840    -0.0058560
  C        1.7257650    -0.2653140     0.0014880
  C       -3.0654680     0.5328540     0.0028660
  C        1.0578830     1.9506280    -0.0091420
  H       -2.3786350    -2.2235800    -0.0126570
  H       -3.1454970     1.1693440    -0.8801020
  H       -3.8626160    -0.2117770    -0.0066990
  H       -3.1511970     1.1523310     0.8973960
  H        1.3824760     2.9891980    -0.0128990
  H        3.6364610    -0.8630510    -0.2195510
  H        2.4794860    -2.1327440    -0.2212610
units angstrom
no_reorient  #important for SAPT in psi4, default
symmetry c1  #important for SAPT in psi4, default
}

set PROPERTIES_ORIGIN ["COM"]
properties('MP2/aug-cc-pvtz', properties = ['dipole'])
--------------------------------------------------------------------------

    Molecular point group: c1
  Charge       = 0
  Multiplicity = 1
  Basis Set: AUG-CC-PVTZ
    Blend: AUG-CC-PVTZ
  Basis Set: (AUG-CC-PVTZ AUX)
    Blend: AUG-CC-PVTZ-JKFIT

    Orbital Energies [Eh]
    ---------------------

    Doubly Occupied:

       1A    -15.643238     2A    -15.579734     3A    -15.562570
       4A    -15.559510     5A    -15.553128     6A    -11.332110
       7A    -11.322095     8A    -11.310425     9A    -11.308234
      10A    -11.296678    11A    -11.252706    12A     -1.392240
      13A     -1.299457    14A     -1.239728    15A     -1.195273
      16A     -1.153058    17A     -1.026753    18A     -1.002919
      19A     -0.898701    20A     -0.871061    21A     -0.801102
      22A     -0.754889    23A     -0.723772    24A     -0.688753
      25A     -0.681369    26A     -0.671118    27A     -0.619932
      28A     -0.609444    29A     -0.595524    30A     -0.583218
      31A     -0.565511    32A     -0.543420    33A     -0.495046
      34A     -0.493972    35A     -0.448722    36A     -0.413573
      37A     -0.408944    38A     -0.375223    39A     -0.298315

  @DF-RHF Final Energy:  -503.70902574460365

   => Energetics <=

    Nuclear Repulsion Energy =            595.9917552537600614
    One-Electron Energy =               -1866.2586335954390506
    Two-Electron Energy =                 766.5578525970752253
    Total Energy =                       -503.7090257446036503
  Basis Set: (AUG-CC-PVTZ AUX)
    Blend: AUG-CC-PVTZ-RI
    Molecular point group: c1

    Geometry (in Angstrom), charge = 0, multiplicity = 1:

       Center              X                  Y                   Z               Mass
    ------------   -----------------  -----------------  -----------------  -----------------
         N           -1.821534696686    -0.170498744926    -0.003182102256    14.003074004430
         N           -0.303554696686    -1.858381744926    -0.011293102256    14.003074004430
         N           -0.299523696686     1.741065255074    -0.002017102256    14.003074004430
         N            2.021003303314     1.027458255074    -0.010945102256    14.003074004430
         N            2.694586303314    -1.205440744926     0.075548897744    14.003074004430
         C           -0.581006696686     0.427180255074     0.001729897744    12.000000000000
         C            0.334397303314    -0.634479744926     0.005139897744    12.000000000000
         C           -1.606076596686    -1.425909744926    -0.008927102256    12.000000000000
         C            1.693534303314    -0.274039744926    -0.001583102256    12.000000000000
         C           -3.097698696686     0.524128255074    -0.000205102256    12.000000000000
         C            1.025652303314     1.941902255074    -0.012213102256    12.000000000000
         H           -2.410865696686    -2.232305744926    -0.015728102256     1.007825032230
         H           -3.177727696686     1.160618255074    -0.883173102256     1.007825032230
         H           -3.894846696686    -0.220502744926    -0.009770102256     1.007825032230
         H           -3.183427696686     1.143605255074     0.894324897744     1.007825032230
         H            1.350245303314     2.980472255074    -0.015970102256     1.007825032230
         H            3.604230303314    -0.871776744926    -0.222622102256     1.007825032230
         H            2.447255303314    -2.141469744926    -0.224332102256     1.007825032230

  Basis Set: AUG-CC-PVTZ
    Blend: AUG-CC-PVTZ
  Basis Set: (AUG-CC-PVTZ AUX)
    Blend: AUG-CC-PVTZ-JKFIT
	 Reference Energy          =    -503.7090257446036503 [Eh]
	 Singles Energy            =      -0.0000000000000000 [Eh]
	 Same-Spin Energy          =      -0.5510865576192622 [Eh]
	 Opposite-Spin Energy      =      -1.6351321494414708 [Eh]
	 Correlation Energy        =      -2.1862187070607328 [Eh]
	 Total Energy              =    -505.8952444516643823 [Eh]

	 ================> DF-SCS-MP2 Energies <==================
	-----------------------------------------------------------
	 SCS Same-Spin Scale       =       0.3333333333333333 [-]
	 SCS Opposite-Spin Scale   =       1.2000000000000000 [-]
	 SCS Same-Spin Energy      =      -0.1836955192064207 [Eh]
	 SCS Opposite-Spin Energy  =      -1.9621585793297649 [Eh]
	 SCS Correlation Energy    =      -2.1458540985361858 [Eh]
	 SCS Total Energy          =    -505.8548798431398268 [Eh]
	-----------------------------------------------------------

  Dipole Moment: [D]
     X:    -2.9732      Y:    -0.8720      Z:    -0.7877     Total:     3.1970

*** Psi4 exiting successfully. Buy a developer a beer!
