                               Psi4 1.3.2 release

  ==> Input File <==

--------------------------------------------------------------------------
#psi4
#
memory 32 gb

molecule  {
0 1
  N       -1.7893040    -0.1617730    -0.0001110
  N       -0.2713240    -1.8496560    -0.0082220
  N       -0.2672930     1.7497910     0.0010540
  N        2.0532340     1.0361840    -0.0078740
  N        2.7268170    -1.1967150     0.0786200
  C       -0.5487760     0.4359060     0.0048010
  C        0.3666280    -0.6257540     0.0082110
  C       -1.5569310    -1.5157420    -0.0063070
  C        1.7257650    -0.2653140     0.0014880
  C       -3.1532997     0.5806615     0.0030709
  C        1.0578830     1.9506280    -0.0091420
  H       -2.3786350    -2.2235800    -0.0126570
  H       -3.1454970     1.1693440    -0.8801020
  H       -3.8626160    -0.2117770    -0.0066990
  H       -3.1511970     1.1523310     0.8973960
  H        1.3824760     2.9891980    -0.0128990
  H        3.6364610    -0.8630510    -0.2195510
  H        2.4794860    -2.1327440    -0.2212610
units angstrom
no_reorient  #important for SAPT in psi4, default
symmetry c1  #important for SAPT in psi4, default
}

set PROPERTIES_ORIGIN ["COM"]
properties('MP2/aug-cc-pvtz', properties = ['dipole'])
--------------------------------------------------------------------------

    Molecular point group: c1
  Charge       = 0
  Multiplicity = 1
  Basis Set: AUG-CC-PVTZ
    Blend: AUG-CC-PVTZ
  Basis Set: (AUG-CC-PVTZ AUX)
    Blend: AUG-CC-PVTZ-JKFIT

    Orbital Energies [Eh]
    ---------------------

    Doubly Occupied:

       1A    -15.629033     2A    -15.579080     3A    -15.563648
       4A    -15.558363     5A    -15.550062     6A    -11.332161
       7A    -11.318952     8A    -11.309693     9A    -11.309412
      10A    -11.293682    11A    -11.248832    12A     -1.358763
      13A     -1.292311    14A     -1.239560    15A     -1.184566
      16A     -1.148278    17A     -1.027958    18A     -0.989989
      19A     -0.886976    20A     -0.868590    21A     -0.798917
      22A     -0.749327    23A     -0.717646    24A     -0.671615
      25A     -0.670502    26A     -0.665018    27A     -0.617856
      28A     -0.614539    29A     -0.603394    30A     -0.593201
      31A     -0.570041    32A     -0.540797    33A     -0.493486
      34A     -0.489144    35A     -0.447747    36A     -0.413183
      37A     -0.406427    38A     -0.366011    39A     -0.305066

  @DF-RHF Final Energy:  -503.71685481237574

   => Energetics <=

    Nuclear Repulsion Energy =            592.3035151130357008
    One-Electron Energy =               -1859.1930876768979033
    Two-Electron Energy =                 763.1727177514864024
    Total Energy =                       -503.7168548123758001
  Basis Set: (AUG-CC-PVTZ AUX)
    Blend: AUG-CC-PVTZ-RI
    Molecular point group: c1

    Geometry (in Angstrom), charge = 0, multiplicity = 1:

       Center              X                  Y                   Z               Mass
    ------------   -----------------  -----------------  -----------------  -----------------
         N           -1.815825964072    -0.166413379617    -0.003162291449    14.003074004430
         N           -0.297845964072    -1.854296379617    -0.011273291449    14.003074004430
         N           -0.293814964072     1.745150620383    -0.001997291449    14.003074004430
         N            2.026712035928     1.031543620383    -0.010925291449    14.003074004430
         N            2.700295035928    -1.201355379617     0.075568708551    14.003074004430
         C           -0.575297964072     0.431265620383     0.001749708551    12.000000000000
         C            0.340106035928    -0.630394379617     0.005159708551    12.000000000000
         C           -1.583452964072    -1.520382379617    -0.009358291449    12.000000000000
         C            1.699243035928    -0.269954379617    -0.001563291449    12.000000000000
         C           -3.179821664072     0.576021120383     0.000019608551    12.000000000000
         C            1.031361035928     1.945987620383    -0.012193291449    12.000000000000
         H           -2.405156964072    -2.228220379617    -0.015708291449     1.007825032230
         H           -3.172018964072     1.164703620383    -0.883153291449     1.007825032230
         H           -3.889137964072    -0.216417379617    -0.009750291449     1.007825032230
         H           -3.177718964072     1.147690620383     0.894344708551     1.007825032230
         H            1.355954035928     2.984557620383    -0.015950291449     1.007825032230
         H            3.609939035928    -0.867691379617    -0.222602291449     1.007825032230
         H            2.452964035928    -2.137384379617    -0.224312291449     1.007825032230

  Basis Set: AUG-CC-PVTZ
    Blend: AUG-CC-PVTZ
  Basis Set: (AUG-CC-PVTZ AUX)
    Blend: AUG-CC-PVTZ-JKFIT
	 Reference Energy          =    -503.7168548123757432 [Eh]
	 Singles Energy            =      -0.0000000000000000 [Eh]
	 Same-Spin Energy          =      -0.5490541050883738 [Eh]
	 Opposite-Spin Energy      =      -1.6335665867716433 [Eh]
	 Correlation Energy        =      -2.1826206918600173 [Eh]
	 Total Energy              =    -505.8994755042357383 [Eh]

	 ================> DF-SCS-MP2 Energies <==================
	-----------------------------------------------------------
	 SCS Same-Spin Scale       =       0.3333333333333333 [-]
	 SCS Opposite-Spin Scale   =       1.2000000000000000 [-]
	 SCS Same-Spin Energy      =      -0.1830180350294579 [Eh]
	 SCS Opposite-Spin Energy  =      -1.9602799041259720 [Eh]
	 SCS Correlation Energy    =      -2.1432979391554299 [Eh]
	 SCS Total Energy          =    -505.8601527515311886 [Eh]
	-----------------------------------------------------------

  Dipole Moment: [D]
     X:    -3.0473      Y:    -1.0398      Z:    -0.7880     Total:     3.3148

*** Psi4 exiting successfully. Buy a developer a beer!
