                               Psi4 1.3.2 release

  ==> Input File <==

--------------------------------------------------------------------------
#psi4
#
memory 32 gb

molecule  {
0 1
  N       -1.7893040    -0.1617730    -0.0001110
  N       -0.2713240    -1.8496560    -0.0082220
  N       -0.2672930     1.7497910     0.0010540
  N        2.0532340     1.0361840    -0.0078740
  N        2.7268170    -1.1967150     0.0786200
  C       -0.5487760     0.4359060     0.0048010
  C        0.3666280    -0.6257540     0.0082110
  C       -1.5569310    -1.5157420    -0.0063070
  C        1.7257650    -0.2653140     0.0014880
  C       -3.0654680     0.5328540     0.0028660
  C        1.0578830     1.9506280    -0.0091420
  H       -2.3786350    -2.2235800    -0.0126570
  H       -3.1454970     1.1693440    -0.8801020
  H       -3.8626160    -0.2117770    -0.0066990
  H       -3.1511970     1.1523310     0.8973960
  H        1.3824760     2.9891980    -0.0128990
  H        3.4569999    -0.9288786    -0.1607257
  H        2.4794860    -2.1327440    -0.2212610
units angstrom
no_reorient  #important for SAPT in psi4, default
symmetry c1  #important for SAPT in psi4, default
}

set PROPERTIES_ORIGIN ["COM"]
properties('MP2/aug-cc-pvtz', properties = ['dipole'])
--------------------------------------------------------------------------

    Molecular point group: c1
  Charge       = 0
  Multiplicity = 1
  Basis Set: AUG-CC-PVTZ
    Blend: AUG-CC-PVTZ
  Basis Set: (AUG-CC-PVTZ AUX)
    Blend: AUG-CC-PVTZ-JKFIT

    Orbital Energies [Eh]
    ---------------------

    Doubly Occupied:

       1A    -15.633762     2A    -15.568045     3A    -15.561849
       4A    -15.560427     5A    -15.553610     6A    -11.335296
       7A    -11.323361     8A    -11.313768     9A    -11.312411
      10A    -11.289253    11A    -11.252474    12A     -1.368739
      13A     -1.305282    14A     -1.257741    15A     -1.203656
      16A     -1.160358    17A     -1.036137    18A     -0.988269
      19A     -0.898790    20A     -0.874245    21A     -0.813955
      22A     -0.765331    23A     -0.735030    24A     -0.699233
      25A     -0.676257    26A     -0.667081    27A     -0.625826
      28A     -0.614745    29A     -0.597675    30A     -0.592732
      31A     -0.573250    32A     -0.538406    33A     -0.497836
      34A     -0.493536    35A     -0.451319    36A     -0.416058
      37A     -0.409808    38A     -0.369435    39A     -0.309301

  @DF-RHF Final Energy:  -503.67993709092360

   => Energetics <=

    Nuclear Repulsion Energy =            595.6530473040949119
    One-Electron Energy =               -1865.3773884260240266
    Two-Electron Energy =                 766.0444040310056835
    Total Energy =                       -503.6799370909235449
  Basis Set: (AUG-CC-PVTZ AUX)
    Blend: AUG-CC-PVTZ-RI
    Molecular point group: c1

    Geometry (in Angstrom), charge = 0, multiplicity = 1:

       Center              X                  Y                   Z               Mass
    ------------   -----------------  -----------------  -----------------  -----------------
         N           -1.821683039005    -0.162119879386    -0.003543499971    14.003074004430
         N           -0.303703039005    -1.850002879386    -0.011654499971    14.003074004430
         N           -0.299672039005     1.749444120614    -0.002378499971    14.003074004430
         N            2.020854960995     1.035837120614    -0.011306499971    14.003074004430
         N            2.694437960995    -1.197061879386     0.075187500029    14.003074004430
         C           -0.581155039005     0.435559120614     0.001368500029    12.000000000000
         C            0.334248960995    -0.626100879386     0.004778500029    12.000000000000
         C           -1.589310039005    -1.516088879386    -0.009739499971    12.000000000000
         C            1.693385960995    -0.265660879386    -0.001944499971    12.000000000000
         C           -3.097847039005     0.532507120614    -0.000566499971    12.000000000000
         C            1.025503960995     1.950281120614    -0.012574499971    12.000000000000
         H           -2.411014039005    -2.223926879386    -0.016089499971     1.007825032230
         H           -3.177876039005     1.168997120614    -0.883534499971     1.007825032230
         H           -3.894995039005    -0.212123879386    -0.010131499971     1.007825032230
         H           -3.183576039005     1.151984120614     0.893963500029     1.007825032230
         H            1.350096960995     2.988851120614    -0.016331499971     1.007825032230
         H            3.424620860995    -0.929225479386    -0.164158199971     1.007825032230
         H            2.447106960995    -2.133090879386    -0.224693499971     1.007825032230

  Basis Set: AUG-CC-PVTZ
    Blend: AUG-CC-PVTZ
  Basis Set: (AUG-CC-PVTZ AUX)
    Blend: AUG-CC-PVTZ-JKFIT
	 Reference Energy          =    -503.6799370909236018 [Eh]
	 Singles Energy            =      -0.0000000000000000 [Eh]
	 Same-Spin Energy          =      -0.5481855217709397 [Eh]
	 Opposite-Spin Energy      =      -1.6304863638218223 [Eh]
	 Correlation Energy        =      -2.1786718855927623 [Eh]
	 Total Energy              =    -505.8586089765163365 [Eh]

	 ================> DF-SCS-MP2 Energies <==================
	-----------------------------------------------------------
	 SCS Same-Spin Scale       =       0.3333333333333333 [-]
	 SCS Opposite-Spin Scale   =       1.2000000000000000 [-]
	 SCS Same-Spin Energy      =      -0.1827285072569799 [Eh]
	 SCS Opposite-Spin Energy  =      -1.9565836365861866 [Eh]
	 SCS Correlation Energy    =      -2.1393121438431666 [Eh]
	 SCS Total Energy          =    -505.8192492347667439 [Eh]
	-----------------------------------------------------------

  Dipole Moment: [D]
     X:    -2.9489      Y:    -1.1882      Z:    -0.7576     Total:     3.2683

*** Psi4 exiting successfully. Buy a developer a beer!
