                               Psi4 1.4a3.dev225

  ==> Input File <==

--------------------------------------------------------------------------
#psi4
#
memory 32 gb

molecule  {
0 1
  N       -1.7889380    -0.1640290    -0.0179520
  N       -0.2703210    -1.8482040    -0.0023970
  N       -0.2671710     1.7490810    -0.0033560
  N        2.0541740     1.0368940    -0.0085470
  N        2.7206340    -1.1973270     0.0732090
  C       -0.5381418     0.4840321     0.0042915
  C        0.3650590    -0.6247560     0.0169900
  C       -1.5569260    -1.5161270    -0.0162740
  C        1.7266360    -0.2641570     0.0048060
  C       -3.0641060     0.5324820     0.0177850
  C        1.0564750     1.9508360    -0.0110870
  H       -2.3762040    -2.2259510    -0.0342240
  H       -2.9284720     1.5041700    -0.4579320
  H       -3.8067760    -0.0485880    -0.5312030
  H       -3.3972360     0.6796990     1.0480130
  H        1.3812150     2.9891510    -0.0228070
  H        3.6427950    -0.8729100    -0.1905990
  H        2.4748820    -2.1409930    -0.1987870
units angstrom
no_reorient  #important for SAPT in psi4, default
symmetry c1  #important for SAPT in psi4, default
}

set PROPERTIES_ORIGIN ["COM"]
properties('MP2/aug-cc-pvtz', properties = ['dipole'])
--------------------------------------------------------------------------

    Molecular point group: c1
  Charge       = 0
  Multiplicity = 1
  Basis Set: AUG-CC-PVTZ
    Blend: AUG-CC-PVTZ
  Basis Set: (AUG-CC-PVTZ AUX)
    Blend: AUG-CC-PVTZ-JKFIT

    Orbital Energies [Eh]
    ---------------------

    Doubly Occupied:

       1A    -15.629104     2A    -15.579188     3A    -15.566438
       4A    -15.560643     5A    -15.555069     6A    -11.332024
       7A    -11.322079     8A    -11.315733     9A    -11.314371
      10A    -11.284344    11A    -11.253168    12A     -1.361593
      13A     -1.299456    14A     -1.250783    15A     -1.193077
      16A     -1.158576    17A     -1.026501    18A     -0.980447
      19A     -0.889747    20A     -0.877588    21A     -0.798676
      22A     -0.753907    23A     -0.723724    24A     -0.683431
      25A     -0.674428    26A     -0.662616    27A     -0.626884
      28A     -0.603428    29A     -0.594950    30A     -0.593680
      31A     -0.563628    32A     -0.534170    33A     -0.502315
      34A     -0.494565    35A     -0.451584    36A     -0.413934
      37A     -0.408174    38A     -0.371393    39A     -0.301266

  @DF-RHF Final Energy:  -503.72023819886181

   => Energetics <=

    Nuclear Repulsion Energy =            594.3689707930832355
    One-Electron Energy =               -1863.1650599161698665
    Two-Electron Energy =                 765.0758509242248238
    Total Energy =                       -503.7202381988618072
  Basis Set: (AUG-CC-PVTZ AUX)
    Blend: AUG-CC-PVTZ-RI
    Molecular point group: c1

    Geometry (in Angstrom), charge = 0, multiplicity = 1:

       Center              X                  Y                   Z               Mass
    ------------   -----------------  -----------------  -----------------  -----------------
         N           -1.823175404822    -0.168724131381    -0.020508450161    14.003074004430
         N           -0.304558404822    -1.852899131381    -0.004953450161    14.003074004430
         N           -0.301408404822     1.744385868619    -0.005912450161    14.003074004430
         N            2.019936595178     1.032198868619    -0.011103450161    14.003074004430
         N            2.686396595178    -1.202022131381     0.070652549839    14.003074004430
         C           -0.572379204822     0.479336968619     0.001735049839    12.000000000000
         C            0.330821595178    -0.629451131381     0.014433549839    12.000000000000
         C           -1.591163404822    -1.520822131381    -0.018830450161    12.000000000000
         C            1.692398595178    -0.268852131381     0.002249549839    12.000000000000
         C           -3.098343404822     0.527786868619     0.015228549839    12.000000000000
         C            1.022237595178     1.946140868619    -0.013643450161    12.000000000000
         H           -2.410441404822    -2.230646131381    -0.036780450161     1.007825032230
         H           -2.962709404822     1.499474868619    -0.460488450161     1.007825032230
         H           -3.841013404822    -0.053283131381    -0.533759450161     1.007825032230
         H           -3.431473404822     0.675003868619     1.045456549839     1.007825032230
         H            1.346977595178     2.984455868619    -0.025363450161     1.007825032230
         H            3.608557595178    -0.877605131381    -0.193155450161     1.007825032230
         H            2.440644595178    -2.145688131381    -0.201343450161     1.007825032230

  Basis Set: AUG-CC-PVTZ
    Blend: AUG-CC-PVTZ
  Basis Set: (AUG-CC-PVTZ AUX)
    Blend: AUG-CC-PVTZ-JKFIT
	 Reference Energy          =    -503.7202381988618072 [Eh]
	 Singles Energy            =      -0.0000000000000000 [Eh]
	 Same-Spin Energy          =      -0.5499047346401740 [Eh]
	 Opposite-Spin Energy      =      -1.6332119960442519 [Eh]
	 Correlation Energy        =      -2.1831167306844259 [Eh]
	 Total Energy              =    -505.9033549295462535 [Eh]

	 ================> DF-SCS-MP2 Energies <==================
	-----------------------------------------------------------
	 SCS Same-Spin Scale       =       0.3333333333333333 [-]
	 SCS Opposite-Spin Scale   =       1.2000000000000000 [-]
	 SCS Same-Spin Energy      =      -0.1833015782133913 [Eh]
	 SCS Opposite-Spin Energy  =      -1.9598543952531022 [Eh]
	 SCS Correlation Energy    =      -2.1431559734664933 [Eh]
	 SCS Total Energy          =    -505.8633941723282987 [Eh]
	-----------------------------------------------------------

  Dipole Moment: [D]
     X:    -2.5657      Y:    -1.1081      Z:    -0.7132     Total:     2.8843

*** Psi4 exiting successfully. Buy a developer a beer!
