                               Psi4 1.4a3.dev225

  ==> Input File <==

--------------------------------------------------------------------------
#psi4
#
memory 32 gb

molecule  {
0 1
  N       -1.7889380    -0.1640290    -0.0179520
  N       -0.2703210    -1.8482040    -0.0023970
  N       -0.2671710     1.7490810    -0.0033560
  N        2.0541740     1.0368940    -0.0085470
  N        2.7206340    -1.1973270     0.0732090
  C       -0.5486140     0.4351420     0.0045870
  C        0.3650590    -0.6247560     0.0169900
  C       -1.5569260    -1.5161270    -0.0162740
  C        1.6902287    -0.2299776     0.0023006
  C       -3.0641060     0.5324820     0.0177850
  C        1.0564750     1.9508360    -0.0110870
  H       -2.3762040    -2.2259510    -0.0342240
  H       -2.9284720     1.5041700    -0.4579320
  H       -3.8067760    -0.0485880    -0.5312030
  H       -3.3972360     0.6796990     1.0480130
  H        1.3812150     2.9891510    -0.0228070
  H        3.6427950    -0.8729100    -0.1905990
  H        2.4748820    -2.1409930    -0.1987870
units angstrom
no_reorient  #important for SAPT in psi4, default
symmetry c1  #important for SAPT in psi4, default
}

set PROPERTIES_ORIGIN ["COM"]
properties('MP2/aug-cc-pvtz', properties = ['dipole'])
--------------------------------------------------------------------------

    Molecular point group: c1
  Charge       = 0
  Multiplicity = 1
  Basis Set: AUG-CC-PVTZ
    Blend: AUG-CC-PVTZ
  Basis Set: (AUG-CC-PVTZ AUX)
    Blend: AUG-CC-PVTZ-JKFIT

    Orbital Energies [Eh]
    ---------------------

    Doubly Occupied:

       1A    -15.634454     2A    -15.571696     3A    -15.569831
       4A    -15.564632     5A    -15.554438     6A    -11.331079
       7A    -11.324462     8A    -11.315490     9A    -11.313943
      10A    -11.288908    11A    -11.251371    12A     -1.370966
      13A     -1.300226    14A     -1.235518    15A     -1.194169
      16A     -1.151875    17A     -1.036569    18A     -0.987858
      19A     -0.893085    20A     -0.878267    21A     -0.802059
      22A     -0.753143    23A     -0.721117    24A     -0.678048
      25A     -0.669779    26A     -0.668808    27A     -0.621936
      28A     -0.608270    29A     -0.597086    30A     -0.591660
      31A     -0.573412    32A     -0.536142    33A     -0.495480
      34A     -0.490996    35A     -0.456298    36A     -0.416191
      37A     -0.408914    38A     -0.370928    39A     -0.312207

  @DF-RHF Final Energy:  -503.72205526121616

   => Energetics <=

    Nuclear Repulsion Energy =            595.1473252387239654
    One-Electron Energy =               -1864.6561363173102563
    Two-Electron Energy =                 765.7867558173702491
    Total Energy =                       -503.7220552612161555
  Basis Set: (AUG-CC-PVTZ AUX)
    Blend: AUG-CC-PVTZ-RI
    Molecular point group: c1

    Geometry (in Angstrom), charge = 0, multiplicity = 1:

       Center              X                  Y                   Z               Mass
    ------------   -----------------  -----------------  -----------------  -----------------
         N           -1.819401651203    -0.167539934507    -0.020330555386    14.003074004430
         N           -0.300784651203    -1.851714934507    -0.004775555386    14.003074004430
         N           -0.297634651203     1.745570065493    -0.005734555386    14.003074004430
         N            2.023710348797     1.033383065493    -0.010925555386    14.003074004430
         N            2.690170348797    -1.200837934507     0.070830444614    14.003074004430
         C           -0.579077651203     0.431631065493     0.002208444614    12.000000000000
         C            0.334595348797    -0.628266934507     0.014611444614    12.000000000000
         C           -1.587389651203    -1.519637934507    -0.018652555386    12.000000000000
         C            1.659765048797    -0.233488534507    -0.000077955386    12.000000000000
         C           -3.094569651203     0.528971065493     0.015406444614    12.000000000000
         C            1.026011348797     1.947325065493    -0.013465555386    12.000000000000
         H           -2.406667651203    -2.229461934507    -0.036602555386     1.007825032230
         H           -2.958935651203     1.500659065493    -0.460310555386     1.007825032230
         H           -3.837239651203    -0.052098934507    -0.533581555386     1.007825032230
         H           -3.427699651203     0.676188065493     1.045634444614     1.007825032230
         H            1.350751348797     2.985640065493    -0.025185555386     1.007825032230
         H            3.612331348797    -0.876420934507    -0.192977555386     1.007825032230
         H            2.444418348797    -2.144503934507    -0.201165555386     1.007825032230

  Basis Set: AUG-CC-PVTZ
    Blend: AUG-CC-PVTZ
  Basis Set: (AUG-CC-PVTZ AUX)
    Blend: AUG-CC-PVTZ-JKFIT
	 Reference Energy          =    -503.7220552612161555 [Eh]
	 Singles Energy            =      -0.0000000000000000 [Eh]
	 Same-Spin Energy          =      -0.5491753419626494 [Eh]
	 Opposite-Spin Energy      =      -1.6328795810459797 [Eh]
	 Correlation Energy        =      -2.1820549230086290 [Eh]
	 Total Energy              =    -505.9041101842248054 [Eh]

	 ================> DF-SCS-MP2 Energies <==================
	-----------------------------------------------------------
	 SCS Same-Spin Scale       =       0.3333333333333333 [-]
	 SCS Opposite-Spin Scale   =       1.2000000000000000 [-]
	 SCS Same-Spin Energy      =      -0.1830584473208831 [Eh]
	 SCS Opposite-Spin Energy  =      -1.9594554972551756 [Eh]
	 SCS Correlation Energy    =      -2.1425139445760588 [Eh]
	 SCS Total Energy          =    -505.8645692057922361 [Eh]
	-----------------------------------------------------------

  Dipole Moment: [D]
     X:    -3.0347      Y:    -0.9025      Z:    -0.7271     Total:     3.2485

*** Psi4 exiting successfully. Buy a developer a beer!
