                               Psi4 1.4a3.dev225

  ==> Input File <==

--------------------------------------------------------------------------
#psi4
#
memory 32 gb

molecule  {
0 1
  N       -1.7889380    -0.1640290    -0.0179520
  N       -0.2703210    -1.8482040    -0.0023970
  N       -0.2671710     1.7490810    -0.0033560
  N        2.0541740     1.0368940    -0.0085470
  N        2.7206340    -1.1973270     0.0732090
  C       -0.5486140     0.4351420     0.0045870
  C        0.3650590    -0.6247560     0.0169900
  C       -1.5569260    -1.5161270    -0.0162740
  C        1.7217536    -0.2835509     0.0050050
  C       -3.0641060     0.5324820     0.0177850
  C        1.0564750     1.9508360    -0.0110870
  H       -2.3762040    -2.2259510    -0.0342240
  H       -2.9284720     1.5041700    -0.4579320
  H       -3.8067760    -0.0485880    -0.5312030
  H       -3.3972360     0.6796990     1.0480130
  H        1.3812150     2.9891510    -0.0228070
  H        3.6427950    -0.8729100    -0.1905990
  H        2.4748820    -2.1409930    -0.1987870
units angstrom
no_reorient  #important for SAPT in psi4, default
symmetry c1  #important for SAPT in psi4, default
}

set PROPERTIES_ORIGIN ["COM"]
properties('MP2/aug-cc-pvtz', properties = ['dipole'])
--------------------------------------------------------------------------

    Molecular point group: c1
  Charge       = 0
  Multiplicity = 1
  Basis Set: AUG-CC-PVTZ
    Blend: AUG-CC-PVTZ
  Basis Set: (AUG-CC-PVTZ AUX)
    Blend: AUG-CC-PVTZ-JKFIT

    Orbital Energies [Eh]
    ---------------------

    Doubly Occupied:

       1A    -15.632126     2A    -15.583362     3A    -15.567041
       4A    -15.558173     5A    -15.551291     6A    -11.334957
       7A    -11.321077     8A    -11.313571     9A    -11.310015
      10A    -11.287047    11A    -11.249913    12A     -1.367697
      13A     -1.293691    14A     -1.244601    15A     -1.197358
      16A     -1.148130    17A     -1.031639    18A     -0.985873
      19A     -0.890454    20A     -0.870341    21A     -0.803630
      22A     -0.754058    23A     -0.725396    24A     -0.683478
      25A     -0.672440    26A     -0.666280    27A     -0.624875
      28A     -0.606267    29A     -0.594634    30A     -0.592861
      31A     -0.571175    32A     -0.536141    33A     -0.496658
      34A     -0.490356    35A     -0.448507    36A     -0.414167
      37A     -0.408084    38A     -0.365615    39A     -0.307006

  @DF-RHF Final Energy:  -503.72418819420113

   => Energetics <=

    Nuclear Repulsion Energy =            594.5681709676618993
    One-Electron Energy =               -1863.5847477274298853
    Two-Electron Energy =                 765.2923885655668528
    Total Energy =                       -503.7241881942011332
  Basis Set: (AUG-CC-PVTZ AUX)
    Blend: AUG-CC-PVTZ-RI
    Molecular point group: c1

    Geometry (in Angstrom), charge = 0, multiplicity = 1:

       Center              X                  Y                   Z               Mass
    ------------   -----------------  -----------------  -----------------  -----------------
         N           -1.821939374631    -0.163227336576    -0.020548256924    14.003074004430
         N           -0.303322374631    -1.847402336576    -0.004993256924    14.003074004430
         N           -0.300172374631     1.749882663424    -0.005952256924    14.003074004430
         N            2.021172625369     1.037695663424    -0.011143256924    14.003074004430
         N            2.687632625369    -1.196525336576     0.070612743076    14.003074004430
         C           -0.581615374631     0.435943663424     0.001990743076    12.000000000000
         C            0.332057625369    -0.623954336576     0.014393743076    12.000000000000
         C           -1.589927374631    -1.515325336576    -0.018870256924    12.000000000000
         C            1.688752225369    -0.282749236576     0.002408743076    12.000000000000
         C           -3.097107374631     0.533283663424     0.015188743076    12.000000000000
         C            1.023473625369     1.951637663424    -0.013683256924    12.000000000000
         H           -2.409205374631    -2.225149336576    -0.036820256924     1.007825032230
         H           -2.961473374631     1.504971663424    -0.460528256924     1.007825032230
         H           -3.839777374631    -0.047786336576    -0.533799256924     1.007825032230
         H           -3.430237374631     0.680500663424     1.045416743076     1.007825032230
         H            1.348213625369     2.989952663424    -0.025403256924     1.007825032230
         H            3.609793625369    -0.872108336576    -0.193195256924     1.007825032230
         H            2.441880625369    -2.140191336576    -0.201383256924     1.007825032230

  Basis Set: AUG-CC-PVTZ
    Blend: AUG-CC-PVTZ
  Basis Set: (AUG-CC-PVTZ AUX)
    Blend: AUG-CC-PVTZ-JKFIT
	 Reference Energy          =    -503.7241881942011332 [Eh]
	 Singles Energy            =      -0.0000000000000000 [Eh]
	 Same-Spin Energy          =      -0.5493654137506402 [Eh]
	 Opposite-Spin Energy      =      -1.6330903813076345 [Eh]
	 Correlation Energy        =      -2.1824557950582748 [Eh]
	 Total Energy              =    -505.9066439892594076 [Eh]

	 ================> DF-SCS-MP2 Energies <==================
	-----------------------------------------------------------
	 SCS Same-Spin Scale       =       0.3333333333333333 [-]
	 SCS Opposite-Spin Scale   =       1.2000000000000000 [-]
	 SCS Same-Spin Energy      =      -0.1831218045835467 [Eh]
	 SCS Opposite-Spin Energy  =      -1.9597084575691612 [Eh]
	 SCS Correlation Energy    =      -2.1428302621527080 [Eh]
	 SCS Total Energy          =    -505.8670184563538328 [Eh]
	-----------------------------------------------------------

  Dipole Moment: [D]
     X:    -2.5904      Y:    -1.2958      Z:    -0.7096     Total:     2.9821

*** Psi4 exiting successfully. Buy a developer a beer!
