                               Psi4 1.3.2 release

  ==> Input File <==

--------------------------------------------------------------------------
#psi4
#
memory 32 gb

molecule  {
0 1
  N       -1.7893040    -0.1617730    -0.0001110
  N       -0.2713240    -1.8496560    -0.0082220
  N       -0.2672930     1.7497910     0.0010540
  N        2.0532340     1.0361840    -0.0078740
  N        2.7268170    -1.1967150     0.0786200
  C       -0.5487760     0.4359060     0.0048010
  C        0.3666280    -0.6257540     0.0082110
  C       -1.5569310    -1.5157420    -0.0063070
  C        1.7257650    -0.2653140     0.0014880
  C       -3.0654680     0.5328540     0.0028660
  C        0.8601468     1.9206601    -0.0076206
  H       -2.3786350    -2.2235800    -0.0126570
  H       -3.1454970     1.1693440    -0.8801020
  H       -3.8626160    -0.2117770    -0.0066990
  H       -3.1511970     1.1523310     0.8973960
  H        1.3824760     2.9891980    -0.0128990
  H        3.6364610    -0.8630510    -0.2195510
  H        2.4794860    -2.1327440    -0.2212610
units angstrom
no_reorient  #important for SAPT in psi4, default
symmetry c1  #important for SAPT in psi4, default
}

set PROPERTIES_ORIGIN ["COM"]
properties('MP2/aug-cc-pvtz', properties = ['dipole'])
--------------------------------------------------------------------------

    Molecular point group: c1
  Charge       = 0
  Multiplicity = 1
  Basis Set: AUG-CC-PVTZ
    Blend: AUG-CC-PVTZ
  Basis Set: (AUG-CC-PVTZ AUX)
    Blend: AUG-CC-PVTZ-JKFIT

    Orbital Energies [Eh]
    ---------------------

    Doubly Occupied:

       1A    -15.641564     2A    -15.577152     3A    -15.571902
       4A    -15.559393     5A    -15.545153     6A    -11.327447
       7A    -11.321432     8A    -11.317916     9A    -11.300025
      10A    -11.294094    11A    -11.257177    12A     -1.382885
      13A     -1.329609    14A     -1.261675    15A     -1.201689
      16A     -1.137929    17A     -1.040580    18A     -0.989283
      19A     -0.890844    20A     -0.863515    21A     -0.809382
      22A     -0.757274    23A     -0.719271    24A     -0.682931
      25A     -0.674348    26A     -0.667754    27A     -0.634031
      28A     -0.608533    29A     -0.603855    30A     -0.593969
      31A     -0.569266    32A     -0.541519    33A     -0.523605
      34A     -0.474799    35A     -0.447594    36A     -0.412013
      37A     -0.404049    38A     -0.360196    39A     -0.322788

  @DF-RHF Final Energy:  -503.66469355431735

   => Energetics <=

    Nuclear Repulsion Energy =            597.0221053272811105
    One-Electron Energy =               -1868.1367184890987119
    Two-Electron Energy =                 767.4499196075000782
    Total Energy =                       -503.6646935543174095
  Basis Set: (AUG-CC-PVTZ AUX)
    Blend: AUG-CC-PVTZ-RI
    Molecular point group: c1

    Geometry (in Angstrom), charge = 0, multiplicity = 1:

       Center              X                  Y                   Z               Mass
    ------------   -----------------  -----------------  -----------------  -----------------
         N           -1.806978759973    -0.160152536452    -0.003268268403    14.003074004430
         N           -0.288998759973    -1.848035536452    -0.011379268403    14.003074004430
         N           -0.284967759973     1.751411463548    -0.002103268403    14.003074004430
         N            2.035559240027     1.037804463548    -0.011031268403    14.003074004430
         N            2.709142240027    -1.195094536452     0.075462731597    14.003074004430
         C           -0.566450759973     0.437526463548     0.001643731597    12.000000000000
         C            0.348953240027    -0.624133536452     0.005053731597    12.000000000000
         C           -1.574605759973    -1.514121536452    -0.009464268403    12.000000000000
         C            1.708090240027    -0.263693536452    -0.001669268403    12.000000000000
         C           -3.083142759973     0.534474463548    -0.000291268403    12.000000000000
         C            0.842472040027     1.922280563548    -0.010777868403    12.000000000000
         H           -2.396309759973    -2.221959536452    -0.015814268403     1.007825032230
         H           -3.163171759973     1.170964463548    -0.883259268403     1.007825032230
         H           -3.880290759973    -0.210156536452    -0.009856268403     1.007825032230
         H           -3.168871759973     1.153951463548     0.894238731597     1.007825032230
         H            1.364801240027     2.990818463548    -0.016056268403     1.007825032230
         H            3.618786240027    -0.861430536452    -0.222708268403     1.007825032230
         H            2.461811240027    -2.131123536452    -0.224418268403     1.007825032230

  Basis Set: AUG-CC-PVTZ
    Blend: AUG-CC-PVTZ
  Basis Set: (AUG-CC-PVTZ AUX)
    Blend: AUG-CC-PVTZ-JKFIT
	 Reference Energy          =    -503.6646935543173527 [Eh]
	 Singles Energy            =      -0.0000000000000000 [Eh]
	 Same-Spin Energy          =      -0.5481894109004515 [Eh]
	 Opposite-Spin Energy      =      -1.6332217302033933 [Eh]
	 Correlation Energy        =      -2.1814111411038448 [Eh]
	 Total Energy              =    -505.8461046954212179 [Eh]

	 ================> DF-SCS-MP2 Energies <==================
	-----------------------------------------------------------
	 SCS Same-Spin Scale       =       0.3333333333333333 [-]
	 SCS Opposite-Spin Scale   =       1.2000000000000000 [-]
	 SCS Same-Spin Energy      =      -0.1827298036334838 [Eh]
	 SCS Opposite-Spin Energy  =      -1.9598660762440718 [Eh]
	 SCS Correlation Energy    =      -2.1425958798775557 [Eh]
	 SCS Total Energy          =    -505.8072894341948995 [Eh]
	-----------------------------------------------------------

  Dipole Moment: [D]
     X:    -3.4462      Y:    -1.0848      Z:    -0.7861     Total:     3.6975

*** Psi4 exiting successfully. Buy a developer a beer!
