                               Psi4 1.3.2 release

  ==> Input File <==

--------------------------------------------------------------------------
#psi4
#
memory 32 gb

molecule  {
0 1
  N       -1.7893040    -0.1617730    -0.0001110
  N       -0.2713240    -1.8496560    -0.0082220
  N       -0.2672930     1.7497910     0.0010540
  N        2.0758598     1.0302905    -0.0064571
  N        2.7429186    -1.1790581     0.0791577
  C       -0.5487760     0.4359060     0.0048010
  C        0.3666280    -0.6257540     0.0082110
  C       -1.5569310    -1.5157420    -0.0063070
  C        1.7257650    -0.2653140     0.0014880
  C       -3.0654680     0.5328540     0.0028660
  C        1.0578830     1.9506280    -0.0091420
  H       -2.3786350    -2.2235800    -0.0126570
  H       -3.1454970     1.1693440    -0.8801020
  H       -3.8626160    -0.2117770    -0.0066990
  H       -3.1511970     1.1523310     0.8973960
  H        1.3824760     2.9891980    -0.0128990
  H        3.6364610    -0.8630510    -0.2195510
  H        2.4794860    -2.1327440    -0.2212610
units angstrom
no_reorient  #important for SAPT in psi4, default
symmetry c1  #important for SAPT in psi4, default
}

set PROPERTIES_ORIGIN ["COM"]
properties('MP2/aug-cc-pvtz', properties = ['dipole'])
--------------------------------------------------------------------------

    Molecular point group: c1
  Charge       = 0
  Multiplicity = 1
  Basis Set: AUG-CC-PVTZ
    Blend: AUG-CC-PVTZ
  Basis Set: (AUG-CC-PVTZ AUX)
    Blend: AUG-CC-PVTZ-JKFIT

    Orbital Energies [Eh]
    ---------------------

    Doubly Occupied:

       1A    -15.633950     2A    -15.579475     3A    -15.568165
       4A    -15.562744     5A    -15.554071     6A    -11.333699
       7A    -11.322704     8A    -11.314198     9A    -11.314017
      10A    -11.289305    11A    -11.253045    12A     -1.368222
      13A     -1.294267    14A     -1.242404    15A     -1.197359
      16A     -1.148901    17A     -1.031334    18A     -0.986652
      19A     -0.888710    20A     -0.873327    21A     -0.803048
      22A     -0.751717    23A     -0.725101    24A     -0.682976
      25A     -0.668473    26A     -0.666415    27A     -0.622928
      28A     -0.607142    29A     -0.596198    30A     -0.590759
      31A     -0.571579    32A     -0.536323    33A     -0.495117
      34A     -0.493655    35A     -0.452806    36A     -0.414485
      37A     -0.409657    38A     -0.367555    39A     -0.308523

  @DF-RHF Final Energy:  -503.72233611459512

   => Energetics <=

    Nuclear Repulsion Energy =            593.7566893050236558
    One-Electron Energy =               -1861.9160348661439457
    Two-Electron Energy =                 764.4370094465251668
    Total Energy =                       -503.7223361145951230
  Basis Set: (AUG-CC-PVTZ AUX)
    Blend: AUG-CC-PVTZ-RI
    Molecular point group: c1

    Geometry (in Angstrom), charge = 0, multiplicity = 1:

       Center              X                  Y                   Z               Mass
    ------------   -----------------  -----------------  -----------------  -----------------
         N           -1.826534231951    -0.163669931299    -0.003329404779    14.003074004430
         N           -0.308554231951    -1.851552931299    -0.011440404779    14.003074004430
         N           -0.304523231951     1.747894068701    -0.002164404779    14.003074004430
         N            2.038629568049     1.028393568701    -0.009675504779    14.003074004430
         N            2.705688368049    -1.180955031299     0.075939295221    14.003074004430
         C           -0.586006231951     0.434009068701     0.001582595221    12.000000000000
         C            0.329397768049    -0.627650931299     0.004992595221    12.000000000000
         C           -1.594161231951    -1.517638931299    -0.009525404779    12.000000000000
         C            1.688534768049    -0.267210931299    -0.001730404779    12.000000000000
         C           -3.102698231951     0.530957068701    -0.000352404779    12.000000000000
         C            1.020652768049     1.948731068701    -0.012360404779    12.000000000000
         H           -2.415865231951    -2.225476931299    -0.015875404779     1.007825032230
         H           -3.182727231951     1.167447068701    -0.883320404779     1.007825032230
         H           -3.899846231951    -0.213673931299    -0.009917404779     1.007825032230
         H           -3.188427231951     1.150434068701     0.894177595221     1.007825032230
         H            1.345245768049     2.987301068701    -0.016117404779     1.007825032230
         H            3.599230768049    -0.864947931299    -0.222769404779     1.007825032230
         H            2.442255768049    -2.134640931299    -0.224479404779     1.007825032230

  Basis Set: AUG-CC-PVTZ
    Blend: AUG-CC-PVTZ
  Basis Set: (AUG-CC-PVTZ AUX)
    Blend: AUG-CC-PVTZ-JKFIT
	 Reference Energy          =    -503.7223361145951230 [Eh]
	 Singles Energy            =      -0.0000000000000000 [Eh]
	 Same-Spin Energy          =      -0.5493740301051903 [Eh]
	 Opposite-Spin Energy      =      -1.6337790056231749 [Eh]
	 Correlation Energy        =      -2.1831530357283651 [Eh]
	 Total Energy              =    -505.9054891503234899 [Eh]

	 ================> DF-SCS-MP2 Energies <==================
	-----------------------------------------------------------
	 SCS Same-Spin Scale       =       0.3333333333333333 [-]
	 SCS Opposite-Spin Scale   =       1.2000000000000000 [-]
	 SCS Same-Spin Energy      =      -0.1831246767017301 [Eh]
	 SCS Opposite-Spin Energy  =      -1.9605348067478099 [Eh]
	 SCS Correlation Energy    =      -2.1436594834495399 [Eh]
	 SCS Total Energy          =    -505.8659955980446625 [Eh]
	-----------------------------------------------------------

  Dipole Moment: [D]
     X:    -2.8365      Y:    -1.1444      Z:    -0.7919     Total:     3.1595

*** Psi4 exiting successfully. Buy a developer a beer!
