                               Psi4 1.3.2 release

  ==> Input File <==

--------------------------------------------------------------------------
#psi4
#
memory 32 gb

molecule  {
0 1
  N       -1.7893040    -0.1617730    -0.0001110
  N       -0.2713240    -1.8496560    -0.0082220
  N       -0.2672930     1.7497910     0.0010540
  N        2.0532340     1.0361840    -0.0078740
  N        2.7268170    -1.1967150     0.0786200
  C       -0.5487760     0.4359060     0.0048010
  C        0.3666280    -0.6257540     0.0082110
  C       -1.5569310    -1.5157420    -0.0063070
  C        1.7257650    -0.2653140     0.0014880
  C       -3.0654680     0.5328540     0.0028660
  C        1.0578830     1.9506280    -0.0091420
  H       -2.3786350    -2.2235800    -0.0126570
  H       -3.1454970     1.1693440    -0.8801020
  H       -3.9356901    -0.2800369    -0.0075758
  H       -3.1511970     1.1523310     0.8973960
  H        1.3824760     2.9891980    -0.0128990
  H        3.6364610    -0.8630510    -0.2195510
  H        2.4794860    -2.1327440    -0.2212610
units angstrom
no_reorient  #important for SAPT in psi4, default
symmetry c1  #important for SAPT in psi4, default
}

set PROPERTIES_ORIGIN ["COM"]
properties('MP2/aug-cc-pvtz', properties = ['dipole'])
--------------------------------------------------------------------------

    Molecular point group: c1
  Charge       = 0
  Multiplicity = 1
  Basis Set: AUG-CC-PVTZ
    Blend: AUG-CC-PVTZ
  Basis Set: (AUG-CC-PVTZ AUX)
    Blend: AUG-CC-PVTZ-JKFIT

    Orbital Energies [Eh]
    ---------------------

    Doubly Occupied:

       1A    -15.633971     2A    -15.581261     3A    -15.567543
       4A    -15.561163     5A    -15.552724     6A    -11.334850
       7A    -11.322699     8A    -11.313729     9A    -11.311961
      10A    -11.300094    11A    -11.252296    12A     -1.368199
      13A     -1.296495    14A     -1.242623    15A     -1.196738
      16A     -1.152146    17A     -1.031256    18A     -0.979818
      19A     -0.891016    20A     -0.872499    21A     -0.800859
      22A     -0.752500    23A     -0.724496    24A     -0.678538
      25A     -0.673188    26A     -0.667240    27A     -0.625009
      28A     -0.605897    29A     -0.595244    30A     -0.589845
      31A     -0.557528    32A     -0.537319    33A     -0.495939
      34A     -0.492846    35A     -0.450800    36A     -0.414652
      37A     -0.408949    38A     -0.368830    39A     -0.308093

  @DF-RHF Final Energy:  -503.71812053681708

   => Energetics <=

    Nuclear Repulsion Energy =            593.8825207030215552
    One-Electron Energy =               -1862.1795843091322240
    Two-Electron Energy =                 764.5789430692935866
    Total Energy =                       -503.7181205368170822
  Basis Set: (AUG-CC-PVTZ AUX)
    Blend: AUG-CC-PVTZ-RI
    Molecular point group: c1

    Geometry (in Angstrom), charge = 0, multiplicity = 1:

       Center              X                  Y                   Z               Mass
    ------------   -----------------  -----------------  -----------------  -----------------
         N           -1.822402294236    -0.162103435229    -0.003139869380    14.003074004430
         N           -0.304422294236    -1.849986435229    -0.011250869380    14.003074004430
         N           -0.300391294236     1.749460564771    -0.001974869380    14.003074004430
         N            2.020135705764     1.035853564771    -0.010902869380    14.003074004430
         N            2.693718705764    -1.197045435229     0.075591130620    14.003074004430
         C           -0.581874294236     0.435575564771     0.001772130620    12.000000000000
         C            0.333529705764    -0.626084435229     0.005182130620    12.000000000000
         C           -1.590029294236    -1.516072435229    -0.009335869380    12.000000000000
         C            1.692666705764    -0.265644435229    -0.001540869380    12.000000000000
         C           -3.098566294236     0.532523564771    -0.000162869380    12.000000000000
         C            1.024784705764     1.950297564771    -0.012170869380    12.000000000000
         H           -2.411733294236    -2.223910435229    -0.015685869380     1.007825032230
         H           -3.178595294236     1.169013564771    -0.883130869380     1.007825032230
         H           -3.968788394236    -0.280367335229    -0.010604669380     1.007825032230
         H           -3.184295294236     1.152000564771     0.894367130620     1.007825032230
         H            1.349377705764     2.988867564771    -0.015927869380     1.007825032230
         H            3.603362705764    -0.863381435229    -0.222579869380     1.007825032230
         H            2.446387705764    -2.133074435229    -0.224289869380     1.007825032230

  Basis Set: AUG-CC-PVTZ
    Blend: AUG-CC-PVTZ
  Basis Set: (AUG-CC-PVTZ AUX)
    Blend: AUG-CC-PVTZ-JKFIT
	 Reference Energy          =    -503.7181205368170822 [Eh]
	 Singles Energy            =      -0.0000000000000000 [Eh]
	 Same-Spin Energy          =      -0.5493251791566466 [Eh]
	 Opposite-Spin Energy      =      -1.6339279459890219 [Eh]
	 Correlation Energy        =      -2.1832531251456686 [Eh]
	 Total Energy              =    -505.9013736619627366 [Eh]

	 ================> DF-SCS-MP2 Energies <==================
	-----------------------------------------------------------
	 SCS Same-Spin Scale       =       0.3333333333333333 [-]
	 SCS Opposite-Spin Scale   =       1.2000000000000000 [-]
	 SCS Same-Spin Energy      =      -0.1831083930522155 [Eh]
	 SCS Opposite-Spin Energy  =      -1.9607135351868261 [Eh]
	 SCS Correlation Energy    =      -2.1438219282390416 [Eh]
	 SCS Total Energy          =    -505.8619424650561314 [Eh]
	-----------------------------------------------------------

  Dipole Moment: [D]
     X:    -2.6871      Y:    -1.1481      Z:    -0.7887     Total:     3.0266

*** Psi4 exiting successfully. Buy a developer a beer!
