                               Psi4 1.3.2 release

  ==> Input File <==

--------------------------------------------------------------------------
#psi4
#
memory 32 gb

molecule  {
0 1
  N       -1.7893040    -0.1617730    -0.0001110
  N       -0.2713240    -1.8496560    -0.0082220
  N       -0.2672930     1.7497910     0.0010540
  N        2.0532340     1.0361840    -0.0078740
  N        2.7268170    -1.1967150     0.0786200
  C       -0.5487760     0.4359060     0.0048010
  C        0.3666280    -0.6257540     0.0082110
  C       -1.5687554    -1.5177182    -0.0063182
  C        1.7257650    -0.2653140     0.0014880
  C       -3.0714812     0.5216912     0.0028135
  C        1.0578830     1.9506280    -0.0091420
  H       -2.3786350    -2.2235800    -0.0126570
  H       -3.1454970     1.1693440    -0.8801020
  H       -3.8626160    -0.2117770    -0.0066990
  H       -3.1511970     1.1523310     0.8973960
  H        1.3824760     2.9891980    -0.0128990
  H        3.6364610    -0.8630510    -0.2195510
  H        2.4794860    -2.1327440    -0.2212610
units angstrom
no_reorient  #important for SAPT in psi4, default
symmetry c1  #important for SAPT in psi4, default
}

set PROPERTIES_ORIGIN ["COM"]
properties('MP2/aug-cc-pvtz', properties = ['dipole'])
--------------------------------------------------------------------------

    Molecular point group: c1
  Charge       = 0
  Multiplicity = 1
  Basis Set: AUG-CC-PVTZ
    Blend: AUG-CC-PVTZ
  Basis Set: (AUG-CC-PVTZ AUX)
    Blend: AUG-CC-PVTZ-JKFIT

    Orbital Energies [Eh]
    ---------------------

    Doubly Occupied:

       1A    -15.633988     2A    -15.581083     3A    -15.567774
       4A    -15.560844     5A    -15.552539     6A    -11.334725
       7A    -11.322650     8A    -11.313188     9A    -11.311568
      10A    -11.288626    11A    -11.252054    12A     -1.366595
      13A     -1.296162    14A     -1.241728    15A     -1.194660
      16A     -1.152065    17A     -1.031164    18A     -0.985879
      19A     -0.892029    20A     -0.871464    21A     -0.803756
      22A     -0.753647    23A     -0.724376    24A     -0.681296
      25A     -0.673381    26A     -0.665006    27A     -0.624541
      28A     -0.606920    29A     -0.597449    30A     -0.590813
      31A     -0.574854    32A     -0.535228    33A     -0.495239
      34A     -0.491925    35A     -0.450180    36A     -0.413380
      37A     -0.408257    38A     -0.368478    39A     -0.306861

  @DF-RHF Final Energy:  -503.72362603505371

   => Energetics <=

    Nuclear Repulsion Energy =            594.0548963559350568
    One-Electron Energy =               -1862.5242998685594102
    Two-Electron Energy =                 764.7457774775707549
    Total Energy =                       -503.7236260350537123
  Basis Set: (AUG-CC-PVTZ AUX)
    Blend: AUG-CC-PVTZ-RI
    Molecular point group: c1

    Geometry (in Angstrom), charge = 0, multiplicity = 1:

       Center              X                  Y                   Z               Mass
    ------------   -----------------  -----------------  -----------------  -----------------
         N           -1.821460420244    -0.161507246342    -0.003140669413    14.003074004430
         N           -0.303480420244    -1.849390246342    -0.011251669413    14.003074004430
         N           -0.299449420244     1.750056753658    -0.001975669413    14.003074004430
         N            2.021077579756     1.036449753658    -0.010903669413    14.003074004430
         N            2.694660579756    -1.196449246342     0.075590330587    14.003074004430
         C           -0.580932420244     0.436171753658     0.001771330587    12.000000000000
         C            0.334471579756    -0.625488246342     0.005181330587    12.000000000000
         C           -1.600911820244    -1.517452446342    -0.009347869413    12.000000000000
         C            1.693608579756    -0.265048246342    -0.001541669413    12.000000000000
         C           -3.103637620244     0.521956953658    -0.000216169413    12.000000000000
         C            1.025726579756     1.950893753658    -0.012171669413    12.000000000000
         H           -2.410791420244    -2.223314246342    -0.015686669413     1.007825032230
         H           -3.177653420244     1.169609753658    -0.883131669413     1.007825032230
         H           -3.894772420244    -0.211511246342    -0.009728669413     1.007825032230
         H           -3.183353420244     1.152596753658     0.894366330587     1.007825032230
         H            1.350319579756     2.989463753658    -0.015928669413     1.007825032230
         H            3.604304579756    -0.862785246342    -0.222580669413     1.007825032230
         H            2.447329579756    -2.132478246342    -0.224290669413     1.007825032230

  Basis Set: AUG-CC-PVTZ
    Blend: AUG-CC-PVTZ
  Basis Set: (AUG-CC-PVTZ AUX)
    Blend: AUG-CC-PVTZ-JKFIT
	 Reference Energy          =    -503.7236260350537123 [Eh]
	 Singles Energy            =      -0.0000000000000000 [Eh]
	 Same-Spin Energy          =      -0.5495472764554277 [Eh]
	 Opposite-Spin Energy      =      -1.6336555108059025 [Eh]
	 Correlation Energy        =      -2.1832027872613304 [Eh]
	 Total Energy              =    -505.9068288223150489 [Eh]

	 ================> DF-SCS-MP2 Energies <==================
	-----------------------------------------------------------
	 SCS Same-Spin Scale       =       0.3333333333333333 [-]
	 SCS Opposite-Spin Scale   =       1.2000000000000000 [-]
	 SCS Same-Spin Energy      =      -0.1831824254851425 [Eh]
	 SCS Opposite-Spin Energy  =      -1.9603866129670831 [Eh]
	 SCS Correlation Energy    =      -2.1435690384522257 [Eh]
	 SCS Total Energy          =    -505.8671950735059113 [Eh]
	-----------------------------------------------------------

  Dipole Moment: [D]
     X:    -2.7467      Y:    -1.1519      Z:    -0.7887     Total:     3.0811

*** Psi4 exiting successfully. Buy a developer a beer!
