                               Psi4 1.4a3.dev225

  ==> Input File <==

--------------------------------------------------------------------------
#psi4
#
memory 32 gb

molecule  {
0 1
  N       -1.7889380    -0.1640290    -0.0179520
  N       -0.2703210    -1.8482040    -0.0023970
  N       -0.2671710     1.7490810    -0.0033560
  N        2.0541740     1.0368940    -0.0085470
  N        2.7206340    -1.1973270     0.0732090
  C       -0.5486140     0.4351420     0.0045870
  C        0.3650590    -0.6247560     0.0169900
  C       -1.5569260    -1.5161270    -0.0162740
  C        1.7388420    -0.2156723     0.0043084
  C       -3.0641060     0.5324820     0.0177850
  C        1.0564750     1.9508360    -0.0110870
  H       -2.3762040    -2.2259510    -0.0342240
  H       -2.9284720     1.5041700    -0.4579320
  H       -3.8067760    -0.0485880    -0.5312030
  H       -3.3972360     0.6796990     1.0480130
  H        1.3812150     2.9891510    -0.0228070
  H        3.6427950    -0.8729100    -0.1905990
  H        2.4748820    -2.1409930    -0.1987870
units angstrom
no_reorient  #important for SAPT in psi4, default
symmetry c1  #important for SAPT in psi4, default
}

set PROPERTIES_ORIGIN ["COM"]
properties('MP2/aug-cc-pvtz', properties = ['dipole'])
--------------------------------------------------------------------------

    Molecular point group: c1
  Charge       = 0
  Multiplicity = 1
  Basis Set: AUG-CC-PVTZ
    Blend: AUG-CC-PVTZ
  Basis Set: (AUG-CC-PVTZ AUX)
    Blend: AUG-CC-PVTZ-JKFIT

    Orbital Energies [Eh]
    ---------------------

    Doubly Occupied:

       1A    -15.631999     2A    -15.576198     3A    -15.567847
       4A    -15.564387     5A    -15.552186     6A    -11.333999
       7A    -11.320214     8A    -11.315071     9A    -11.309785
      10A    -11.287021    11A    -11.252781    12A     -1.367606
      13A     -1.304367    14A     -1.238691    15A     -1.194405
      16A     -1.159576    17A     -1.028642    18A     -0.983753
      19A     -0.892790    20A     -0.873911    21A     -0.801379
      22A     -0.753572    23A     -0.723402    24A     -0.677223
      25A     -0.676020    26A     -0.666044    27A     -0.626907
      28A     -0.604311    29A     -0.596476    30A     -0.589889
      31A     -0.571491    32A     -0.539166    33A     -0.493591
      34A     -0.492291    35A     -0.454523    36A     -0.414019
      37A     -0.407310    38A     -0.372636    39A     -0.306250

  @DF-RHF Final Energy:  -503.72241260814258

   => Energetics <=

    Nuclear Repulsion Energy =            594.7256137823952713
    One-Electron Energy =               -1863.8525922390899723
    Two-Electron Energy =                 765.4045658485522381
    Total Energy =                       -503.7224126081425766
  Basis Set: (AUG-CC-PVTZ AUX)
    Blend: AUG-CC-PVTZ-RI
    Molecular point group: c1

    Geometry (in Angstrom), charge = 0, multiplicity = 1:

       Center              X                  Y                   Z               Mass
    ------------   -----------------  -----------------  -----------------  -----------------
         N           -1.823314974015    -0.168691497080    -0.020492181310    14.003074004430
         N           -0.304697974015    -1.852866497080    -0.004937181310    14.003074004430
         N           -0.301547974015     1.744418502920    -0.005896181310    14.003074004430
         N            2.019797025985     1.032231502920    -0.011087181310    14.003074004430
         N            2.686257025985    -1.201989497080     0.070668818690    14.003074004430
         C           -0.582990974015     0.430479502920     0.002046818690    12.000000000000
         C            0.330682025985    -0.629418497080     0.014449818690    12.000000000000
         C           -1.591302974015    -1.520789497080    -0.018814181310    12.000000000000
         C            1.704465025985    -0.220334797080     0.001768218690    12.000000000000
         C           -3.098482974015     0.527819502920     0.015244818690    12.000000000000
         C            1.022098025985     1.946173502920    -0.013627181310    12.000000000000
         H           -2.410580974015    -2.230613497080    -0.036764181310     1.007825032230
         H           -2.962848974015     1.499507502920    -0.460472181310     1.007825032230
         H           -3.841152974015    -0.053250497080    -0.533743181310     1.007825032230
         H           -3.431612974015     0.675036502920     1.045472818690     1.007825032230
         H            1.346838025985     2.984488502920    -0.025347181310     1.007825032230
         H            3.608418025985    -0.877572497080    -0.193139181310     1.007825032230
         H            2.440505025985    -2.145655497080    -0.201327181310     1.007825032230

  Basis Set: AUG-CC-PVTZ
    Blend: AUG-CC-PVTZ
  Basis Set: (AUG-CC-PVTZ AUX)
    Blend: AUG-CC-PVTZ-JKFIT
	 Reference Energy          =    -503.7224126081425766 [Eh]
	 Singles Energy            =      -0.0000000000000000 [Eh]
	 Same-Spin Energy          =      -0.5492048303710299 [Eh]
	 Opposite-Spin Energy      =      -1.6326442222311774 [Eh]
	 Correlation Energy        =      -2.1818490526022072 [Eh]
	 Total Energy              =    -505.9042616607447940 [Eh]

	 ================> DF-SCS-MP2 Energies <==================
	-----------------------------------------------------------
	 SCS Same-Spin Scale       =       0.3333333333333333 [-]
	 SCS Opposite-Spin Scale   =       1.2000000000000000 [-]
	 SCS Same-Spin Energy      =      -0.1830682767903433 [Eh]
	 SCS Opposite-Spin Energy  =      -1.9591730666774128 [Eh]
	 SCS Correlation Energy    =      -2.1422413434677559 [Eh]
	 SCS Total Energy          =    -505.8646539516103076 [Eh]
	-----------------------------------------------------------

  Dipole Moment: [D]
     X:    -2.7569      Y:    -0.9608      Z:    -0.7214     Total:     3.0073

*** Psi4 exiting successfully. Buy a developer a beer!
