                               Psi4 1.3.2 release

  ==> Input File <==

--------------------------------------------------------------------------
#psi4
#
memory 32 gb

molecule  {
0 1
  N       -1.7893040    -0.1617730    -0.0001110
  N       -0.2713240    -1.8496560    -0.0082220
  N       -0.2672930     1.7497910     0.0010540
  N        2.0690416     1.0536944    -0.0079538
  N        2.7268170    -1.1967150     0.0786200
  C       -0.5487760     0.4359060     0.0048010
  C        0.3666280    -0.6257540     0.0082110
  C       -1.5569310    -1.5157420    -0.0063070
  C        1.7257650    -0.2653140     0.0014880
  C       -3.0654680     0.5328540     0.0028660
  C        1.0578830     1.9506280    -0.0091420
  H       -2.3786350    -2.2235800    -0.0126570
  H       -3.1454970     1.1693440    -0.8801020
  H       -3.8626160    -0.2117770    -0.0066990
  H       -3.1511970     1.1523310     0.8973960
  H        1.4005522     2.9833748    -0.0129096
  H        3.6364610    -0.8630510    -0.2195510
  H        2.4794860    -2.1327440    -0.2212610
units angstrom
no_reorient  #important for SAPT in psi4, default
symmetry c1  #important for SAPT in psi4, default
}

set PROPERTIES_ORIGIN ["COM"]
properties('MP2/aug-cc-pvtz', properties = ['dipole'])
--------------------------------------------------------------------------

    Molecular point group: c1
  Charge       = 0
  Multiplicity = 1
  Basis Set: AUG-CC-PVTZ
    Blend: AUG-CC-PVTZ
  Basis Set: (AUG-CC-PVTZ AUX)
    Blend: AUG-CC-PVTZ-JKFIT

    Orbital Energies [Eh]
    ---------------------

    Doubly Occupied:

       1A    -15.633487     2A    -15.582458     3A    -15.567961
       4A    -15.560218     5A    -15.554774     6A    -11.337024
       7A    -11.323216     8A    -11.314362     9A    -11.310727
      10A    -11.288995    11A    -11.252442    12A     -1.368095
      13A     -1.293138    14A     -1.242366    15A     -1.197378
      16A     -1.150296    17A     -1.031526    18A     -0.986568
      19A     -0.890883    20A     -0.870384    21A     -0.802696
      22A     -0.752829    23A     -0.724276    24A     -0.680953
      25A     -0.672713    26A     -0.666673    27A     -0.623571
      28A     -0.606088    29A     -0.596049    30A     -0.590553
      31A     -0.571804    32A     -0.535865    33A     -0.496145
      34A     -0.492000    35A     -0.451288    36A     -0.414824
      37A     -0.410059    38A     -0.368293    39A     -0.307842

  @DF-RHF Final Energy:  -503.72344964404192

   => Energetics <=

    Nuclear Repulsion Energy =            593.6952584591300592
    One-Electron Energy =               -1861.7957771196379326
    Two-Electron Energy =                 764.3770690164660664
    Total Energy =                       -503.7234496440419207
  Basis Set: (AUG-CC-PVTZ AUX)
    Blend: AUG-CC-PVTZ-RI
    Molecular point group: c1

    Geometry (in Angstrom), charge = 0, multiplicity = 1:

       Center              X                  Y                   Z               Mass
    ------------   -----------------  -----------------  -----------------  -----------------
         N           -1.824503442968    -0.164170413133    -0.003138229432    14.003074004430
         N           -0.306523442968    -1.852053413133    -0.011249229432    14.003074004430
         N           -0.302492442968     1.747393586867    -0.001973229432    14.003074004430
         N            2.033842157032     1.051296986867    -0.010981029432    14.003074004430
         N            2.691617557032    -1.199112413133     0.075592770568    14.003074004430
         C           -0.583975442968     0.433508586867     0.001773770568    12.000000000000
         C            0.331428557032    -0.628151413133     0.005183770568    12.000000000000
         C           -1.592130442968    -1.518139413133    -0.009334229432    12.000000000000
         C            1.690565557032    -0.267711413133    -0.001539229432    12.000000000000
         C           -3.100667442968     0.530456586867    -0.000161229432    12.000000000000
         C            1.022683557032     1.948230586867    -0.012169229432    12.000000000000
         H           -2.413834442968    -2.225977413133    -0.015684229432     1.007825032230
         H           -3.180696442968     1.166946586867    -0.883129229432     1.007825032230
         H           -3.897815442968    -0.214174413133    -0.009726229432     1.007825032230
         H           -3.186396442968     1.149933586867     0.894368770568     1.007825032230
         H            1.365352757032     2.980977386867    -0.015936829432     1.007825032230
         H            3.601261557032    -0.865448413133    -0.222578229432     1.007825032230
         H            2.444286557032    -2.135141413133    -0.224288229432     1.007825032230

  Basis Set: AUG-CC-PVTZ
    Blend: AUG-CC-PVTZ
  Basis Set: (AUG-CC-PVTZ AUX)
    Blend: AUG-CC-PVTZ-JKFIT
	 Reference Energy          =    -503.7234496440419207 [Eh]
	 Singles Energy            =      -0.0000000000000000 [Eh]
	 Same-Spin Energy          =      -0.5492448934003058 [Eh]
	 Opposite-Spin Energy      =      -1.6334915127042333 [Eh]
	 Correlation Energy        =      -2.1827364061045391 [Eh]
	 Total Energy              =    -505.9061860501464594 [Eh]

	 ================> DF-SCS-MP2 Energies <==================
	-----------------------------------------------------------
	 SCS Same-Spin Scale       =       0.3333333333333333 [-]
	 SCS Opposite-Spin Scale   =       1.2000000000000000 [-]
	 SCS Same-Spin Energy      =      -0.1830816311334353 [Eh]
	 SCS Opposite-Spin Energy  =      -1.9601898152450798 [Eh]
	 SCS Correlation Energy    =      -2.1432714463785150 [Eh]
	 SCS Total Energy          =    -505.8667210904204126 [Eh]
	-----------------------------------------------------------

  Dipole Moment: [D]
     X:    -2.7425      Y:    -1.2400      Z:    -0.7861     Total:     3.1108

*** Psi4 exiting successfully. Buy a developer a beer!
