                               Psi4 1.3.2 release

  ==> Input File <==

--------------------------------------------------------------------------
#psi4
#
memory 32 gb

molecule  {
0 1
  N       -1.7893040    -0.1617730    -0.0001110
  N       -0.2713240    -1.8496560    -0.0082220
  N       -0.2672930     1.7497910     0.0010540
  N        2.0532340     1.0361840    -0.0078740
  N        2.7268170    -1.1967150     0.0786200
  C       -0.5191952     0.3701631     0.0045298
  C        0.3666280    -0.6257540     0.0082110
  C       -1.4863876    -1.5017257    -0.0061246
  C        1.7257650    -0.2653140     0.0014880
  C       -3.0654680     0.5328540     0.0028660
  C        1.0578830     1.9506280    -0.0091420
  H       -2.3786350    -2.2235800    -0.0126570
  H       -3.1454970     1.1693440    -0.8801020
  H       -3.8626160    -0.2117770    -0.0066990
  H       -3.1511970     1.1523310     0.8973960
  H        1.3824760     2.9891980    -0.0128990
  H        3.6364610    -0.8630510    -0.2195510
  H        2.4794860    -2.1327440    -0.2212610
units angstrom
no_reorient  #important for SAPT in psi4, default
symmetry c1  #important for SAPT in psi4, default
}

set PROPERTIES_ORIGIN ["COM"]
properties('MP2/aug-cc-pvtz', properties = ['dipole'])
--------------------------------------------------------------------------

    Molecular point group: c1
  Charge       = 0
  Multiplicity = 1
  Basis Set: AUG-CC-PVTZ
    Blend: AUG-CC-PVTZ
  Basis Set: (AUG-CC-PVTZ AUX)
    Blend: AUG-CC-PVTZ-JKFIT

    Orbital Energies [Eh]
    ---------------------

    Doubly Occupied:

       1A    -15.627251     2A    -15.585114     3A    -15.562101
       4A    -15.560969     5A    -15.549536     6A    -11.339021
       7A    -11.319679     8A    -11.309114     9A    -11.307552
      10A    -11.290303    11A    -11.247424    12A     -1.380704
      13A     -1.295550    14A     -1.240525    15A     -1.208724
      16A     -1.143800    17A     -1.044594    18A     -0.988963
      19A     -0.884050    20A     -0.867443    21A     -0.807087
      22A     -0.753389    23A     -0.722559    24A     -0.680690
      25A     -0.670070    26A     -0.667080    27A     -0.624879
      28A     -0.608324    29A     -0.597446    30A     -0.587450
      31A     -0.566209    32A     -0.543032    33A     -0.491641
      34A     -0.491450    35A     -0.451264    36A     -0.416718
      37A     -0.410902    38A     -0.366028    39A     -0.323277

  @DF-RHF Final Energy:  -503.71416164410743

   => Energetics <=

    Nuclear Repulsion Energy =            596.3840430626652278
    One-Electron Energy =               -1867.1325856582843699
    Two-Electron Energy =                 767.0343809515118210
    Total Energy =                       -503.7141616441074348
  Basis Set: (AUG-CC-PVTZ AUX)
    Blend: AUG-CC-PVTZ-RI
    Molecular point group: c1

    Geometry (in Angstrom), charge = 0, multiplicity = 1:

       Center              X                  Y                   Z               Mass
    ------------   -----------------  -----------------  -----------------  -----------------
         N           -1.830956229064    -0.158400982514    -0.003138648888    14.003074004430
         N           -0.312976229064    -1.846283982514    -0.011249648888    14.003074004430
         N           -0.308945229064     1.753163017486    -0.001973648888    14.003074004430
         N            2.011581770936     1.039556017486    -0.010901648888    14.003074004430
         N            2.685164770936    -1.193342982514     0.075592351112    14.003074004430
         C           -0.560847429064     0.373535117486     0.001502151112    12.000000000000
         C            0.324975770936    -0.622381982514     0.005183351112    12.000000000000
         C           -1.528039829064    -1.498353682514    -0.009152248888    12.000000000000
         C            1.684112770936    -0.261941982514    -0.001539648888    12.000000000000
         C           -3.107120229064     0.536226017486    -0.000161648888    12.000000000000
         C            1.016230770936     1.954000017486    -0.012169648888    12.000000000000
         H           -2.420287229064    -2.220207982514    -0.015684648888     1.007825032230
         H           -3.187149229064     1.172716017486    -0.883129648888     1.007825032230
         H           -3.904268229064    -0.208404982514    -0.009726648888     1.007825032230
         H           -3.192849229064     1.155703017486     0.894368351112     1.007825032230
         H            1.340823770936     2.992570017486    -0.015926648888     1.007825032230
         H            3.594808770936    -0.859678982514    -0.222578648888     1.007825032230
         H            2.437833770936    -2.129371982514    -0.224288648888     1.007825032230

  Basis Set: AUG-CC-PVTZ
    Blend: AUG-CC-PVTZ
  Basis Set: (AUG-CC-PVTZ AUX)
    Blend: AUG-CC-PVTZ-JKFIT
	 Reference Energy          =    -503.7141616441074348 [Eh]
	 Singles Energy            =      -0.0000000000000000 [Eh]
	 Same-Spin Energy          =      -0.5470820281497466 [Eh]
	 Opposite-Spin Energy      =      -1.6306873686853338 [Eh]
	 Correlation Energy        =      -2.1777693968350804 [Eh]
	 Total Energy              =    -505.8919310409424952 [Eh]

	 ================> DF-SCS-MP2 Energies <==================
	-----------------------------------------------------------
	 SCS Same-Spin Scale       =       0.3333333333333333 [-]
	 SCS Opposite-Spin Scale   =       1.2000000000000000 [-]
	 SCS Same-Spin Energy      =      -0.1823606760499155 [Eh]
	 SCS Opposite-Spin Energy  =      -1.9568248424224004 [Eh]
	 SCS Correlation Energy    =      -2.1391855184723161 [Eh]
	 SCS Total Energy          =    -505.8533471625797233 [Eh]
	-----------------------------------------------------------

  Dipole Moment: [D]
     X:    -2.5506      Y:    -1.2499      Z:    -0.7879     Total:     2.9477

*** Psi4 exiting successfully. Buy a developer a beer!
