                               Psi4 1.3.2 release

  ==> Input File <==

--------------------------------------------------------------------------
#psi4
#
memory 32 gb

molecule  {
0 1
  N       -1.7893040    -0.1617730    -0.0001110
  N       -0.2713240    -1.8496560    -0.0082220
  N       -0.2672930     1.7497910     0.0010540
  N        2.0532340     1.0361840    -0.0078740
  N        2.7268170    -1.1967150     0.0786200
  C       -0.5487760     0.4359060     0.0048010
  C        0.3666280    -0.6257540     0.0082110
  C       -1.5569310    -1.5157420    -0.0063070
  C        1.7257650    -0.2653140     0.0014880
  C       -3.0654680     0.5328540     0.0028660
  C        1.0578830     1.9506280    -0.0091420
  H       -2.3786350    -2.2235800    -0.0126570
  H       -3.1454970     1.1693440    -0.8801020
  H       -3.8626160    -0.2117770    -0.0066990
  H       -3.1511970     1.1523310     0.8973960
  H        1.3824760     2.9891980    -0.0128990
  H        3.6334304    -0.8477672    -0.2111686
  H        2.4639785    -2.1311580    -0.2128996
units angstrom
no_reorient  #important for SAPT in psi4, default
symmetry c1  #important for SAPT in psi4, default
}

set PROPERTIES_ORIGIN ["COM"]
properties('MP2/aug-cc-pvtz', properties = ['dipole'])
--------------------------------------------------------------------------

    Molecular point group: c1
  Charge       = 0
  Multiplicity = 1
  Basis Set: AUG-CC-PVTZ
    Blend: AUG-CC-PVTZ
  Basis Set: (AUG-CC-PVTZ AUX)
    Blend: AUG-CC-PVTZ-JKFIT

    Orbital Energies [Eh]
    ---------------------

    Doubly Occupied:

       1A    -15.633106     2A    -15.581083     3A    -15.567452
       4A    -15.560583     5A    -15.552292     6A    -11.334136
       7A    -11.322559     8A    -11.312981     9A    -11.311607
      10A    -11.288735    11A    -11.251755    12A     -1.367799
      13A     -1.296266    14A     -1.242419    15A     -1.196900
      16A     -1.151828    17A     -1.031264    18A     -0.986040
      19A     -0.890373    20A     -0.872257    21A     -0.802123
      22A     -0.754367    23A     -0.723488    24A     -0.681348
      25A     -0.673873    26A     -0.666406    27A     -0.624276
      28A     -0.606852    29A     -0.596675    30A     -0.591328
      31A     -0.571881    32A     -0.536827    33A     -0.495545
      34A     -0.492695    35A     -0.450584    36A     -0.414065
      37A     -0.408588    38A     -0.368408    39A     -0.307649

  @DF-RHF Final Energy:  -503.72475079177542

   => Energetics <=

    Nuclear Repulsion Energy =            594.3850619768591059
    One-Electron Energy =               -1863.1827982190479815
    Two-Electron Energy =                 765.0729854504133982
    Total Energy =                       -503.7247507917754774
  Basis Set: (AUG-CC-PVTZ AUX)
    Blend: AUG-CC-PVTZ-RI
    Molecular point group: c1

    Geometry (in Angstrom), charge = 0, multiplicity = 1:

       Center              X                  Y                   Z               Mass
    ------------   -----------------  -----------------  -----------------  -----------------
         N           -1.822770998150    -0.162678975305    -0.003258997739    14.003074004430
         N           -0.304790998150    -1.850561975305    -0.011369997739    14.003074004430
         N           -0.300759998150     1.748885024695    -0.002093997739    14.003074004430
         N            2.019767001850     1.035278024695    -0.011021997739    14.003074004430
         N            2.693350001850    -1.197620975305     0.075472002261    14.003074004430
         C           -0.582242998150     0.435000024695     0.001653002261    12.000000000000
         C            0.333161001850    -0.626659975305     0.005063002261    12.000000000000
         C           -1.590397998150    -1.516647975305    -0.009454997739    12.000000000000
         C            1.692298001850    -0.266219975305    -0.001659997739    12.000000000000
         C           -3.098934998150     0.531948024695    -0.000281997739    12.000000000000
         C            1.024416001850     1.949722024695    -0.012289997739    12.000000000000
         H           -2.412101998150    -2.224485975305    -0.015804997739     1.007825032230
         H           -3.178963998150     1.168438024695    -0.883249997739     1.007825032230
         H           -3.896082998150    -0.212682975305    -0.009846997739     1.007825032230
         H           -3.184663998150     1.151425024695     0.894248002261     1.007825032230
         H            1.349009001850     2.988292024695    -0.016046997739     1.007825032230
         H            3.599963401850    -0.848673175305    -0.214316597739     1.007825032230
         H            2.430511501850    -2.132063975305    -0.216047597739     1.007825032230

  Basis Set: AUG-CC-PVTZ
    Blend: AUG-CC-PVTZ
  Basis Set: (AUG-CC-PVTZ AUX)
    Blend: AUG-CC-PVTZ-JKFIT
	 Reference Energy          =    -503.7247507917754206 [Eh]
	 Singles Energy            =      -0.0000000000000000 [Eh]
	 Same-Spin Energy          =      -0.5493089370103041 [Eh]
	 Opposite-Spin Energy      =      -1.6331602576176742 [Eh]
	 Correlation Energy        =      -2.1824691946279784 [Eh]
	 Total Energy              =    -505.9072199864033905 [Eh]

	 ================> DF-SCS-MP2 Energies <==================
	-----------------------------------------------------------
	 SCS Same-Spin Scale       =       0.3333333333333333 [-]
	 SCS Opposite-Spin Scale   =       1.2000000000000000 [-]
	 SCS Same-Spin Energy      =      -0.1831029790034347 [Eh]
	 SCS Opposite-Spin Energy  =      -1.9597923091412091 [Eh]
	 SCS Correlation Energy    =      -2.1428952881446439 [Eh]
	 SCS Total Energy          =    -505.8676460799200640 [Eh]
	-----------------------------------------------------------

  Dipole Moment: [D]
     X:    -2.7383      Y:    -1.1518      Z:    -0.7679     Total:     3.0683

*** Psi4 exiting successfully. Buy a developer a beer!
