                               Psi4 1.3.2 release

  ==> Input File <==

--------------------------------------------------------------------------
#psi4
#
memory 32 gb

molecule  {
0 1
  N       -1.7893040    -0.1617730    -0.0001110
  N       -0.2713240    -1.8496560    -0.0082220
  N       -0.2672930     1.7497910     0.0010540
  N        2.0532340     1.0361840    -0.0078740
  N        2.7268170    -1.1967150     0.0786200
  C       -0.5487760     0.4359060     0.0048010
  C        0.3666280    -0.6257540     0.0082110
  C       -1.5569310    -1.5157420    -0.0063070
  C        1.7739120    -0.2183895    -0.0234267
  C       -3.0654680     0.5328540     0.0028660
  C        1.0578830     1.9506280    -0.0091420
  H       -2.3786350    -2.2235800    -0.0126570
  H       -3.1454970     1.1693440    -0.8801020
  H       -3.8626160    -0.2117770    -0.0066990
  H       -3.1511970     1.1523310     0.8973960
  H        1.3824760     2.9891980    -0.0128990
  H        3.6143244    -0.8158630    -0.2295554
  H        2.4794860    -2.1327440    -0.2212610
units angstrom
no_reorient  #important for SAPT in psi4, default
symmetry c1  #important for SAPT in psi4, default
}

set PROPERTIES_ORIGIN ["COM"]
properties('MP2/aug-cc-pvtz', properties = ['dipole'])
--------------------------------------------------------------------------

    Molecular point group: c1
  Charge       = 0
  Multiplicity = 1
  Basis Set: AUG-CC-PVTZ
    Blend: AUG-CC-PVTZ
  Basis Set: (AUG-CC-PVTZ AUX)
    Blend: AUG-CC-PVTZ-JKFIT

    Orbital Energies [Eh]
    ---------------------

    Doubly Occupied:

       1A    -15.631247     2A    -15.580987     3A    -15.566283
       4A    -15.564110     5A    -15.551632     6A    -11.335507
       7A    -11.318987     8A    -11.315430     9A    -11.306684
      10A    -11.287334    11A    -11.254045    12A     -1.365347
      13A     -1.306373    14A     -1.243064    15A     -1.195335
      16A     -1.163590    17A     -1.024257    18A     -0.981605
      19A     -0.893566    20A     -0.868764    21A     -0.800267
      22A     -0.755110    23A     -0.724160    24A     -0.683088
      25A     -0.674957    26A     -0.664345    27A     -0.629714
      28A     -0.602809    29A     -0.597043    30A     -0.585409
      31A     -0.570648    32A     -0.541229    33A     -0.495302
      34A     -0.492684    35A     -0.452294    36A     -0.413243
      37A     -0.405900    38A     -0.373656    39A     -0.302976

  @DF-RHF Final Energy:  -503.71844205270889

   => Energetics <=

    Nuclear Repulsion Energy =            594.1705124044216291
    One-Electron Energy =               -1862.7399453554410229
    Two-Electron Energy =                 764.8509908983103287
    Total Energy =                       -503.7184420527089515
  Basis Set: (AUG-CC-PVTZ AUX)
    Blend: AUG-CC-PVTZ-RI
    Molecular point group: c1

    Geometry (in Angstrom), charge = 0, multiplicity = 1:

       Center              X                  Y                   Z               Mass
    ------------   -----------------  -----------------  -----------------  -----------------
         N           -1.826622455735    -0.166661324956    -0.001072551184    14.003074004430
         N           -0.308642455735    -1.854544324956    -0.009183551184    14.003074004430
         N           -0.304611455735     1.744902675044     0.000092448816    14.003074004430
         N            2.015915544265     1.031295675044    -0.008835551184    14.003074004430
         N            2.689498544265    -1.201603324956     0.077658448816    14.003074004430
         C           -0.586094455735     0.431017675044     0.003839448816    12.000000000000
         C            0.329309544265    -0.630642324956     0.007249448816    12.000000000000
         C           -1.594249455735    -1.520630324956    -0.007268551184    12.000000000000
         C            1.736593544265    -0.223277824956    -0.024388251184    12.000000000000
         C           -3.102786455735     0.527965675044     0.001904448816    12.000000000000
         C            1.020564544265     1.945739675044    -0.010103551184    12.000000000000
         H           -2.415953455735    -2.228468324956    -0.013618551184     1.007825032230
         H           -3.182815455735     1.164455675044    -0.881063551184     1.007825032230
         H           -3.899934455735    -0.216665324956    -0.007660551184     1.007825032230
         H           -3.188515455735     1.147442675044     0.896434448816     1.007825032230
         H            1.345157544265     2.984309675044    -0.013860551184     1.007825032230
         H            3.577005944265    -0.820751324956    -0.230516951184     1.007825032230
         H            2.442167544265    -2.137632324956    -0.222222551184     1.007825032230

  Basis Set: AUG-CC-PVTZ
    Blend: AUG-CC-PVTZ
  Basis Set: (AUG-CC-PVTZ AUX)
    Blend: AUG-CC-PVTZ-JKFIT
	 Reference Energy          =    -503.7184420527088946 [Eh]
	 Singles Energy            =      -0.0000000000000000 [Eh]
	 Same-Spin Energy          =      -0.5494077213945014 [Eh]
	 Opposite-Spin Energy      =      -1.6331797101648733 [Eh]
	 Correlation Energy        =      -2.1825874315593747 [Eh]
	 Total Energy              =    -505.9010294842682924 [Eh]

	 ================> DF-SCS-MP2 Energies <==================
	-----------------------------------------------------------
	 SCS Same-Spin Scale       =       0.3333333333333333 [-]
	 SCS Opposite-Spin Scale   =       1.2000000000000000 [-]
	 SCS Same-Spin Energy      =      -0.1831359071315005 [Eh]
	 SCS Opposite-Spin Energy  =      -1.9598156521978478 [Eh]
	 SCS Correlation Energy    =      -2.1429515593293482 [Eh]
	 SCS Total Energy          =    -505.8613936120382277 [Eh]
	-----------------------------------------------------------

  Dipole Moment: [D]
     X:    -2.6444      Y:    -0.9894      Z:    -0.8241     Total:     2.9412

*** Psi4 exiting successfully. Buy a developer a beer!
