                               Psi4 1.3.2 release

  ==> Input File <==

--------------------------------------------------------------------------
#psi4
#
memory 32 gb

molecule  {
0 1
  N       -1.7893040    -0.1617730    -0.0001110
  N       -0.2713240    -1.8496560    -0.0082220
  N       -0.2672930     1.7497910     0.0010540
  N        2.0040117     0.9853450    -0.0076370
  N        2.7268170    -1.1967150     0.0786200
  C       -0.5487760     0.4359060     0.0048010
  C        0.3666280    -0.6257540     0.0082110
  C       -1.5569310    -1.5157420    -0.0063070
  C        1.7257650    -0.2653140     0.0014880
  C       -3.0654680     0.5328540     0.0028660
  C        1.0578830     1.9506280    -0.0091420
  H       -2.3786350    -2.2235800    -0.0126570
  H       -3.1454970     1.1693440    -0.8801020
  H       -3.8626160    -0.2117770    -0.0066990
  H       -3.1511970     1.1523310     0.8973960
  H        1.3276763     3.0047628    -0.0128603
  H        3.6364610    -0.8630510    -0.2195510
  H        2.4794860    -2.1327440    -0.2212610
units angstrom
no_reorient  #important for SAPT in psi4, default
symmetry c1  #important for SAPT in psi4, default
}

set PROPERTIES_ORIGIN ["COM"]
properties('MP2/aug-cc-pvtz', properties = ['dipole'])
--------------------------------------------------------------------------

    Molecular point group: c1
  Charge       = 0
  Multiplicity = 1
  Basis Set: AUG-CC-PVTZ
    Blend: AUG-CC-PVTZ
  Basis Set: (AUG-CC-PVTZ AUX)
    Blend: AUG-CC-PVTZ-JKFIT

    Orbital Energies [Eh]
    ---------------------

    Doubly Occupied:

       1A    -15.631824     2A    -15.576377     3A    -15.565349
       4A    -15.562312     5A    -15.545183     6A    -11.326283
       7A    -11.320363     8A    -11.314339     9A    -11.308864
      10A    -11.287906    11A    -11.250052    12A     -1.367158
      13A     -1.306287    14A     -1.242124    15A     -1.195157
      16A     -1.156802    17A     -1.030888    18A     -0.984446
      19A     -0.892544    20A     -0.874717    21A     -0.803561
      22A     -0.755609    23A     -0.723410    24A     -0.681220
      25A     -0.674198    26A     -0.665584    27A     -0.628451
      28A     -0.607450    29A     -0.598439    30A     -0.593215
      31A     -0.571395    32A     -0.539577    33A     -0.494039
      34A     -0.493748    35A     -0.447749    36A     -0.412724
      37A     -0.402850    38A     -0.369117    39A     -0.307318

  @DF-RHF Final Energy:  -503.72193192771277

   => Energetics <=

    Nuclear Repulsion Energy =            596.2855486642283722
    One-Electron Energy =               -1866.9977037587177620
    Two-Electron Energy =                 766.9902231667765591
    Total Energy =                       -503.7219319277128307
  Basis Set: (AUG-CC-PVTZ AUX)
    Blend: AUG-CC-PVTZ-RI
    Molecular point group: c1

    Geometry (in Angstrom), charge = 0, multiplicity = 1:

       Center              X                  Y                   Z               Mass
    ------------   -----------------  -----------------  -----------------  -----------------
         N           -1.817902089915    -0.157894533123    -0.003168321706    14.003074004430
         N           -0.299922089915    -1.845777533123    -0.011279321706    14.003074004430
         N           -0.295891089915     1.753669466877    -0.002003321706    14.003074004430
         N            1.975413610085     0.989223466877    -0.010694321706    14.003074004430
         N            2.698218910085    -1.192836533123     0.075562678294    14.003074004430
         C           -0.577374089915     0.439784466877     0.001743678294    12.000000000000
         C            0.338029910085    -0.621875533123     0.005153678294    12.000000000000
         C           -1.585529089915    -1.511863533123    -0.009364321706    12.000000000000
         C            1.697166910085    -0.261435533123    -0.001569321706    12.000000000000
         C           -3.094066089915     0.536732466877    -0.000191321706    12.000000000000
         C            1.029284910085     1.954506466877    -0.012199321706    12.000000000000
         H           -2.407233089915    -2.219701533123    -0.015714321706     1.007825032230
         H           -3.174095089915     1.173222466877    -0.883159321706     1.007825032230
         H           -3.891214089915    -0.207898533123    -0.009756321706     1.007825032230
         H           -3.179795089915     1.156209466877     0.894338678294     1.007825032230
         H            1.299078210085     3.008641266877    -0.015917621706     1.007825032230
         H            3.607862910085    -0.859172533123    -0.222608321706     1.007825032230
         H            2.450887910085    -2.128865533123    -0.224318321706     1.007825032230

  Basis Set: AUG-CC-PVTZ
    Blend: AUG-CC-PVTZ
  Basis Set: (AUG-CC-PVTZ AUX)
    Blend: AUG-CC-PVTZ-JKFIT
	 Reference Energy          =    -503.7219319277127738 [Eh]
	 Singles Energy            =      -0.0000000000000000 [Eh]
	 Same-Spin Energy          =      -0.5494955425165102 [Eh]
	 Opposite-Spin Energy      =      -1.6324711540986843 [Eh]
	 Correlation Energy        =      -2.1819666966151945 [Eh]
	 Total Energy              =    -505.9038986243279510 [Eh]

	 ================> DF-SCS-MP2 Energies <==================
	-----------------------------------------------------------
	 SCS Same-Spin Scale       =       0.3333333333333333 [-]
	 SCS Opposite-Spin Scale   =       1.2000000000000000 [-]
	 SCS Same-Spin Energy      =      -0.1831651808388367 [Eh]
	 SCS Opposite-Spin Energy  =      -1.9589653849184210 [Eh]
	 SCS Correlation Energy    =      -2.1421305657572578 [Eh]
	 SCS Total Energy          =    -505.8640624934700440 [Eh]
	-----------------------------------------------------------

  Dipole Moment: [D]
     X:    -2.6946      Y:    -0.9022      Z:    -0.7977     Total:     2.9515

*** Psi4 exiting successfully. Buy a developer a beer!
