                               Psi4 1.3.2 release

  ==> Input File <==

--------------------------------------------------------------------------
#psi4
#
memory 32 gb

molecule  {
0 1
  N       -1.7893040    -0.1617730    -0.0001110
  N       -0.2713240    -1.8496560    -0.0082220
  N       -0.2594740     1.7036657     0.0013903
  N        2.0207154     1.0020060    -0.0073787
  N        2.7268170    -1.1967150     0.0786200
  C       -0.5487760     0.4359060     0.0048010
  C        0.3666280    -0.6257540     0.0082110
  C       -1.5569310    -1.5157420    -0.0063070
  C        1.7257650    -0.2653140     0.0014880
  C       -3.0654680     0.5328540     0.0028660
  C        1.0578830     1.9506280    -0.0091420
  H       -2.3786350    -2.2235800    -0.0126570
  H       -3.1454970     1.1693440    -0.8801020
  H       -3.8626160    -0.2117770    -0.0066990
  H       -3.1511970     1.1523310     0.8973960
  H        1.3824760     2.9891980    -0.0128990
  H        3.6364610    -0.8630510    -0.2195510
  H        2.4794860    -2.1327440    -0.2212610
units angstrom
no_reorient  #important for SAPT in psi4, default
symmetry c1  #important for SAPT in psi4, default
}

set PROPERTIES_ORIGIN ["COM"]
properties('MP2/aug-cc-pvtz', properties = ['dipole'])
--------------------------------------------------------------------------

    Molecular point group: c1
  Charge       = 0
  Multiplicity = 1
  Basis Set: AUG-CC-PVTZ
    Blend: AUG-CC-PVTZ
  Basis Set: (AUG-CC-PVTZ AUX)
    Blend: AUG-CC-PVTZ-JKFIT

    Orbital Energies [Eh]
    ---------------------

    Doubly Occupied:

       1A    -15.630048     2A    -15.575708     3A    -15.564640
       4A    -15.556985     5A    -15.547593     6A    -11.326100
       7A    -11.321151     8A    -11.314320     9A    -11.306464
      10A    -11.287631    11A    -11.248823    12A     -1.368626
      13A     -1.304278    14A     -1.246322    15A     -1.194756
      16A     -1.157925    17A     -1.029790    18A     -0.984174
      19A     -0.893432    20A     -0.877299    21A     -0.802543
      22A     -0.755988    23A     -0.723654    24A     -0.681990
      25A     -0.674998    26A     -0.666465    27A     -0.627970
      28A     -0.605988    29A     -0.599988    30A     -0.594841
      31A     -0.572614    32A     -0.537567    33A     -0.497476
      34A     -0.493291    35A     -0.448132    36A     -0.412752
      37A     -0.400965    38A     -0.370569    39A     -0.303765

  @DF-RHF Final Energy:  -503.72414431608826

   => Energetics <=

    Nuclear Repulsion Energy =            596.9364936805651496
    One-Electron Energy =               -1868.3060265984213402
    Two-Electron Energy =                 767.6453886017681043
    Total Energy =                       -503.7241443160882000
  Basis Set: (AUG-CC-PVTZ AUX)
    Blend: AUG-CC-PVTZ-RI
    Molecular point group: c1

    Geometry (in Angstrom), charge = 0, multiplicity = 1:

       Center              X                  Y                   Z               Mass
    ------------   -----------------  -----------------  -----------------  -----------------
         N           -1.820576144412    -0.155021540897    -0.003223914494    14.003074004430
         N           -0.302596144412    -1.842904540897    -0.011334914494    14.003074004430
         N           -0.290746144412     1.710417159103    -0.001722614494    14.003074004430
         N            1.989443255588     1.008757459103    -0.010491614494    14.003074004430
         N            2.695544855588    -1.189963540897     0.075507085506    14.003074004430
         C           -0.580048144412     0.442657459103     0.001688085506    12.000000000000
         C            0.335355855588    -0.619002540897     0.005098085506    12.000000000000
         C           -1.588203144412    -1.508990540897    -0.009419914494    12.000000000000
         C            1.694492855588    -0.258562540897    -0.001624914494    12.000000000000
         C           -3.096740144412     0.539605459103    -0.000246914494    12.000000000000
         C            1.026610855588     1.957379459103    -0.012254914494    12.000000000000
         H           -2.409907144412    -2.216828540897    -0.015769914494     1.007825032230
         H           -3.176769144412     1.176095459103    -0.883214914494     1.007825032230
         H           -3.893888144412    -0.205025540897    -0.009811914494     1.007825032230
         H           -3.182469144412     1.159082459103     0.894283085506     1.007825032230
         H            1.351203855588     2.995949459103    -0.016011914494     1.007825032230
         H            3.605188855588    -0.856299540897    -0.222663914494     1.007825032230
         H            2.448213855588    -2.125992540897    -0.224373914494     1.007825032230

  Basis Set: AUG-CC-PVTZ
    Blend: AUG-CC-PVTZ
  Basis Set: (AUG-CC-PVTZ AUX)
    Blend: AUG-CC-PVTZ-JKFIT
	 Reference Energy          =    -503.7241443160882568 [Eh]
	 Singles Energy            =      -0.0000000000000000 [Eh]
	 Same-Spin Energy          =      -0.5494882400378029 [Eh]
	 Opposite-Spin Energy      =      -1.6317631464919629 [Eh]
	 Correlation Energy        =      -2.1812513865297660 [Eh]
	 Total Energy              =    -505.9053957026180228 [Eh]

	 ================> DF-SCS-MP2 Energies <==================
	-----------------------------------------------------------
	 SCS Same-Spin Scale       =       0.3333333333333333 [-]
	 SCS Opposite-Spin Scale   =       1.2000000000000000 [-]
	 SCS Same-Spin Energy      =      -0.1831627466792676 [Eh]
	 SCS Opposite-Spin Energy  =      -1.9581157757903553 [Eh]
	 SCS Correlation Energy    =      -2.1412785224696229 [Eh]
	 SCS Total Energy          =    -505.8654228385578904 [Eh]
	-----------------------------------------------------------

  Dipole Moment: [D]
     X:    -2.7287      Y:    -0.8583      Z:    -0.7966     Total:     2.9693

*** Psi4 exiting successfully. Buy a developer a beer!
