                               Psi4 1.3.2 release

  ==> Input File <==

--------------------------------------------------------------------------
#psi4
#
memory 32 gb

molecule  {
0 1
  N       -1.7893040    -0.1617730    -0.0001110
  N       -0.2713240    -1.8496560    -0.0082220
  N       -0.2672930     1.7497910     0.0010540
  N        2.0532340     1.0361840    -0.0078740
  N        2.7268170    -1.1967150     0.0786200
  C       -0.5487760     0.4359060     0.0048010
  C        0.3666280    -0.6257540     0.0082110
  C       -1.5569310    -1.5157420    -0.0063070
  C        1.6951835    -0.2980235     0.0182195
  C       -3.0654680     0.5328540     0.0028660
  C        1.0578830     1.9506280    -0.0091420
  H       -2.3786350    -2.2235800    -0.0126570
  H       -3.1454970     1.1693440    -0.8801020
  H       -3.8626160    -0.2117770    -0.0066990
  H       -3.1511970     1.1523310     0.8973960
  H        1.3824760     2.9891980    -0.0128990
  H        3.6498370    -0.8950259    -0.2124256
  H        2.4794860    -2.1327440    -0.2212610
units angstrom
no_reorient  #important for SAPT in psi4, default
symmetry c1  #important for SAPT in psi4, default
}

set PROPERTIES_ORIGIN ["COM"]
properties('MP2/aug-cc-pvtz', properties = ['dipole'])
--------------------------------------------------------------------------

    Molecular point group: c1
  Charge       = 0
  Multiplicity = 1
  Basis Set: AUG-CC-PVTZ
    Blend: AUG-CC-PVTZ
  Basis Set: (AUG-CC-PVTZ AUX)
    Blend: AUG-CC-PVTZ-JKFIT

    Orbital Energies [Eh]
    ---------------------

    Doubly Occupied:

       1A    -15.634331     2A    -15.580809     3A    -15.567844
       4A    -15.558828     5A    -15.552792     6A    -11.333270
       7A    -11.324873     8A    -11.317312     9A    -11.309053
      10A    -11.289686    11A    -11.249907    12A     -1.369598
      13A     -1.290362    14A     -1.241964    15A     -1.197767
      16A     -1.143993    17A     -1.036894    18A     -0.988962
      19A     -0.893433    20A     -0.869549    21A     -0.804895
      22A     -0.751758    23A     -0.724419    24A     -0.684347
      25A     -0.668595    26A     -0.666436    27A     -0.623905
      28A     -0.608554    29A     -0.596808    30A     -0.592151
      31A     -0.572268    32A     -0.533878    33A     -0.496150
      34A     -0.492210    35A     -0.448389    36A     -0.414996
      37A     -0.409619    38A     -0.365051    39A     -0.310921

  @DF-RHF Final Energy:  -503.72137882479564

   => Energetics <=

    Nuclear Repulsion Energy =            594.4373340043422331
    One-Electron Energy =               -1863.2842701638114704
    Two-Electron Energy =                 765.1255573346736583
    Total Energy =                       -503.7213788247956927
  Basis Set: (AUG-CC-PVTZ AUX)
    Blend: AUG-CC-PVTZ-RI
    Molecular point group: c1

    Geometry (in Angstrom), charge = 0, multiplicity = 1:

       Center              X                  Y                   Z               Mass
    ------------   -----------------  -----------------  -----------------  -----------------
         N           -1.820524980541    -0.159715666249    -0.004540839488    14.003074004430
         N           -0.302544980541    -1.847598666249    -0.012651839488    14.003074004430
         N           -0.298513980541     1.751848333751    -0.003375839488    14.003074004430
         N            2.022013019459     1.038241333751    -0.012303839488    14.003074004430
         N            2.695596019459    -1.194657666249     0.074190160512    14.003074004430
         C           -0.579996980541     0.437963333751     0.000371160512    12.000000000000
         C            0.335407019459    -0.623696666249     0.003781160512    12.000000000000
         C           -1.588151980541    -1.513684666249    -0.010736839488    12.000000000000
         C            1.663962519459    -0.295966166249     0.013789660512    12.000000000000
         C           -3.096688980541     0.534911333751    -0.001563839488    12.000000000000
         C            1.026662019459     1.952685333751    -0.013571839488    12.000000000000
         H           -2.409855980541    -2.221522666249    -0.017086839488     1.007825032230
         H           -3.176717980541     1.171401333751    -0.884531839488     1.007825032230
         H           -3.893836980541    -0.209719666249    -0.011128839488     1.007825032230
         H           -3.182417980541     1.154388333751     0.892966160512     1.007825032230
         H            1.351255019459     2.991255333751    -0.017328839488     1.007825032230
         H            3.618616019459    -0.892968566249    -0.216855439488     1.007825032230
         H            2.448265019459    -2.130686666249    -0.225690839488     1.007825032230

  Basis Set: AUG-CC-PVTZ
    Blend: AUG-CC-PVTZ
  Basis Set: (AUG-CC-PVTZ AUX)
    Blend: AUG-CC-PVTZ-JKFIT
	 Reference Energy          =    -503.7213788247956359 [Eh]
	 Singles Energy            =      -0.0000000000000000 [Eh]
	 Same-Spin Energy          =      -0.5492433288828018 [Eh]
	 Opposite-Spin Energy      =      -1.6335742319982272 [Eh]
	 Correlation Energy        =      -2.1828175608810287 [Eh]
	 Total Energy              =    -505.9041963856766415 [Eh]

	 ================> DF-SCS-MP2 Energies <==================
	-----------------------------------------------------------
	 SCS Same-Spin Scale       =       0.3333333333333333 [-]
	 SCS Opposite-Spin Scale   =       1.2000000000000000 [-]
	 SCS Same-Spin Energy      =      -0.1830811096276006 [Eh]
	 SCS Opposite-Spin Energy  =      -1.9602890783978726 [Eh]
	 SCS Correlation Energy    =      -2.1433701880254734 [Eh]
	 SCS Total Energy          =    -505.8647490128211075 [Eh]
	-----------------------------------------------------------

  Dipole Moment: [D]
     X:    -2.7825      Y:    -1.2585      Z:    -0.7665     Total:     3.1486

*** Psi4 exiting successfully. Buy a developer a beer!
