                               Psi4 1.3.2 release

  ==> Input File <==

--------------------------------------------------------------------------
#psi4
#
memory 32 gb

molecule  {
0 1
  N       -1.7893040    -0.1617730    -0.0001110
  N       -0.2713240    -1.8496560    -0.0082220
  N       -0.2672930     1.7497910     0.0010540
  N        2.0532340     1.0361840    -0.0078740
  N        2.7268170    -1.1967150     0.0786200
  C       -0.5487760     0.4359060     0.0048010
  C        0.3666280    -0.6257540     0.0082110
  C       -1.5569310    -1.5157420    -0.0063070
  C        1.7257650    -0.2653140     0.0014880
  C       -3.0654680     0.5328540     0.0028660
  C        1.0578830     1.9506280    -0.0091420
  H       -2.3786350    -2.2235800    -0.0126570
  H       -3.1454970     1.1693440    -0.8801020
  H       -3.8626160    -0.2117770    -0.0066990
  H       -3.1511970     1.1523310     0.8973960
  H        1.3824760     2.9891980    -0.0128990
  H        3.7261916    -0.8301372    -0.2489637
  H        2.4794860    -2.1327440    -0.2212610
units angstrom
no_reorient  #important for SAPT in psi4, default
symmetry c1  #important for SAPT in psi4, default
}

set PROPERTIES_ORIGIN ["COM"]
properties('MP2/aug-cc-pvtz', properties = ['dipole'])
--------------------------------------------------------------------------

    Molecular point group: c1
  Charge       = 0
  Multiplicity = 1
  Basis Set: AUG-CC-PVTZ
    Blend: AUG-CC-PVTZ
  Basis Set: (AUG-CC-PVTZ AUX)
    Blend: AUG-CC-PVTZ-JKFIT

    Orbital Energies [Eh]
    ---------------------

    Doubly Occupied:

       1A    -15.632812     2A    -15.589130     3A    -15.567068
       4A    -15.560234     5A    -15.551865     6A    -11.334253
       7A    -11.322195     8A    -11.312754     9A    -11.311213
      10A    -11.288520    11A    -11.251767    12A     -1.367453
      13A     -1.294261    14A     -1.238062    15A     -1.194324
      16A     -1.148253    17A     -1.029720    18A     -0.985238
      19A     -0.888508    20A     -0.871170    21A     -0.799947
      22A     -0.750553    23A     -0.720301    24A     -0.675559
      25A     -0.666238    26A     -0.664028    27A     -0.624094
      28A     -0.599537    29A     -0.596094    30A     -0.590324
      31A     -0.570552    32A     -0.536124    33A     -0.494625
      34A     -0.492259    35A     -0.450158    36A     -0.413468
      37A     -0.407989    38A     -0.367931    39A     -0.307143

  @DF-RHF Final Energy:  -503.71447030683396

   => Energetics <=

    Nuclear Repulsion Energy =            593.7955285328727086
    One-Electron Energy =               -1862.0885531385124523
    Two-Electron Energy =                 764.5785542988058978
    Total Energy =                       -503.7144703068339595
  Basis Set: (AUG-CC-PVTZ AUX)
    Blend: AUG-CC-PVTZ-RI
    Molecular point group: c1

    Geometry (in Angstrom), charge = 0, multiplicity = 1:

       Center              X                  Y                   Z               Mass
    ------------   -----------------  -----------------  -----------------  -----------------
         N           -1.823502975072    -0.162787444675    -0.002946945477    14.003074004430
         N           -0.305522975072    -1.850670444675    -0.011057945477    14.003074004430
         N           -0.301491975072     1.748776555325    -0.001781945477    14.003074004430
         N            2.019035024928     1.035169555325    -0.010709945477    14.003074004430
         N            2.692618024928    -1.197729444675     0.075784054523    14.003074004430
         C           -0.582974975072     0.434891555325     0.001965054523    12.000000000000
         C            0.332429024928    -0.626768444675     0.005375054523    12.000000000000
         C           -1.591129975072    -1.516756444675    -0.009142945477    12.000000000000
         C            1.691566024928    -0.266328444675    -0.001347945477    12.000000000000
         C           -3.099666975072     0.531839555325     0.000030054523    12.000000000000
         C            1.023684024928     1.949613555325    -0.011977945477    12.000000000000
         H           -2.412833975072    -2.224594444675    -0.015492945477     1.007825032230
         H           -3.179695975072     1.168329555325    -0.882937945477     1.007825032230
         H           -3.896814975072    -0.212791444675    -0.009534945477     1.007825032230
         H           -3.185395975072     1.151316555325     0.894560054523     1.007825032230
         H            1.348277024928     2.988183555325    -0.015734945477     1.007825032230
         H            3.691992624928    -0.831151644675    -0.251799645477     1.007825032230
         H            2.445287024928    -2.133758444675    -0.224096945477     1.007825032230

  Basis Set: AUG-CC-PVTZ
    Blend: AUG-CC-PVTZ
  Basis Set: (AUG-CC-PVTZ AUX)
    Blend: AUG-CC-PVTZ-JKFIT
	 Reference Energy          =    -503.7144703068339595 [Eh]
	 Singles Energy            =      -0.0000000000000000 [Eh]
	 Same-Spin Energy          =      -0.5499404949856819 [Eh]
	 Opposite-Spin Energy      =      -1.6349883276388975 [Eh]
	 Correlation Energy        =      -2.1849288226245793 [Eh]
	 Total Energy              =    -505.8993991294585157 [Eh]

	 ================> DF-SCS-MP2 Energies <==================
	-----------------------------------------------------------
	 SCS Same-Spin Scale       =       0.3333333333333333 [-]
	 SCS Opposite-Spin Scale   =       1.2000000000000000 [-]
	 SCS Same-Spin Energy      =      -0.1833134983285606 [Eh]
	 SCS Opposite-Spin Energy  =      -1.9619859931666768 [Eh]
	 SCS Correlation Energy    =      -2.1452994914952375 [Eh]
	 SCS Total Energy          =    -505.8597697983291823 [Eh]
	-----------------------------------------------------------

  Dipole Moment: [D]
     X:    -2.6336      Y:    -1.1342      Z:    -0.8078     Total:     2.9791

*** Psi4 exiting successfully. Buy a developer a beer!
