                               Psi4 1.3.2 release

  ==> Input File <==

--------------------------------------------------------------------------
#psi4
#
memory 32 gb

molecule  {
0 1
  N       -1.7893040    -0.1617730    -0.0001110
  N       -0.2713240    -1.8496560    -0.0082220
  N       -0.2672930     1.7497910     0.0010540
  N        2.0532340     1.0361840    -0.0078740
  N        2.7268170    -1.1967150     0.0786200
  C       -0.5487760     0.4359060     0.0048010
  C        0.3666280    -0.6257540     0.0082110
  C       -1.5569310    -1.5157420    -0.0063070
  C        1.7257650    -0.2653140     0.0014880
  C       -3.0654680     0.5328540     0.0028660
  C        0.9106026     2.0859367    -0.0093296
  H       -2.3786350    -2.2235800    -0.0126570
  H       -3.1454970     1.1693440    -0.8801020
  H       -3.8626160    -0.2117770    -0.0066990
  H       -3.1511970     1.1523310     0.8973960
  H        1.3824760     2.9891980    -0.0128990
  H        3.6364610    -0.8630510    -0.2195510
  H        2.4794860    -2.1327440    -0.2212610
units angstrom
no_reorient  #important for SAPT in psi4, default
symmetry c1  #important for SAPT in psi4, default
}

set PROPERTIES_ORIGIN ["COM"]
properties('MP2/aug-cc-pvtz', properties = ['dipole'])
--------------------------------------------------------------------------

    Molecular point group: c1
  Charge       = 0
  Multiplicity = 1
  Basis Set: AUG-CC-PVTZ
    Blend: AUG-CC-PVTZ
  Basis Set: (AUG-CC-PVTZ AUX)
    Blend: AUG-CC-PVTZ-JKFIT

    Orbital Energies [Eh]
    ---------------------

    Doubly Occupied:

       1A    -15.639324     2A    -15.572316     3A    -15.569335
       4A    -15.567787     5A    -15.542197     6A    -11.323370
       7A    -11.320964     8A    -11.313812     9A    -11.311412
      10A    -11.291728    11A    -11.255877    12A     -1.370476
      13A     -1.295015    14A     -1.251532    15A     -1.198503
      16A     -1.118124    17A     -1.038609    18A     -0.986686
      19A     -0.887006    20A     -0.876686    21A     -0.801448
      22A     -0.751983    23A     -0.731495    24A     -0.682465
      25A     -0.677400    26A     -0.669332    27A     -0.625724
      28A     -0.610521    29A     -0.596705    30A     -0.591770
      31A     -0.573025    32A     -0.529561    33A     -0.510940
      34A     -0.492342    35A     -0.448680    36A     -0.408272
      37A     -0.384493    38A     -0.350066    39A     -0.317404

  @DF-RHF Final Energy:  -503.68501264267655

   => Energetics <=

    Nuclear Repulsion Energy =            592.8366083844897503
    One-Electron Energy =               -1860.0744720590048473
    Two-Electron Energy =                 763.5528510318387134
    Total Energy =                       -503.6850126426764973
  Basis Set: (AUG-CC-PVTZ AUX)
    Blend: AUG-CC-PVTZ-RI
    Molecular point group: c1

    Geometry (in Angstrom), charge = 0, multiplicity = 1:

       Center              X                  Y                   Z               Mass
    ------------   -----------------  -----------------  -----------------  -----------------
         N           -1.811040402222    -0.173457140112    -0.003130695585    14.003074004430
         N           -0.293060402222    -1.861340140112    -0.011241695585    14.003074004430
         N           -0.289029402222     1.738106859888    -0.001965695585    14.003074004430
         N            2.031497597778     1.024499859888    -0.010893695585    14.003074004430
         N            2.705080597778    -1.208399140112     0.075600304415    14.003074004430
         C           -0.570512402222     0.424221859888     0.001781304415    12.000000000000
         C            0.344891597778    -0.637438140112     0.005191304415    12.000000000000
         C           -1.578667402222    -1.527426140112    -0.009326695585    12.000000000000
         C            1.704028597778    -0.276998140112    -0.001531695585    12.000000000000
         C           -3.087204402222     0.521169859888    -0.000153695585    12.000000000000
         C            0.888866197778     2.074252559888    -0.012349295585    12.000000000000
         H           -2.400371402222    -2.235264140112    -0.015676695585     1.007825032230
         H           -3.167233402222     1.157659859888    -0.883121695585     1.007825032230
         H           -3.884352402222    -0.223461140112    -0.009718695585     1.007825032230
         H           -3.172933402222     1.140646859888     0.894376304415     1.007825032230
         H            1.360739597778     2.977513859888    -0.015918695585     1.007825032230
         H            3.614724597778    -0.874735140112    -0.222570695585     1.007825032230
         H            2.457749597778    -2.144428140112    -0.224280695585     1.007825032230

  Basis Set: AUG-CC-PVTZ
    Blend: AUG-CC-PVTZ
  Basis Set: (AUG-CC-PVTZ AUX)
    Blend: AUG-CC-PVTZ-JKFIT
	 Reference Energy          =    -503.6850126426765542 [Eh]
	 Singles Energy            =      -0.0000000000000000 [Eh]
	 Same-Spin Energy          =      -0.5496706304178216 [Eh]
	 Opposite-Spin Energy      =      -1.6364071653257395 [Eh]
	 Correlation Energy        =      -2.1860777957435609 [Eh]
	 Total Energy              =    -505.8710904384201399 [Eh]

	 ================> DF-SCS-MP2 Energies <==================
	-----------------------------------------------------------
	 SCS Same-Spin Scale       =       0.3333333333333333 [-]
	 SCS Opposite-Spin Scale   =       1.2000000000000000 [-]
	 SCS Same-Spin Energy      =      -0.1832235434726072 [Eh]
	 SCS Opposite-Spin Energy  =      -1.9636885983908874 [Eh]
	 SCS Correlation Energy    =      -2.1469121418634947 [Eh]
	 SCS Total Energy          =    -505.8319247845400355 [Eh]
	-----------------------------------------------------------

  Dipole Moment: [D]
     X:    -3.3943      Y:    -0.5805      Z:    -0.7903     Total:     3.5331

*** Psi4 exiting successfully. Buy a developer a beer!
