                               Psi4 1.4a3.dev225

  ==> Input File <==

--------------------------------------------------------------------------
#psi4
#
memory 32 gb

molecule  {
0 1
  N       -1.7889380    -0.1640290    -0.0179520
  N       -0.2703210    -1.8482040    -0.0023970
  N       -0.2671710     1.7490810    -0.0033560
  N        2.0541740     1.0368940    -0.0085470
  N        2.7206340    -1.1973270     0.0732090
  C       -0.5666204     0.4264435     0.0042598
  C        0.3650590    -0.6247560     0.0169900
  C       -1.5569260    -1.5161270    -0.0162740
  C        1.7266360    -0.2641570     0.0048060
  C       -3.0641060     0.5324820     0.0177850
  C        1.0564750     1.9508360    -0.0110870
  H       -2.3762040    -2.2259510    -0.0342240
  H       -2.9284720     1.5041700    -0.4579320
  H       -3.8067760    -0.0485880    -0.5312030
  H       -3.3972360     0.6796990     1.0480130
  H        1.3812150     2.9891510    -0.0228070
  H        3.6427950    -0.8729100    -0.1905990
  H        2.4748820    -2.1409930    -0.1987870
units angstrom
no_reorient  #important for SAPT in psi4, default
symmetry c1  #important for SAPT in psi4, default
}

set PROPERTIES_ORIGIN ["COM"]
properties('MP2/aug-cc-pvtz', properties = ['dipole'])
--------------------------------------------------------------------------

    Molecular point group: c1
  Charge       = 0
  Multiplicity = 1
  Basis Set: AUG-CC-PVTZ
    Blend: AUG-CC-PVTZ
  Basis Set: (AUG-CC-PVTZ AUX)
    Blend: AUG-CC-PVTZ-JKFIT

    Orbital Energies [Eh]
    ---------------------

    Doubly Occupied:

       1A    -15.634150     2A    -15.581323     3A    -15.568543
       4A    -15.559072     5A    -15.550348     6A    -11.334779
       7A    -11.320340     8A    -11.312409     9A    -11.310595
      10A    -11.288455    11A    -11.250486    12A     -1.371649
      13A     -1.294943    14A     -1.240435    15A     -1.198617
      16A     -1.149547    17A     -1.030279    18A     -0.987846
      19A     -0.891611    20A     -0.870740    21A     -0.802940
      22A     -0.753898    23A     -0.725913    24A     -0.681462
      25A     -0.673887    26A     -0.668718    27A     -0.624340
      28A     -0.605764    29A     -0.595070    30A     -0.592112
      31A     -0.575262    32A     -0.537799    33A     -0.493818
      34A     -0.489903    35A     -0.449357    36A     -0.415135
      37A     -0.406956    38A     -0.365477    39A     -0.306905

  @DF-RHF Final Energy:  -503.72449790234725

   => Energetics <=

    Nuclear Repulsion Energy =            594.5934795244537554
    One-Electron Energy =               -1863.6141921365447160
    Two-Electron Energy =                 765.2962147097435945
    Total Energy =                       -503.7244979023472524
  Basis Set: (AUG-CC-PVTZ AUX)
    Blend: AUG-CC-PVTZ-RI
    Molecular point group: c1

    Geometry (in Angstrom), charge = 0, multiplicity = 1:

       Center              X                  Y                   Z               Mass
    ------------   -----------------  -----------------  -----------------  -----------------
         N           -1.820882905546    -0.164088305751    -0.020505898342    14.003074004430
         N           -0.302265905546    -1.848263305751    -0.004950898342    14.003074004430
         N           -0.299115905546     1.749021694249    -0.005909898342    14.003074004430
         N            2.022229094454     1.036834694249    -0.011100898342    14.003074004430
         N            2.688689094454    -1.197386305751     0.070655101658    14.003074004430
         C           -0.598565305546     0.426384194249     0.001705901658    12.000000000000
         C            0.333114094454    -0.624815305751     0.014436101658    12.000000000000
         C           -1.588870905546    -1.516186305751    -0.018827898342    12.000000000000
         C            1.694691094454    -0.264216305751     0.002252101658    12.000000000000
         C           -3.096050905546     0.532422694249     0.015231101658    12.000000000000
         C            1.024530094454     1.950776694249    -0.013640898342    12.000000000000
         H           -2.408148905546    -2.226010305751    -0.036777898342     1.007825032230
         H           -2.960416905546     1.504110694249    -0.460485898342     1.007825032230
         H           -3.838720905546    -0.048647305751    -0.533756898342     1.007825032230
         H           -3.429180905546     0.679639694249     1.045459101658     1.007825032230
         H            1.349270094454     2.989091694249    -0.025360898342     1.007825032230
         H            3.610850094454    -0.872969305751    -0.193152898342     1.007825032230
         H            2.442937094454    -2.141052305751    -0.201340898342     1.007825032230

  Basis Set: AUG-CC-PVTZ
    Blend: AUG-CC-PVTZ
  Basis Set: (AUG-CC-PVTZ AUX)
    Blend: AUG-CC-PVTZ-JKFIT
	 Reference Energy          =    -503.7244979023472524 [Eh]
	 Singles Energy            =      -0.0000000000000000 [Eh]
	 Same-Spin Energy          =      -0.5493300737438092 [Eh]
	 Opposite-Spin Energy      =      -1.6329448808991669 [Eh]
	 Correlation Energy        =      -2.1822749546429758 [Eh]
	 Total Energy              =    -505.9067728569902442 [Eh]

	 ================> DF-SCS-MP2 Energies <==================
	-----------------------------------------------------------
	 SCS Same-Spin Scale       =       0.3333333333333333 [-]
	 SCS Opposite-Spin Scale   =       1.2000000000000000 [-]
	 SCS Same-Spin Energy      =      -0.1831100245812697 [Eh]
	 SCS Opposite-Spin Energy  =      -1.9595338570790002 [Eh]
	 SCS Correlation Energy    =      -2.1426438816602698 [Eh]
	 SCS Total Energy          =    -505.8671417840075151 [Eh]
	-----------------------------------------------------------

  Dipole Moment: [D]
     X:    -2.7165      Y:    -1.2433      Z:    -0.7135     Total:     3.0715

*** Psi4 exiting successfully. Buy a developer a beer!
