                               Psi4 1.3.2 release

  ==> Input File <==

--------------------------------------------------------------------------
#psi4
#
memory 32 gb

molecule  {
0 1
  N       -1.7893040    -0.1617730    -0.0001110
  N       -0.2713240    -1.8496560    -0.0082220
  N       -0.2672930     1.7497910     0.0010540
  N        2.0532340     1.0361840    -0.0078740
  N        2.7268170    -1.1967150     0.0786200
  C       -0.5487760     0.4359060     0.0048010
  C        0.3666280    -0.6257540     0.0082110
  C       -1.5098192    -1.5068076    -0.0062576
  C        1.7257650    -0.2653140     0.0014880
  C       -3.0404482     0.5769678     0.0030736
  C        1.0578830     1.9506280    -0.0091420
  H       -2.3786350    -2.2235800    -0.0126570
  H       -3.1454970     1.1693440    -0.8801020
  H       -3.8626160    -0.2117770    -0.0066990
  H       -3.1511970     1.1523310     0.8973960
  H        1.3824760     2.9891980    -0.0128990
  H        3.6364610    -0.8630510    -0.2195510
  H        2.4794860    -2.1327440    -0.2212610
units angstrom
no_reorient  #important for SAPT in psi4, default
symmetry c1  #important for SAPT in psi4, default
}

set PROPERTIES_ORIGIN ["COM"]
properties('MP2/aug-cc-pvtz', properties = ['dipole'])
--------------------------------------------------------------------------

    Molecular point group: c1
  Charge       = 0
  Multiplicity = 1
  Basis Set: AUG-CC-PVTZ
    Blend: AUG-CC-PVTZ
  Basis Set: (AUG-CC-PVTZ AUX)
    Blend: AUG-CC-PVTZ-JKFIT

    Orbital Energies [Eh]
    ---------------------

    Doubly Occupied:

       1A    -15.629888     2A    -15.580863     3A    -15.565651
       4A    -15.560333     5A    -15.551931     6A    -11.333949
       7A    -11.322177     8A    -11.312599     9A    -11.311833
      10A    -11.289733    11A    -11.251555    12A     -1.373618
      13A     -1.296557    14A     -1.245377    15A     -1.205423
      16A     -1.151452    17A     -1.032512    18A     -0.987217
      19A     -0.886067    20A     -0.874595    21A     -0.799663
      22A     -0.753530    23A     -0.723824    24A     -0.680631
      25A     -0.673430    26A     -0.671609    27A     -0.625194
      28A     -0.603796    29A     -0.600777    30A     -0.586816
      31A     -0.557603    32A     -0.542595    33A     -0.497195
      34A     -0.494988    35A     -0.451589    36A     -0.418363
      37A     -0.409408    38A     -0.368225    39A     -0.311447

  @DF-RHF Final Energy:  -503.72127054213598

   => Energetics <=

    Nuclear Repulsion Energy =            595.4751120295098872
    One-Electron Energy =               -1865.3247378912783461
    Two-Electron Energy =                 766.1283553196324192
    Total Energy =                       -503.7212705421359260
  Basis Set: (AUG-CC-PVTZ AUX)
    Blend: AUG-CC-PVTZ-RI
    Molecular point group: c1

    Geometry (in Angstrom), charge = 0, multiplicity = 1:

       Center              X                  Y                   Z               Mass
    ------------   -----------------  -----------------  -----------------  -----------------
         N           -1.828702852310    -0.166835250810    -0.003166485447    14.003074004430
         N           -0.310722852310    -1.854718250810    -0.011277485447    14.003074004430
         N           -0.306691852310     1.744728749190    -0.002001485447    14.003074004430
         N            2.013835147690     1.031121749190    -0.010929485447    14.003074004430
         N            2.687418147690    -1.201777250810     0.075564514553    14.003074004430
         C           -0.588174852310     0.430843749190     0.001745514553    12.000000000000
         C            0.327229147690    -0.630816250810     0.005155514553    12.000000000000
         C           -1.549218052310    -1.511869850810    -0.009313085447    12.000000000000
         C            1.686366147690    -0.270376250810    -0.001567485447    12.000000000000
         C           -3.079847052310     0.571905549190     0.000018114553    12.000000000000
         C            1.018484147690     1.945565749190    -0.012197485447    12.000000000000
         H           -2.418033852310    -2.228642250810    -0.015712485447     1.007825032230
         H           -3.184895852310     1.164281749190    -0.883157485447     1.007825032230
         H           -3.902014852310    -0.216839250810    -0.009754485447     1.007825032230
         H           -3.190595852310     1.147268749190     0.894340514553     1.007825032230
         H            1.343077147690     2.984135749190    -0.015954485447     1.007825032230
         H            3.597062147690    -0.868113250810    -0.222606485447     1.007825032230
         H            2.440087147690    -2.137806250810    -0.224316485447     1.007825032230

  Basis Set: AUG-CC-PVTZ
    Blend: AUG-CC-PVTZ
  Basis Set: (AUG-CC-PVTZ AUX)
    Blend: AUG-CC-PVTZ-JKFIT
	 Reference Energy          =    -503.7212705421359829 [Eh]
	 Singles Energy            =      -0.0000000000000000 [Eh]
	 Same-Spin Energy          =      -0.5483790463136254 [Eh]
	 Opposite-Spin Energy      =      -1.6315290752732081 [Eh]
	 Correlation Energy        =      -2.1799081215868337 [Eh]
	 Total Energy              =    -505.9011786637228170 [Eh]

	 ================> DF-SCS-MP2 Energies <==================
	-----------------------------------------------------------
	 SCS Same-Spin Scale       =       0.3333333333333333 [-]
	 SCS Opposite-Spin Scale   =       1.2000000000000000 [-]
	 SCS Same-Spin Energy      =      -0.1827930154378751 [Eh]
	 SCS Opposite-Spin Energy  =      -1.9578348903278497 [Eh]
	 SCS Correlation Energy    =      -2.1406279057657249 [Eh]
	 SCS Total Energy          =    -505.8618984479016945 [Eh]
	-----------------------------------------------------------

  Dipole Moment: [D]
     X:    -2.6539      Y:    -1.1714      Z:    -0.7898     Total:     3.0065

*** Psi4 exiting successfully. Buy a developer a beer!
