                               Psi4 1.4a3.dev225

  ==> Input File <==

--------------------------------------------------------------------------
#psi4
#
memory 32 gb

molecule  {
0 1
  N       -1.7889380    -0.1640290    -0.0179520
  N       -0.2703210    -1.8482040    -0.0023970
  N       -0.2671710     1.7490810    -0.0033560
  N        2.0541740     1.0368940    -0.0085470
  N        2.7206340    -1.1973270     0.0732090
  C       -0.5486140     0.4351420     0.0045870
  C        0.3650590    -0.6247560     0.0169900
  C       -1.5569260    -1.5161270    -0.0162740
  C        1.7266360    -0.2641570     0.0048060
  C       -3.0641060     0.5324820     0.0177850
  C        1.0564750     1.9508360    -0.0110870
  H       -2.3384198    -2.1932147    -0.0333962
  H       -2.9284720     1.5041700    -0.4579320
  H       -3.8067760    -0.0485880    -0.5312030
  H       -3.3972360     0.6796990     1.0480130
  H        1.3812150     2.9891510    -0.0228070
  H        3.6427950    -0.8729100    -0.1905990
  H        2.4748820    -2.1409930    -0.1987870
units angstrom
no_reorient  #important for SAPT in psi4, default
symmetry c1  #important for SAPT in psi4, default
}

set PROPERTIES_ORIGIN ["COM"]
properties('MP2/aug-cc-pvtz', properties = ['dipole'])
--------------------------------------------------------------------------

    Molecular point group: c1
  Charge       = 0
  Multiplicity = 1
  Basis Set: AUG-CC-PVTZ
    Blend: AUG-CC-PVTZ
  Basis Set: (AUG-CC-PVTZ AUX)
    Blend: AUG-CC-PVTZ-JKFIT

    Orbital Energies [Eh]
    ---------------------

    Doubly Occupied:

       1A    -15.631719     2A    -15.581374     3A    -15.567107
       4A    -15.559774     5A    -15.551508     6A    -11.334750
       7A    -11.315360     8A    -11.312314     9A    -11.311377
      10A    -11.287095    11A    -11.250515    12A     -1.367504
      13A     -1.296051    14A     -1.242728    15A     -1.196339
      16A     -1.151735    17A     -1.031955    18A     -0.985408
      19A     -0.894452    20A     -0.871881    21A     -0.805358
      22A     -0.755242    23A     -0.725985    24A     -0.683464
      25A     -0.674238    26A     -0.666111    27A     -0.627642
      28A     -0.607131    29A     -0.595893    30A     -0.593383
      31A     -0.571575    32A     -0.536671    33A     -0.495481
      34A     -0.491157    35A     -0.450461    36A     -0.413974
      37A     -0.407975    38A     -0.367436    39A     -0.306795

  @DF-RHF Final Energy:  -503.72423015292401

   => Energetics <=

    Nuclear Repulsion Energy =            594.8941300026433510
    One-Electron Energy =               -1864.2028826188991388
    Two-Electron Energy =                 765.5845224633318367
    Total Energy =                       -503.7242301529239512
  Basis Set: (AUG-CC-PVTZ AUX)
    Blend: AUG-CC-PVTZ-RI
    Molecular point group: c1

    Geometry (in Angstrom), charge = 0, multiplicity = 1:

       Center              X                  Y                   Z               Mass
    ------------   -----------------  -----------------  -----------------  -----------------
         N           -1.822587852315    -0.165009848173    -0.020537834164    14.003074004430
         N           -0.303970852315    -1.849184848173    -0.004982834164    14.003074004430
         N           -0.300820852315     1.748100151827    -0.005941834164    14.003074004430
         N            2.020524147685     1.035913151827    -0.011132834164    14.003074004430
         N            2.686984147685    -1.198307848173     0.070623165836    14.003074004430
         C           -0.582263852315     0.434161151827     0.002001165836    12.000000000000
         C            0.331409147685    -0.625736848173     0.014404165836    12.000000000000
         C           -1.590575852315    -1.517107848173    -0.018859834164    12.000000000000
         C            1.692986147685    -0.265137848173     0.002220165836    12.000000000000
         C           -3.097755852315     0.531501151827     0.015199165836    12.000000000000
         C            1.022825147685     1.949855151827    -0.013672834164    12.000000000000
         H           -2.372069652315    -2.194195548173    -0.035982034164     1.007825032230
         H           -2.962121852315     1.503189151827    -0.460517834164     1.007825032230
         H           -3.840425852315    -0.049568848173    -0.533788834164     1.007825032230
         H           -3.430885852315     0.678718151827     1.045427165836     1.007825032230
         H            1.347565147685     2.988170151827    -0.025392834164     1.007825032230
         H            3.609145147685    -0.873890848173    -0.193184834164     1.007825032230
         H            2.441232147685    -2.141973848173    -0.201372834164     1.007825032230

  Basis Set: AUG-CC-PVTZ
    Blend: AUG-CC-PVTZ
  Basis Set: (AUG-CC-PVTZ AUX)
    Blend: AUG-CC-PVTZ-JKFIT
	 Reference Energy          =    -503.7242301529240081 [Eh]
	 Singles Energy            =      -0.0000000000000000 [Eh]
	 Same-Spin Energy          =      -0.5491956388356443 [Eh]
	 Opposite-Spin Energy      =      -1.6325847246352452 [Eh]
	 Correlation Energy        =      -2.1817803634708897 [Eh]
	 Total Energy              =    -505.9060105163948720 [Eh]

	 ================> DF-SCS-MP2 Energies <==================
	-----------------------------------------------------------
	 SCS Same-Spin Scale       =       0.3333333333333333 [-]
	 SCS Opposite-Spin Scale   =       1.2000000000000000 [-]
	 SCS Same-Spin Energy      =      -0.1830652129452147 [Eh]
	 SCS Opposite-Spin Energy  =      -1.9591016695622940 [Eh]
	 SCS Correlation Energy    =      -2.1421668825075089 [Eh]
	 SCS Total Energy          =    -505.8663970354315325 [Eh]
	-----------------------------------------------------------

  Dipole Moment: [D]
     X:    -2.6403      Y:    -1.1984      Z:    -0.7129     Total:     2.9859

*** Psi4 exiting successfully. Buy a developer a beer!
