                               Psi4 1.3.2 release

  ==> Input File <==

--------------------------------------------------------------------------
#psi4
#
memory 32 gb

molecule  {
0 1
  N       -1.8598475    -0.1757900    -0.0001522
  N       -0.2905619    -1.9164812    -0.0085181
  N       -0.2672930     1.7497910     0.0010540
  N        2.0532340     1.0361840    -0.0078740
  N        2.7268170    -1.1967150     0.0786200
  C       -0.5487760     0.4359060     0.0048010
  C        0.3666280    -0.6257540     0.0082110
  C       -1.5569310    -1.5157420    -0.0063070
  C        1.7257650    -0.2653140     0.0014880
  C       -3.0654680     0.5328540     0.0028660
  C        1.0578830     1.9506280    -0.0091420
  H       -2.3786350    -2.2235800    -0.0126570
  H       -3.1454970     1.1693440    -0.8801020
  H       -3.8626160    -0.2117770    -0.0066990
  H       -3.1511970     1.1523310     0.8973960
  H        1.3824760     2.9891980    -0.0128990
  H        3.6364610    -0.8630510    -0.2195510
  H        2.4794860    -2.1327440    -0.2212610
units angstrom
no_reorient  #important for SAPT in psi4, default
symmetry c1  #important for SAPT in psi4, default
}

set PROPERTIES_ORIGIN ["COM"]
properties('MP2/aug-cc-pvtz', properties = ['dipole'])
--------------------------------------------------------------------------

    Molecular point group: c1
  Charge       = 0
  Multiplicity = 1
  Basis Set: AUG-CC-PVTZ
    Blend: AUG-CC-PVTZ
  Basis Set: (AUG-CC-PVTZ AUX)
    Blend: AUG-CC-PVTZ-JKFIT

    Orbital Energies [Eh]
    ---------------------

    Doubly Occupied:

       1A    -15.632548     2A    -15.582402     3A    -15.574245
       4A    -15.566269     5A    -15.556561     6A    -11.337083
       7A    -11.328764     8A    -11.323929     9A    -11.314913
      10A    -11.283587    11A    -11.261000    12A     -1.355207
      13A     -1.298719    14A     -1.242654    15A     -1.196661
      16A     -1.155911    17A     -1.032092    18A     -0.986409
      19A     -0.886012    20A     -0.874775    21A     -0.801321
      22A     -0.752551    23A     -0.719604    24A     -0.685259
      25A     -0.671558    26A     -0.666240    27A     -0.627480
      28A     -0.610705    29A     -0.594418    30A     -0.587843
      31A     -0.555740    32A     -0.532490    33A     -0.500965
      34A     -0.496996    35A     -0.450582    36A     -0.416135
      37A     -0.406253    38A     -0.373060    39A     -0.314030

  @DF-RHF Final Energy:  -503.71079407153883

   => Energetics <=

    Nuclear Repulsion Energy =            591.2433486583699960
    One-Electron Energy =               -1856.8023439219236934
    Two-Electron Energy =                 761.8482011920148125
    Total Energy =                       -503.7107940715388850
  Basis Set: (AUG-CC-PVTZ AUX)
    Blend: AUG-CC-PVTZ-RI
    Molecular point group: c1

    Geometry (in Angstrom), charge = 0, multiplicity = 1:

       Center              X                  Y                   Z               Mass
    ------------   -----------------  -----------------  -----------------  -----------------
         N           -1.885006111349    -0.168987918711    -0.003155312540    14.003074004430
         N           -0.315720511349    -1.909679118711    -0.011521212540    14.003074004430
         N           -0.292451611349     1.756593081289    -0.001949112540    14.003074004430
         N            2.028075388651     1.042986081289    -0.010877112540    14.003074004430
         N            2.701658388651    -1.189912918711     0.075616887460    14.003074004430
         C           -0.573934611349     0.442708081289     0.001797887460    12.000000000000
         C            0.341469388651    -0.618951918711     0.005207887460    12.000000000000
         C           -1.582089611349    -1.508939918711    -0.009310112540    12.000000000000
         C            1.700606388651    -0.258511918711    -0.001515112540    12.000000000000
         C           -3.090626611349     0.539656081289    -0.000137112540    12.000000000000
         C            1.032724388651     1.957430081289    -0.012145112540    12.000000000000
         H           -2.403793611349    -2.216777918711    -0.015660112540     1.007825032230
         H           -3.170655611349     1.176146081289    -0.883105112540     1.007825032230
         H           -3.887774611349    -0.204974918711    -0.009702112540     1.007825032230
         H           -3.176355611349     1.159133081289     0.894392887460     1.007825032230
         H            1.357317388651     2.996000081289    -0.015902112540     1.007825032230
         H            3.611302388651    -0.856248918711    -0.222554112540     1.007825032230
         H            2.454327388651    -2.125941918711    -0.224264112540     1.007825032230

  Basis Set: AUG-CC-PVTZ
    Blend: AUG-CC-PVTZ
  Basis Set: (AUG-CC-PVTZ AUX)
    Blend: AUG-CC-PVTZ-JKFIT
	 Reference Energy          =    -503.7107940715388281 [Eh]
	 Singles Energy            =      -0.0000000000000000 [Eh]
	 Same-Spin Energy          =      -0.5492931926299242 [Eh]
	 Opposite-Spin Energy      =      -1.6352638808808682 [Eh]
	 Correlation Energy        =      -2.1845570735107924 [Eh]
	 Total Energy              =    -505.8953511450496308 [Eh]

	 ================> DF-SCS-MP2 Energies <==================
	-----------------------------------------------------------
	 SCS Same-Spin Scale       =       0.3333333333333333 [-]
	 SCS Opposite-Spin Scale   =       1.2000000000000000 [-]
	 SCS Same-Spin Energy      =      -0.1830977308766414 [Eh]
	 SCS Opposite-Spin Energy  =      -1.9623166570570416 [Eh]
	 SCS Correlation Energy    =      -2.1454143879336831 [Eh]
	 SCS Total Energy          =    -505.8562084594724979 [Eh]
	-----------------------------------------------------------

  Dipole Moment: [D]
     X:    -2.3943      Y:    -0.9669      Z:    -0.7901     Total:     2.7003

*** Psi4 exiting successfully. Buy a developer a beer!
