                               Psi4 1.3.2 release

  ==> Input File <==

--------------------------------------------------------------------------
#psi4
#
memory 32 gb

molecule  {
0 1
  N       -1.7893040    -0.1617730    -0.0001110
  N       -0.2713240    -1.8496560    -0.0082220
  N       -0.2672930     1.7497910     0.0010540
  N        2.0532340     1.0361840    -0.0078740
  N        2.7268170    -1.1967150     0.0786200
  C       -0.5487760     0.4359060     0.0048010
  C        0.3666280    -0.6257540     0.0082110
  C       -1.5569310    -1.5157420    -0.0063070
  C        1.7257650    -0.2653140     0.0014880
  C       -3.0654680     0.5328540     0.0028660
  C        1.0578830     1.9506280    -0.0091420
  H       -2.3786350    -2.2235800    -0.0126570
  H       -3.1454970     1.1693440    -0.8801020
  H       -3.8418167    -0.2312171    -0.0562087
  H       -3.1051336     1.1812869     0.8799330
  H        1.3824760     2.9891980    -0.0128990
  H        3.6364610    -0.8630510    -0.2195510
  H        2.4794860    -2.1327440    -0.2212610
units angstrom
no_reorient  #important for SAPT in psi4, default
symmetry c1  #important for SAPT in psi4, default
}

set PROPERTIES_ORIGIN ["COM"]
properties('MP2/aug-cc-pvtz', properties = ['dipole'])
--------------------------------------------------------------------------

    Molecular point group: c1
  Charge       = 0
  Multiplicity = 1
  Basis Set: AUG-CC-PVTZ
    Blend: AUG-CC-PVTZ
  Basis Set: (AUG-CC-PVTZ AUX)
    Blend: AUG-CC-PVTZ-JKFIT

    Orbital Energies [Eh]
    ---------------------

    Doubly Occupied:

       1A    -15.632373     2A    -15.580984     3A    -15.567155
       4A    -15.560801     5A    -15.552405     6A    -11.334500
       7A    -11.322379     8A    -11.312709     9A    -11.311651
      10A    -11.288945    11A    -11.251779    12A     -1.367697
      13A     -1.296189    14A     -1.242268    15A     -1.196969
      16A     -1.151945    17A     -1.031346    18A     -0.986183
      19A     -0.890833    20A     -0.872189    21A     -0.802168
      22A     -0.752888    23A     -0.724216    24A     -0.679876
      25A     -0.673511    26A     -0.666026    27A     -0.624757
      28A     -0.608632    29A     -0.595994    30A     -0.592598
      31A     -0.572282    32A     -0.535620    33A     -0.495601
      34A     -0.492719    35A     -0.450483    36A     -0.413661
      37A     -0.408606    38A     -0.368192    39A     -0.307714

  @DF-RHF Final Energy:  -503.72373251939962

   => Energetics <=

    Nuclear Repulsion Energy =            594.4670394549943921
    One-Electron Energy =               -1863.3478572959179473
    Two-Electron Energy =                 765.1570853215239367
    Total Energy =                       -503.7237325193996185
  Basis Set: (AUG-CC-PVTZ AUX)
    Blend: AUG-CC-PVTZ-RI
    Molecular point group: c1

    Geometry (in Angstrom), charge = 0, multiplicity = 1:

       Center              X                  Y                   Z               Mass
    ------------   -----------------  -----------------  -----------------  -----------------
         N           -1.823348371063    -0.162629256796    -0.002693011946    14.003074004430
         N           -0.305368371063    -1.850512256796    -0.010804011946    14.003074004430
         N           -0.301337371063     1.748934743204    -0.001528011946    14.003074004430
         N            2.019189628937     1.035327743204    -0.010456011946    14.003074004430
         N            2.692772628937    -1.197571256796     0.076037988054    14.003074004430
         C           -0.582820371063     0.435049743204     0.002218988054    12.000000000000
         C            0.332583628937    -0.626610256796     0.005628988054    12.000000000000
         C           -1.590975371063    -1.516598256796    -0.008889011946    12.000000000000
         C            1.691720628937    -0.266170256796    -0.001094011946    12.000000000000
         C           -3.099512371063     0.531997743204     0.000283988054    12.000000000000
         C            1.023838628937     1.949771743204    -0.011724011946    12.000000000000
         H           -2.412679371063    -2.224436256796    -0.015239011946     1.007825032230
         H           -3.179541371063     1.168487743204    -0.882684011946     1.007825032230
         H           -3.875861071063    -0.232073356796    -0.058790711946     1.007825032230
         H           -3.139177971063     1.180430643204     0.877350988054     1.007825032230
         H            1.348431628937     2.988341743204    -0.015481011946     1.007825032230
         H            3.602416628937    -0.863907256796    -0.222133011946     1.007825032230
         H            2.445441628937    -2.133600256796    -0.223843011946     1.007825032230

  Basis Set: AUG-CC-PVTZ
    Blend: AUG-CC-PVTZ
  Basis Set: (AUG-CC-PVTZ AUX)
    Blend: AUG-CC-PVTZ-JKFIT
	 Reference Energy          =    -503.7237325193996185 [Eh]
	 Singles Energy            =      -0.0000000000000000 [Eh]
	 Same-Spin Energy          =      -0.5493830433357625 [Eh]
	 Opposite-Spin Energy      =      -1.6332908096000225 [Eh]
	 Correlation Energy        =      -2.1826738529357850 [Eh]
	 Total Energy              =    -505.9064063723354252 [Eh]

	 ================> DF-SCS-MP2 Energies <==================
	-----------------------------------------------------------
	 SCS Same-Spin Scale       =       0.3333333333333333 [-]
	 SCS Opposite-Spin Scale   =       1.2000000000000000 [-]
	 SCS Same-Spin Energy      =      -0.1831276811119208 [Eh]
	 SCS Opposite-Spin Energy  =      -1.9599489715200269 [Eh]
	 SCS Correlation Energy    =      -2.1430766526319478 [Eh]
	 SCS Total Energy          =    -505.8668091720315942 [Eh]
	-----------------------------------------------------------

  Dipole Moment: [D]
     X:    -2.7163      Y:    -1.1449      Z:    -0.8227     Total:     3.0603

*** Psi4 exiting successfully. Buy a developer a beer!
