                               Psi4 1.3.2 release

  ==> Input File <==

--------------------------------------------------------------------------
#psi4
#
memory 32 gb

molecule  {
0 1
  N       -1.7893040    -0.1617730    -0.0001110
  N       -0.2713240    -1.8496560    -0.0082220
  N       -0.2635848     1.7266942     0.0012237
  N        2.0371239     1.0189531    -0.0076261
  N        2.7268170    -1.1967150     0.0786200
  C       -0.5487760     0.4359060     0.0048010
  C        0.3666280    -0.6257540     0.0082110
  C       -1.5569310    -1.5157420    -0.0063070
  C        1.7257650    -0.2653140     0.0014880
  C       -3.0654680     0.5328540     0.0028660
  C        1.0578830     1.9506280    -0.0091420
  H       -2.3786350    -2.2235800    -0.0126570
  H       -3.1454970     1.1693440    -0.8801020
  H       -3.8626160    -0.2117770    -0.0066990
  H       -3.1511970     1.1523310     0.8973960
  H        1.3824760     2.9891980    -0.0128990
  H        3.6364610    -0.8630510    -0.2195510
  H        2.4794860    -2.1327440    -0.2212610
units angstrom
no_reorient  #important for SAPT in psi4, default
symmetry c1  #important for SAPT in psi4, default
}

set PROPERTIES_ORIGIN ["COM"]
properties('MP2/aug-cc-pvtz', properties = ['dipole'])
--------------------------------------------------------------------------

    Molecular point group: c1
  Charge       = 0
  Multiplicity = 1
  Basis Set: AUG-CC-PVTZ
    Blend: AUG-CC-PVTZ
  Basis Set: (AUG-CC-PVTZ AUX)
    Blend: AUG-CC-PVTZ-JKFIT

    Orbital Energies [Eh]
    ---------------------

    Doubly Occupied:

       1A    -15.631569     2A    -15.578369     3A    -15.565989
       4A    -15.558880     5A    -15.550026     6A    -11.330370
       7A    -11.321806     8A    -11.312992     9A    -11.309813
      10A    -11.288176    11A    -11.250330    12A     -1.368067
      13A     -1.300199    14A     -1.244190    15A     -1.195791
      16A     -1.155017    17A     -1.030514    18A     -0.985106
      19A     -0.891406    20A     -0.875417    21A     -0.802612
      22A     -0.754750    23A     -0.723869    24A     -0.680716
      25A     -0.674828    26A     -0.666398    27A     -0.626082
      28A     -0.606145    29A     -0.598409    30A     -0.593147
      31A     -0.572263    32A     -0.537173    33A     -0.496475
      34A     -0.493139    35A     -0.449471    36A     -0.413360
      37A     -0.404990    38A     -0.369505    39A     -0.305783

  @DF-RHF Final Energy:  -503.72566315473142

   => Energetics <=

    Nuclear Repulsion Energy =            595.6224313248942508
    One-Electron Energy =               -1865.6698998967465286
    Two-Electron Energy =                 766.3218054171209133
    Total Energy =                       -503.7256631547313646
  Basis Set: (AUG-CC-PVTZ AUX)
    Blend: AUG-CC-PVTZ-RI
    Molecular point group: c1

    Geometry (in Angstrom), charge = 0, multiplicity = 1:

       Center              X                  Y                   Z               Mass
    ------------   -----------------  -----------------  -----------------  -----------------
         N           -1.821731342879    -0.158776694447    -0.003185024932    14.003074004430
         N           -0.303751342879    -1.846659694447    -0.011296024932    14.003074004430
         N           -0.296012142879     1.729690505553    -0.001850324932    14.003074004430
         N            2.004696557121     1.021949405553    -0.010700124932    14.003074004430
         N            2.694389657121    -1.193718694447     0.075545975068    14.003074004430
         C           -0.581203342879     0.438902305553     0.001726975068    12.000000000000
         C            0.334200657121    -0.622757694447     0.005136975068    12.000000000000
         C           -1.589358342879    -1.512745694447    -0.009381024932    12.000000000000
         C            1.693337657121    -0.262317694447    -0.001586024932    12.000000000000
         C           -3.097895342879     0.535850305553    -0.000208024932    12.000000000000
         C            1.025455657121     1.953624305553    -0.012216024932    12.000000000000
         H           -2.411062342879    -2.220583694447    -0.015731024932     1.007825032230
         H           -3.177924342879     1.172340305553    -0.883176024932     1.007825032230
         H           -3.895043342879    -0.208780694447    -0.009773024932     1.007825032230
         H           -3.183624342879     1.155327305553     0.894321975068     1.007825032230
         H            1.350048657121     2.992194305553    -0.015973024932     1.007825032230
         H            3.604033657121    -0.860054694447    -0.222625024932     1.007825032230
         H            2.447058657121    -2.129747694447    -0.224335024932     1.007825032230

  Basis Set: AUG-CC-PVTZ
    Blend: AUG-CC-PVTZ
  Basis Set: (AUG-CC-PVTZ AUX)
    Blend: AUG-CC-PVTZ-JKFIT
	 Reference Energy          =    -503.7256631547314214 [Eh]
	 Singles Energy            =      -0.0000000000000000 [Eh]
	 Same-Spin Energy          =      -0.5493465056459664 [Eh]
	 Opposite-Spin Energy      =      -1.6323747750472530 [Eh]
	 Correlation Energy        =      -2.1817212806932194 [Eh]
	 Total Energy              =    -505.9073844354246603 [Eh]

	 ================> DF-SCS-MP2 Energies <==================
	-----------------------------------------------------------
	 SCS Same-Spin Scale       =       0.3333333333333333 [-]
	 SCS Opposite-Spin Scale   =       1.2000000000000000 [-]
	 SCS Same-Spin Energy      =      -0.1831155018819888 [Eh]
	 SCS Opposite-Spin Energy  =      -1.9588497300567036 [Eh]
	 SCS Correlation Energy    =      -2.1419652319386926 [Eh]
	 SCS Total Energy          =    -505.8676283866701056 [Eh]
	-----------------------------------------------------------

  Dipole Moment: [D]
     X:    -2.7310      Y:    -1.0084      Z:    -0.7928     Total:     3.0173

*** Psi4 exiting successfully. Buy a developer a beer!
