                               Psi4 1.3.2 release

  ==> Input File <==

--------------------------------------------------------------------------
#psi4
#
memory 32 gb

molecule  {
0 1
  N       -1.7893040    -0.1617730    -0.0001110
  N       -0.2713240    -1.8496560    -0.0082220
  N       -0.2672930     1.7497910     0.0010540
  N        2.0371232     1.0189521    -0.0077946
  N        2.7268170    -1.1967150     0.0786200
  C       -0.5487760     0.4359060     0.0048010
  C        0.3666280    -0.6257540     0.0082110
  C       -1.5569310    -1.5157420    -0.0063070
  C        1.7257650    -0.2653140     0.0014880
  C       -3.0654680     0.5328540     0.0028660
  C        1.0578830     1.9506280    -0.0091420
  H       -2.3786350    -2.2235800    -0.0126570
  H       -3.1454970     1.1693440    -0.8801020
  H       -3.8626160    -0.2117770    -0.0066990
  H       -3.1511970     1.1523310     0.8973960
  H        1.3643009     2.9947048    -0.0128872
  H        3.6364610    -0.8630510    -0.2195510
  H        2.4794860    -2.1327440    -0.2212610
units angstrom
no_reorient  #important for SAPT in psi4, default
symmetry c1  #important for SAPT in psi4, default
}

set PROPERTIES_ORIGIN ["COM"]
properties('MP2/aug-cc-pvtz', properties = ['dipole'])
--------------------------------------------------------------------------

    Molecular point group: c1
  Charge       = 0
  Multiplicity = 1
  Basis Set: AUG-CC-PVTZ
    Blend: AUG-CC-PVTZ
  Basis Set: (AUG-CC-PVTZ AUX)
    Blend: AUG-CC-PVTZ-JKFIT

    Orbital Energies [Eh]
    ---------------------

    Doubly Occupied:

       1A    -15.632664     2A    -15.579504     3A    -15.566705
       4A    -15.561218     5A    -15.549984     6A    -11.331890
       7A    -11.321815     8A    -11.312478     9A    -11.311657
      10A    -11.288457    11A    -11.251296    12A     -1.367519
      13A     -1.299392    14A     -1.242184    15A     -1.196294
      16A     -1.153535    17A     -1.031217    18A     -0.985524
      19A     -0.890943    20A     -0.873426    21A     -0.802975
      22A     -0.754168    23A     -0.723905    24A     -0.680496
      25A     -0.673813    26A     -0.666117    27A     -0.625808
      28A     -0.606791    29A     -0.597295    30A     -0.592187
      31A     -0.571740    32A     -0.537731    33A     -0.495029
      34A     -0.493164    35A     -0.449657    36A     -0.413672
      37A     -0.406863    38A     -0.368572    39A     -0.307670

  @DF-RHF Final Energy:  -503.72513944802836

   => Energetics <=

    Nuclear Repulsion Energy =            594.9710391842315858
    One-Electron Energy =               -1864.3616469099831647
    Two-Electron Energy =                 765.6654682777232210
    Total Energy =                       -503.7251394480283579
  Basis Set: (AUG-CC-PVTZ AUX)
    Blend: AUG-CC-PVTZ-RI
    Molecular point group: c1

    Geometry (in Angstrom), charge = 0, multiplicity = 1:

       Center              X                  Y                   Z               Mass
    ------------   -----------------  -----------------  -----------------  -----------------
         N           -1.821260065938    -0.160983454808    -0.003153335506    14.003074004430
         N           -0.303280065938    -1.848866454808    -0.011264335506    14.003074004430
         N           -0.299249065938     1.750580545192    -0.001988335506    14.003074004430
         N            2.005167134062     1.019741645192    -0.010836935506    14.003074004430
         N            2.694860934062    -1.195925454808     0.075577664494    14.003074004430
         C           -0.580732065938     0.436695545192     0.001758664494    12.000000000000
         C            0.334671934062    -0.624964454808     0.005168664494    12.000000000000
         C           -1.588887065938    -1.514952454808    -0.009349335506    12.000000000000
         C            1.693808934062    -0.264524454808    -0.001554335506    12.000000000000
         C           -3.097424065938     0.533643545192    -0.000176335506    12.000000000000
         C            1.025926934062     1.951417545192    -0.012184335506    12.000000000000
         H           -2.410591065938    -2.222790454808    -0.015699335506     1.007825032230
         H           -3.177453065938     1.170133545192    -0.883144335506     1.007825032230
         H           -3.894572065938    -0.210987454808    -0.009741335506     1.007825032230
         H           -3.183153065938     1.153120545192     0.894353664494     1.007825032230
         H            1.332344834062     2.995494345192    -0.015929535506     1.007825032230
         H            3.604504934062    -0.862261454808    -0.222593335506     1.007825032230
         H            2.447529934062    -2.131954454808    -0.224303335506     1.007825032230

  Basis Set: AUG-CC-PVTZ
    Blend: AUG-CC-PVTZ
  Basis Set: (AUG-CC-PVTZ AUX)
    Blend: AUG-CC-PVTZ-JKFIT
	 Reference Energy          =    -503.7251394480283579 [Eh]
	 Singles Energy            =      -0.0000000000000000 [Eh]
	 Same-Spin Energy          =      -0.5493217967894335 [Eh]
	 Opposite-Spin Energy      =      -1.6328325819590559 [Eh]
	 Correlation Energy        =      -2.1821543787484892 [Eh]
	 Total Energy              =    -505.9072938267768222 [Eh]

	 ================> DF-SCS-MP2 Energies <==================
	-----------------------------------------------------------
	 SCS Same-Spin Scale       =       0.3333333333333333 [-]
	 SCS Opposite-Spin Scale   =       1.2000000000000000 [-]
	 SCS Same-Spin Energy      =      -0.1831072655964778 [Eh]
	 SCS Opposite-Spin Energy  =      -1.9593990983508669 [Eh]
	 SCS Correlation Energy    =      -2.1425063639473447 [Eh]
	 SCS Total Energy          =    -505.8676458119757058 [Eh]
	-----------------------------------------------------------

  Dipole Moment: [D]
     X:    -2.7231      Y:    -1.0743      Z:    -0.7919     Total:     3.0326

*** Psi4 exiting successfully. Buy a developer a beer!
