                               Psi4 1.3.2 release

  ==> Input File <==

--------------------------------------------------------------------------
#psi4
#
memory 32 gb

molecule  {
0 1
  N       -1.7995459    -0.1400316    -0.0001477
  N       -0.2713240    -1.8496560    -0.0082220
  N       -0.2672930     1.7497910     0.0010540
  N        2.0532340     1.0361840    -0.0078740
  N        2.7268170    -1.1967150     0.0786200
  C       -0.5487760     0.4359060     0.0048010
  C        0.3850170    -0.6096162     0.0082849
  C       -1.5569310    -1.5157420    -0.0063070
  C        1.7257650    -0.2653140     0.0014880
  C       -3.0654680     0.5328540     0.0028660
  C        1.0578830     1.9506280    -0.0091420
  H       -2.3786350    -2.2235800    -0.0126570
  H       -3.1454970     1.1693440    -0.8801020
  H       -3.8626160    -0.2117770    -0.0066990
  H       -3.1511970     1.1523310     0.8973960
  H        1.3824760     2.9891980    -0.0128990
  H        3.6364610    -0.8630510    -0.2195510
  H        2.4794860    -2.1327440    -0.2212610
units angstrom
no_reorient  #important for SAPT in psi4, default
symmetry c1  #important for SAPT in psi4, default
}

set PROPERTIES_ORIGIN ["COM"]
properties('MP2/aug-cc-pvtz', properties = ['dipole'])
--------------------------------------------------------------------------

    Molecular point group: c1
  Charge       = 0
  Multiplicity = 1
  Basis Set: AUG-CC-PVTZ
    Blend: AUG-CC-PVTZ
  Basis Set: (AUG-CC-PVTZ AUX)
    Blend: AUG-CC-PVTZ-JKFIT

    Orbital Energies [Eh]
    ---------------------

    Doubly Occupied:

       1A    -15.632250     2A    -15.580519     3A    -15.571267
       4A    -15.560445     5A    -15.552159     6A    -11.332322
       7A    -11.326010     8A    -11.316479     9A    -11.311848
      10A    -11.286704    11A    -11.251751    12A     -1.363436
      13A     -1.296394    14A     -1.242091    15A     -1.196408
      16A     -1.152056    17A     -1.033705    18A     -0.985976
      19A     -0.889263    20A     -0.873030    21A     -0.803978
      22A     -0.753809    23A     -0.722379    24A     -0.680052
      25A     -0.672889    26A     -0.666561    27A     -0.626143
      28A     -0.608865    29A     -0.597397    30A     -0.592403
      31A     -0.572602    32A     -0.533964    33A     -0.495475
      34A     -0.492815    35A     -0.447958    36A     -0.414150
      37A     -0.409333    38A     -0.366358    39A     -0.312157

  @DF-RHF Final Energy:  -503.72313830713620

   => Energetics <=

    Nuclear Repulsion Energy =            594.1355519641704177
    One-Electron Energy =               -1862.6705833872169933
    Two-Electron Energy =                 764.8118931159103795
    Total Energy =                       -503.7231383071361961
  Basis Set: (AUG-CC-PVTZ AUX)
    Blend: AUG-CC-PVTZ-RI
    Molecular point group: c1

    Geometry (in Angstrom), charge = 0, multiplicity = 1:

       Center              X                  Y                   Z               Mass
    ------------   -----------------  -----------------  -----------------  -----------------
         N           -1.833656441345    -0.144164903122    -0.003184998621    14.003074004430
         N           -0.305434541345    -1.853789303122    -0.011259298621    14.003074004430
         N           -0.301403541345     1.745657696878    -0.001983298621    14.003074004430
         N            2.019123458655     1.032050696878    -0.010911298621    14.003074004430
         N            2.692706458655    -1.200848303122     0.075582701379    14.003074004430
         C           -0.582886541345     0.431772696878     0.001763701379    12.000000000000
         C            0.350906458655    -0.613749503122     0.005247601379    12.000000000000
         C           -1.591041541345    -1.519875303122    -0.009344298621    12.000000000000
         C            1.691654458655    -0.269447303122    -0.001549298621    12.000000000000
         C           -3.099578541345     0.528720696878    -0.000171298621    12.000000000000
         C            1.023772458655     1.946494696878    -0.012179298621    12.000000000000
         H           -2.412745541345    -2.227713303122    -0.015694298621     1.007825032230
         H           -3.179607541345     1.165210696878    -0.883139298621     1.007825032230
         H           -3.896726541345    -0.215910303122    -0.009736298621     1.007825032230
         H           -3.185307541345     1.148197696878     0.894358701379     1.007825032230
         H            1.348365458655     2.985064696878    -0.015936298621     1.007825032230
         H            3.602350458655    -0.867184303122    -0.222588298621     1.007825032230
         H            2.445375458655    -2.136877303122    -0.224298298621     1.007825032230

  Basis Set: AUG-CC-PVTZ
    Blend: AUG-CC-PVTZ
  Basis Set: (AUG-CC-PVTZ AUX)
    Blend: AUG-CC-PVTZ-JKFIT
	 Reference Energy          =    -503.7231383071361961 [Eh]
	 Singles Energy            =      -0.0000000000000000 [Eh]
	 Same-Spin Energy          =      -0.5489947086179645 [Eh]
	 Opposite-Spin Energy      =      -1.6333289285180475 [Eh]
	 Correlation Energy        =      -2.1823236371360117 [Eh]
	 Total Energy              =    -505.9054619442721901 [Eh]

	 ================> DF-SCS-MP2 Energies <==================
	-----------------------------------------------------------
	 SCS Same-Spin Scale       =       0.3333333333333333 [-]
	 SCS Opposite-Spin Scale   =       1.2000000000000000 [-]
	 SCS Same-Spin Energy      =      -0.1829982362059882 [Eh]
	 SCS Opposite-Spin Energy  =      -1.9599947142216569 [Eh]
	 SCS Correlation Energy    =      -2.1429929504276450 [Eh]
	 SCS Total Energy          =    -505.8661312575638362 [Eh]
	-----------------------------------------------------------

  Dipole Moment: [D]
     X:    -2.6944      Y:    -1.1828      Z:    -0.7910     Total:     3.0471

*** Psi4 exiting successfully. Buy a developer a beer!
