                               Psi4 1.3.2 release

  ==> Input File <==

--------------------------------------------------------------------------
#psi4
#
memory 32 gb

molecule  {
0 1
  N       -1.7893040    -0.1617730    -0.0001110
  N       -0.2713240    -1.8496560    -0.0082220
  N       -0.2759883     1.8194226     0.0010306
  N        2.0532340     1.0361840    -0.0078740
  N        2.7268170    -1.1967150     0.0786200
  C       -0.5487760     0.4359060     0.0048010
  C        0.3666280    -0.6257540     0.0082110
  C       -1.5569310    -1.5157420    -0.0063070
  C        1.7257650    -0.2653140     0.0014880
  C       -3.0654680     0.5328540     0.0028660
  C        1.0578830     1.9506280    -0.0091420
  H       -2.3786350    -2.2235800    -0.0126570
  H       -3.1454970     1.1693440    -0.8801020
  H       -3.8626160    -0.2117770    -0.0066990
  H       -3.1511970     1.1523310     0.8973960
  H        1.3276779     3.0047635    -0.0125078
  H        3.6364610    -0.8630510    -0.2195510
  H        2.4794860    -2.1327440    -0.2212610
units angstrom
no_reorient  #important for SAPT in psi4, default
symmetry c1  #important for SAPT in psi4, default
}

set PROPERTIES_ORIGIN ["COM"]
properties('MP2/aug-cc-pvtz', properties = ['dipole'])
--------------------------------------------------------------------------

    Molecular point group: c1
  Charge       = 0
  Multiplicity = 1
  Basis Set: AUG-CC-PVTZ
    Blend: AUG-CC-PVTZ
  Basis Set: (AUG-CC-PVTZ AUX)
    Blend: AUG-CC-PVTZ-JKFIT

    Orbital Energies [Eh]
    ---------------------

    Doubly Occupied:

       1A    -15.636013     2A    -15.584342     3A    -15.569375
       4A    -15.567581     5A    -15.552305     6A    -11.338919
       7A    -11.322605     8A    -11.317629     9A    -11.310092
      10A    -11.289496    11A    -11.254683    12A     -1.366752
      13A     -1.294422    14A     -1.236718    15A     -1.198273
      16A     -1.147348    17A     -1.033513    18A     -0.987225
      19A     -0.890943    20A     -0.864764    21A     -0.803966
      22A     -0.752007    23A     -0.724218    24A     -0.681637
      25A     -0.668892    26A     -0.665483    27A     -0.624154
      28A     -0.608291    29A     -0.594433    30A     -0.587966
      31A     -0.569474    32A     -0.538417    33A     -0.492042
      34A     -0.491360    35A     -0.450264    36A     -0.416807
      37A     -0.411834    38A     -0.365557    39A     -0.313337

  @DF-RHF Final Energy:  -503.71681507336990

   => Energetics <=

    Nuclear Repulsion Energy =            592.4365295502448134
    One-Electron Energy =               -1859.2604176644977088
    Two-Electron Energy =                 763.1070730408830514
    Total Energy =                       -503.7168150733698440
  Basis Set: (AUG-CC-PVTZ AUX)
    Blend: AUG-CC-PVTZ-RI
    Molecular point group: c1

    Geometry (in Angstrom), charge = 0, multiplicity = 1:

       Center              X                  Y                   Z               Mass
    ------------   -----------------  -----------------  -----------------  -----------------
         N           -1.821709050670    -0.169211080979    -0.003146243897    14.003074004430
         N           -0.303729050670    -1.857094080979    -0.011257243897    14.003074004430
         N           -0.308393350670     1.811984519021    -0.002004643897    14.003074004430
         N            2.020828949330     1.028745919021    -0.010909243897    14.003074004430
         N            2.694411949330    -1.204153080979     0.075584756103    14.003074004430
         C           -0.581181050670     0.428467919021     0.001765756103    12.000000000000
         C            0.334222949330    -0.633192080979     0.005175756103    12.000000000000
         C           -1.589336050670    -1.523180080979    -0.009342243897    12.000000000000
         C            1.693359949330    -0.272752080979    -0.001547243897    12.000000000000
         C           -3.097873050670     0.525415919021    -0.000169243897    12.000000000000
         C            1.025477949330     1.943189919021    -0.012177243897    12.000000000000
         H           -2.411040050670    -2.231018080979    -0.015692243897     1.007825032230
         H           -3.177902050670     1.161905919021    -0.883137243897     1.007825032230
         H           -3.895021050670    -0.219215080979    -0.009734243897     1.007825032230
         H           -3.183602050670     1.144892919021     0.894360756103     1.007825032230
         H            1.295272849330     2.997325419021    -0.015543043897     1.007825032230
         H            3.604055949330    -0.870489080979    -0.222586243897     1.007825032230
         H            2.447080949330    -2.140182080979    -0.224296243897     1.007825032230

  Basis Set: AUG-CC-PVTZ
    Blend: AUG-CC-PVTZ
  Basis Set: (AUG-CC-PVTZ AUX)
    Blend: AUG-CC-PVTZ-JKFIT
	 Reference Energy          =    -503.7168150733699008 [Eh]
	 Singles Energy            =      -0.0000000000000000 [Eh]
	 Same-Spin Energy          =      -0.5493872741805719 [Eh]
	 Opposite-Spin Energy      =      -1.6349125778993272 [Eh]
	 Correlation Energy        =      -2.1842998520798993 [Eh]
	 Total Energy              =    -505.9011149254498036 [Eh]

	 ================> DF-SCS-MP2 Energies <==================
	-----------------------------------------------------------
	 SCS Same-Spin Scale       =       0.3333333333333333 [-]
	 SCS Opposite-Spin Scale   =       1.2000000000000000 [-]
	 SCS Same-Spin Energy      =      -0.1831290913935240 [Eh]
	 SCS Opposite-Spin Energy  =      -1.9618950934791926 [Eh]
	 SCS Correlation Energy    =      -2.1450241848727165 [Eh]
	 SCS Total Energy          =    -505.8618392582426395 [Eh]
	-----------------------------------------------------------

  Dipole Moment: [D]
     X:    -2.7169      Y:    -1.3478      Z:    -0.7870     Total:     3.1333

*** Psi4 exiting successfully. Buy a developer a beer!
