                               Psi4 1.3.2 release

  ==> Input File <==

--------------------------------------------------------------------------
#psi4
#
memory 32 gb

molecule  {
0 1
  N       -1.7893040    -0.1617730    -0.0001110
  N       -0.2713240    -1.8496560    -0.0082220
  N       -0.2672930     1.7497910     0.0010540
  N        2.0532340     1.0361840    -0.0078740
  N        2.7268170    -1.1967150     0.0786200
  C       -0.5487760     0.4359060     0.0048010
  C        0.3666280    -0.6257540     0.0082110
  C       -1.5569310    -1.5157420    -0.0063070
  C        1.7257650    -0.2653140     0.0014880
  C       -3.0654680     0.5328540     0.0028660
  C        1.0578830     1.9506280    -0.0091420
  H       -2.3786350    -2.2235800    -0.0126570
  H       -3.1454970     1.1693440    -0.8801020
  H       -3.8626160    -0.2117770    -0.0066990
  H       -3.1511970     1.1523310     0.8973960
  H        1.3824760     2.9891980    -0.0128990
  H        3.5467304    -0.8959648    -0.1901383
  H        2.4794860    -2.1327440    -0.2212610
units angstrom
no_reorient  #important for SAPT in psi4, default
symmetry c1  #important for SAPT in psi4, default
}

set PROPERTIES_ORIGIN ["COM"]
properties('MP2/aug-cc-pvtz', properties = ['dipole'])
--------------------------------------------------------------------------

    Molecular point group: c1
  Charge       = 0
  Multiplicity = 1
  Basis Set: AUG-CC-PVTZ
    Blend: AUG-CC-PVTZ
  Basis Set: (AUG-CC-PVTZ AUX)
    Blend: AUG-CC-PVTZ-JKFIT

    Orbital Energies [Eh]
    ---------------------

    Doubly Occupied:

       1A    -15.633398     2A    -15.571306     3A    -15.567674
       4A    -15.561249     5A    -15.552970     6A    -11.334870
       7A    -11.322915     8A    -11.313363     9A    -11.311990
      10A    -11.288974    11A    -11.252120    12A     -1.368210
      13A     -1.299342    14A     -1.248656    15A     -1.200027
      16A     -1.156063    17A     -1.033503    18A     -0.987060
      19A     -0.894026    20A     -0.873141    21A     -0.807241
      22A     -0.758336    23A     -0.729507    24A     -0.691437
      25A     -0.675240    26A     -0.666720    27A     -0.625190
      28A     -0.611381    29A     -0.597203    30A     -0.592100
      31A     -0.572616    32A     -0.537558    33A     -0.496653
      34A     -0.493077    35A     -0.450908    36A     -0.415071
      37A     -0.409181    38A     -0.368898    39A     -0.308500

  @DF-RHF Final Energy:  -503.71819167301089

   => Energetics <=

    Nuclear Repulsion Energy =            594.9385111972389950
    One-Electron Energy =               -1864.1580581230487041
    Two-Electron Energy =                 765.5013552527988168
    Total Energy =                       -503.7181916730108924
  Basis Set: (AUG-CC-PVTZ AUX)
    Blend: AUG-CC-PVTZ-RI
    Molecular point group: c1

    Geometry (in Angstrom), charge = 0, multiplicity = 1:

       Center              X                  Y                   Z               Mass
    ------------   -----------------  -----------------  -----------------  -----------------
         N           -1.822289683910    -0.162342401149    -0.003344648924    14.003074004430
         N           -0.304309683910    -1.850225401149    -0.011455648924    14.003074004430
         N           -0.300278683910     1.749221598851    -0.002179648924    14.003074004430
         N            2.020248316090     1.035614598851    -0.011107648924    14.003074004430
         N            2.693831316090    -1.197284401149     0.075386351076    14.003074004430
         C           -0.581761683910     0.435336598851     0.001567351076    12.000000000000
         C            0.333642316090    -0.626323401149     0.004977351076    12.000000000000
         C           -1.589916683910    -1.516311401149    -0.009540648924    12.000000000000
         C            1.692779316090    -0.265883401149    -0.001745648924    12.000000000000
         C           -3.098453683910     0.532284598851    -0.000367648924    12.000000000000
         C            1.024897316090     1.950058598851    -0.012375648924    12.000000000000
         H           -2.411620683910    -2.224149401149    -0.015890648924     1.007825032230
         H           -3.178482683910     1.168774598851    -0.883335648924     1.007825032230
         H           -3.895601683910    -0.212346401149    -0.009932648924     1.007825032230
         H           -3.184182683910     1.151761598851     0.894162351076     1.007825032230
         H            1.349490316090     2.988628598851    -0.016132648924     1.007825032230
         H            3.513744716090    -0.896534201149    -0.193371948924     1.007825032230
         H            2.446500316090    -2.133313401149    -0.224494648924     1.007825032230

  Basis Set: AUG-CC-PVTZ
    Blend: AUG-CC-PVTZ
  Basis Set: (AUG-CC-PVTZ AUX)
    Blend: AUG-CC-PVTZ-JKFIT
	 Reference Energy          =    -503.7181916730108924 [Eh]
	 Singles Energy            =      -0.0000000000000000 [Eh]
	 Same-Spin Energy          =      -0.5486654206739590 [Eh]
	 Opposite-Spin Energy      =      -1.6315890712918042 [Eh]
	 Correlation Energy        =      -2.1802544919657629 [Eh]
	 Total Energy              =    -505.8984461649766331 [Eh]

	 ================> DF-SCS-MP2 Energies <==================
	-----------------------------------------------------------
	 SCS Same-Spin Scale       =       0.3333333333333333 [-]
	 SCS Opposite-Spin Scale   =       1.2000000000000000 [-]
	 SCS Same-Spin Energy      =      -0.1828884735579863 [Eh]
	 SCS Opposite-Spin Energy  =      -1.9579068855501649 [Eh]
	 SCS Correlation Energy    =      -2.1407953591081510 [Eh]
	 SCS Total Energy          =    -505.8589870321190460 [Eh]
	-----------------------------------------------------------

  Dipole Moment: [D]
     X:    -2.8399      Y:    -1.1759      Z:    -0.7719     Total:     3.1692

*** Psi4 exiting successfully. Buy a developer a beer!
