                               Psi4 1.3.2 release

  ==> Input File <==

--------------------------------------------------------------------------
#psi4
#
memory 32 gb

molecule  {
0 1
  N       -1.7893040    -0.1617730    -0.0001110
  N       -0.2713240    -1.8496560    -0.0082220
  N       -0.2672930     1.7497910     0.0010540
  N        2.0532340     1.0361840    -0.0078740
  N        2.7268170    -1.1967150     0.0786200
  C       -0.5593962     0.4574650     0.0048884
  C        0.3666280    -0.6257540     0.0082110
  C       -1.5805966    -1.5195910    -0.0063640
  C        1.7257650    -0.2653140     0.0014880
  C       -3.0654680     0.5328540     0.0028660
  C        1.0578830     1.9506280    -0.0091420
  H       -2.3786350    -2.2235800    -0.0126570
  H       -3.1454970     1.1693440    -0.8801020
  H       -3.8626160    -0.2117770    -0.0066990
  H       -3.1511970     1.1523310     0.8973960
  H        1.3824760     2.9891980    -0.0128990
  H        3.6364610    -0.8630510    -0.2195510
  H        2.4794860    -2.1327440    -0.2212610
units angstrom
no_reorient  #important for SAPT in psi4, default
symmetry c1  #important for SAPT in psi4, default
}

set PROPERTIES_ORIGIN ["COM"]
properties('MP2/aug-cc-pvtz', properties = ['dipole'])
--------------------------------------------------------------------------

    Molecular point group: c1
  Charge       = 0
  Multiplicity = 1
  Basis Set: AUG-CC-PVTZ
    Blend: AUG-CC-PVTZ
  Basis Set: (AUG-CC-PVTZ AUX)
    Blend: AUG-CC-PVTZ-JKFIT

    Orbital Energies [Eh]
    ---------------------

    Doubly Occupied:

       1A    -15.635082     2A    -15.579814     3A    -15.569095
       4A    -15.560658     5A    -15.553555     6A    -11.333215
       7A    -11.323563     8A    -11.314760     9A    -11.312493
      10A    -11.288173    11A    -11.253336    12A     -1.364818
      13A     -1.296746    14A     -1.243767    15A     -1.192363
      16A     -1.154408    17A     -1.027864    18A     -0.985144
      19A     -0.893663    20A     -0.873487    21A     -0.801559
      22A     -0.753615    23A     -0.725512    24A     -0.682160
      25A     -0.674263    26A     -0.666004    27A     -0.625018
      28A     -0.606061    29A     -0.597469    30A     -0.591620
      31A     -0.571498    32A     -0.534986    33A     -0.497078
      34A     -0.492113    35A     -0.449996    36A     -0.413471
      37A     -0.407471    38A     -0.369412    39A     -0.302766

  @DF-RHF Final Energy:  -503.72091264098174

   => Energetics <=

    Nuclear Repulsion Energy =            593.6934577311734529
    One-Electron Energy =               -1861.7925867013902916
    Two-Electron Energy =                 764.3782163292352152
    Total Energy =                       -503.7209126409817372
  Basis Set: (AUG-CC-PVTZ AUX)
    Blend: AUG-CC-PVTZ-RI
    Molecular point group: c1

    Geometry (in Angstrom), charge = 0, multiplicity = 1:

       Center              X                  Y                   Z               Mass
    ------------   -----------------  -----------------  -----------------  -----------------
         N           -1.820136356330    -0.163990560485    -0.003148244370    14.003074004430
         N           -0.302156356330    -1.851873560485    -0.011259244370    14.003074004430
         N           -0.298125356330     1.747573439515    -0.001983244370    14.003074004430
         N            2.022401643670     1.033966439515    -0.010911244370    14.003074004430
         N            2.695984643670    -1.198932560485     0.075582755630    14.003074004430
         C           -0.590228556330     0.455247439515     0.001851155630    12.000000000000
         C            0.335795643670    -0.627971560485     0.005173755630    12.000000000000
         C           -1.611428956330    -1.521808560485    -0.009401244370    12.000000000000
         C            1.694932643670    -0.267531560485    -0.001549244370    12.000000000000
         C           -3.096300356330     0.530636439515    -0.000171244370    12.000000000000
         C            1.027050643670     1.948410439515    -0.012179244370    12.000000000000
         H           -2.409467356330    -2.225797560485    -0.015694244370     1.007825032230
         H           -3.176329356330     1.167126439515    -0.883139244370     1.007825032230
         H           -3.893448356330    -0.213994560485    -0.009736244370     1.007825032230
         H           -3.182029356330     1.150113439515     0.894358755630     1.007825032230
         H            1.351643643670     2.986980439515    -0.015936244370     1.007825032230
         H            3.605628643670    -0.865268560485    -0.222588244370     1.007825032230
         H            2.448653643670    -2.134961560485    -0.224298244370     1.007825032230

  Basis Set: AUG-CC-PVTZ
    Blend: AUG-CC-PVTZ
  Basis Set: (AUG-CC-PVTZ AUX)
    Blend: AUG-CC-PVTZ-JKFIT
	 Reference Energy          =    -503.7209126409817372 [Eh]
	 Singles Energy            =      -0.0000000000000000 [Eh]
	 Same-Spin Energy          =      -0.5501874337775983 [Eh]
	 Opposite-Spin Energy      =      -1.6343953110034137 [Eh]
	 Correlation Energy        =      -2.1845827447810118 [Eh]
	 Total Energy              =    -505.9054953857627766 [Eh]

	 ================> DF-SCS-MP2 Energies <==================
	-----------------------------------------------------------
	 SCS Same-Spin Scale       =       0.3333333333333333 [-]
	 SCS Opposite-Spin Scale   =       1.2000000000000000 [-]
	 SCS Same-Spin Energy      =      -0.1833958112591994 [Eh]
	 SCS Opposite-Spin Energy  =      -1.9612743732040965 [Eh]
	 SCS Correlation Energy    =      -2.1446701844632958 [Eh]
	 SCS Total Energy          =    -505.8655828254450171 [Eh]
	-----------------------------------------------------------

  Dipole Moment: [D]
     X:    -2.7764      Y:    -1.1161      Z:    -0.7892     Total:     3.0946

*** Psi4 exiting successfully. Buy a developer a beer!
