                               Psi4 1.3.2 release

  ==> Input File <==

--------------------------------------------------------------------------
#psi4
#
memory 32 gb

molecule  {
0 1
  N       -1.7893040    -0.1617730    -0.0001110
  N       -0.2063938    -1.8813506    -0.0094516
  N       -0.2672930     1.7497910     0.0010540
  N        2.0532340     1.0361840    -0.0078740
  N        2.7268170    -1.1967150     0.0786200
  C       -0.5487760     0.4359060     0.0048010
  C        0.3666280    -0.6257540     0.0082110
  C       -1.5569310    -1.5157420    -0.0063070
  C        1.7427556    -0.3369274    -0.0000098
  C       -3.0654680     0.5328540     0.0028660
  C        1.0578830     1.9506280    -0.0091420
  H       -2.3786350    -2.2235800    -0.0126570
  H       -3.1454970     1.1693440    -0.8801020
  H       -3.8626160    -0.2117770    -0.0066990
  H       -3.1511970     1.1523310     0.8973960
  H        1.3824760     2.9891980    -0.0128990
  H        3.6364610    -0.8630510    -0.2195510
  H        2.4794860    -2.1327440    -0.2212610
units angstrom
no_reorient  #important for SAPT in psi4, default
symmetry c1  #important for SAPT in psi4, default
}

set PROPERTIES_ORIGIN ["COM"]
properties('MP2/aug-cc-pvtz', properties = ['dipole'])
--------------------------------------------------------------------------

    Molecular point group: c1
  Charge       = 0
  Multiplicity = 1
  Basis Set: AUG-CC-PVTZ
    Blend: AUG-CC-PVTZ
  Basis Set: (AUG-CC-PVTZ AUX)
    Blend: AUG-CC-PVTZ-JKFIT

    Orbital Energies [Eh]
    ---------------------

    Doubly Occupied:

       1A    -15.639793     2A    -15.592204     3A    -15.573951
       4A    -15.553651     5A    -15.548796     6A    -11.335742
       7A    -11.330516     8A    -11.312905     9A    -11.305255
      10A    -11.290811    11A    -11.250772    12A     -1.361364
      13A     -1.295287    14A     -1.250150    15A     -1.192363
      16A     -1.139700    17A     -1.022518    18A     -0.990531
      19A     -0.890052    20A     -0.859638    21A     -0.809591
      22A     -0.756607    23A     -0.729871    24A     -0.684717
      25A     -0.669230    26A     -0.665249    27A     -0.627745
      28A     -0.600240    29A     -0.592773    30A     -0.587183
      31A     -0.570403    32A     -0.537389    33A     -0.497680
      34A     -0.491554    35A     -0.445050    36A     -0.412395
      37A     -0.404559    38A     -0.362758    39A     -0.296576

  @DF-RHF Final Energy:  -503.70301673690676

   => Energetics <=

    Nuclear Repulsion Energy =            592.5962734702604848
    One-Electron Energy =               -1859.6434435511266656
    Two-Electron Energy =                 763.3441533439594195
    Total Energy =                       -503.7030167369067613
  Basis Set: (AUG-CC-PVTZ AUX)
    Blend: AUG-CC-PVTZ-RI
    Molecular point group: c1

    Geometry (in Angstrom), charge = 0, multiplicity = 1:

       Center              X                  Y                   Z               Mass
    ------------   -----------------  -----------------  -----------------  -----------------
         N           -1.830363348416    -0.153822846307    -0.002909721897    14.003074004430
         N           -0.247453148416    -1.873400446307    -0.012250321897    14.003074004430
         N           -0.308352348416     1.757741153693    -0.001744721897    14.003074004430
         N            2.012174651584     1.044134153693    -0.010672721897    14.003074004430
         N            2.685757651584    -1.188764846307     0.075821278103    14.003074004430
         C           -0.589835348416     0.443856153693     0.002002278103    12.000000000000
         C            0.325568651584    -0.617803846307     0.005412278103    12.000000000000
         C           -1.597990348416    -1.507791846307    -0.009105721897    12.000000000000
         C            1.701696251584    -0.328977246307    -0.002808521897    12.000000000000
         C           -3.106527348416     0.540804153693     0.000067278103    12.000000000000
         C            1.016823651584     1.958578153693    -0.011940721897    12.000000000000
         H           -2.419694348416    -2.215629846307    -0.015455721897     1.007825032230
         H           -3.186556348416     1.177294153693    -0.882900721897     1.007825032230
         H           -3.903675348416    -0.203826846307    -0.009497721897     1.007825032230
         H           -3.192256348416     1.160281153693     0.894597278103     1.007825032230
         H            1.341416651584     2.997148153693    -0.015697721897     1.007825032230
         H            3.595401651584    -0.855100846307    -0.222349721897     1.007825032230
         H            2.438426651584    -2.124793846307    -0.224059721897     1.007825032230

  Basis Set: AUG-CC-PVTZ
    Blend: AUG-CC-PVTZ
  Basis Set: (AUG-CC-PVTZ AUX)
    Blend: AUG-CC-PVTZ-JKFIT
	 Reference Energy          =    -503.7030167369067613 [Eh]
	 Singles Energy            =      -0.0000000000000000 [Eh]
	 Same-Spin Energy          =      -0.5520192255950829 [Eh]
	 Opposite-Spin Energy      =      -1.6387824014015411 [Eh]
	 Correlation Energy        =      -2.1908016269966240 [Eh]
	 Total Energy              =    -505.8938183639033923 [Eh]

	 ================> DF-SCS-MP2 Energies <==================
	-----------------------------------------------------------
	 SCS Same-Spin Scale       =       0.3333333333333333 [-]
	 SCS Opposite-Spin Scale   =       1.2000000000000000 [-]
	 SCS Same-Spin Energy      =      -0.1840064085316943 [Eh]
	 SCS Opposite-Spin Energy  =      -1.9665388816818492 [Eh]
	 SCS Correlation Energy    =      -2.1505452902135436 [Eh]
	 SCS Total Energy          =    -505.8535620271202902 [Eh]
	-----------------------------------------------------------

  Dipole Moment: [D]
     X:    -2.4632      Y:    -1.4792      Z:    -0.7665     Total:     2.9737

*** Psi4 exiting successfully. Buy a developer a beer!
