                               Psi4 1.3.2 release

  ==> Input File <==

--------------------------------------------------------------------------
#psi4
#
memory 32 gb

molecule  {
0 1
  N       -1.7893040    -0.1617730    -0.0001110
  N       -0.2713240    -1.8496560    -0.0082220
  N       -0.1989151     1.7332588     0.0011252
  N        2.0532340     1.0361840    -0.0078740
  N        2.7268170    -1.1967150     0.0786200
  C       -0.5487760     0.4359060     0.0048010
  C        0.4209367    -0.5763906     0.0080849
  C       -1.5569310    -1.5157420    -0.0063070
  C        1.7257650    -0.2653140     0.0014880
  C       -3.0654680     0.5328540     0.0028660
  C        1.0578830     1.9506280    -0.0091420
  H       -2.3786350    -2.2235800    -0.0126570
  H       -3.1454970     1.1693440    -0.8801020
  H       -3.8626160    -0.2117770    -0.0066990
  H       -3.1511970     1.1523310     0.8973960
  H        1.3824760     2.9891980    -0.0128990
  H        3.6364610    -0.8630510    -0.2195510
  H        2.4794860    -2.1327440    -0.2212610
units angstrom
no_reorient  #important for SAPT in psi4, default
symmetry c1  #important for SAPT in psi4, default
}

set PROPERTIES_ORIGIN ["COM"]
properties('MP2/aug-cc-pvtz', properties = ['dipole'])
--------------------------------------------------------------------------

    Molecular point group: c1
  Charge       = 0
  Multiplicity = 1
  Basis Set: AUG-CC-PVTZ
    Blend: AUG-CC-PVTZ
  Basis Set: (AUG-CC-PVTZ AUX)
    Blend: AUG-CC-PVTZ-JKFIT

    Orbital Energies [Eh]
    ---------------------

    Doubly Occupied:

       1A    -15.636903     2A    -15.576391     3A    -15.569771
       4A    -15.553606     5A    -15.544794     6A    -11.325774
       7A    -11.323935     8A    -11.321001     9A    -11.300492
      10A    -11.292011    11A    -11.249333    12A     -1.366251
      13A     -1.304305    14A     -1.246702    15A     -1.186426
      16A     -1.149592    17A     -1.043503    18A     -0.988028
      19A     -0.895934    20A     -0.875334    21A     -0.806341
      22A     -0.757301    23A     -0.718231    24A     -0.683292
      25A     -0.674630    26A     -0.668796    27A     -0.624862
      28A     -0.616024    29A     -0.600034    30A     -0.597255
      31A     -0.577718    32A     -0.536029    33A     -0.501332
      34A     -0.485813    35A     -0.436355    36A     -0.409422
      37A     -0.403969    38A     -0.362781    39A     -0.322268

  @DF-RHF Final Energy:  -503.71648076496734

   => Energetics <=

    Nuclear Repulsion Energy =            595.7185019341036423
    One-Electron Energy =               -1865.8048823885737875
    Two-Electron Energy =                 766.3698996895027449
    Total Energy =                       -503.7164807649674003
  Basis Set: (AUG-CC-PVTZ AUX)
    Blend: AUG-CC-PVTZ-RI
    Molecular point group: c1

    Geometry (in Angstrom), charge = 0, multiplicity = 1:

       Center              X                  Y                   Z               Mass
    ------------   -----------------  -----------------  -----------------  -----------------
         N           -1.833691282372    -0.164985656986    -0.003142334527    14.003074004430
         N           -0.315711282372    -1.852868656986    -0.011253334527    14.003074004430
         N           -0.243302382372     1.730046143014    -0.001906134527    14.003074004430
         N            2.008846717628     1.032971343014    -0.010905334527    14.003074004430
         N            2.682429717628    -1.199927656986     0.075588665473    14.003074004430
         C           -0.593163282372     0.432693343014     0.001769665473    12.000000000000
         C            0.376549417628    -0.579603256986     0.005053565473    12.000000000000
         C           -1.601318282372    -1.518954656986    -0.009338334527    12.000000000000
         C            1.681377717628    -0.268526656986    -0.001543334527    12.000000000000
         C           -3.109855282372     0.529641343014    -0.000165334527    12.000000000000
         C            1.013495717628     1.947415343014    -0.012173334527    12.000000000000
         H           -2.423022282372    -2.226792656986    -0.015688334527     1.007825032230
         H           -3.189884282372     1.166131343014    -0.883133334527     1.007825032230
         H           -3.907003282372    -0.214989656986    -0.009730334527     1.007825032230
         H           -3.195584282372     1.149118343014     0.894364665473     1.007825032230
         H            1.338088717628     2.985985343014    -0.015930334527     1.007825032230
         H            3.592073717628    -0.866263656986    -0.222582334527     1.007825032230
         H            2.435098717628    -2.135956656986    -0.224292334527     1.007825032230

  Basis Set: AUG-CC-PVTZ
    Blend: AUG-CC-PVTZ
  Basis Set: (AUG-CC-PVTZ AUX)
    Blend: AUG-CC-PVTZ-JKFIT
	 Reference Energy          =    -503.7164807649673435 [Eh]
	 Singles Energy            =      -0.0000000000000000 [Eh]
	 Same-Spin Energy          =      -0.5481048456043224 [Eh]
	 Opposite-Spin Energy      =      -1.6312959607885646 [Eh]
	 Correlation Energy        =      -2.1794008063928869 [Eh]
	 Total Energy              =    -505.8958815713602348 [Eh]

	 ================> DF-SCS-MP2 Energies <==================
	-----------------------------------------------------------
	 SCS Same-Spin Scale       =       0.3333333333333333 [-]
	 SCS Opposite-Spin Scale   =       1.2000000000000000 [-]
	 SCS Same-Spin Energy      =      -0.1827016152014408 [Eh]
	 SCS Opposite-Spin Energy  =      -1.9575551529462776 [Eh]
	 SCS Correlation Energy    =      -2.1402567681477183 [Eh]
	 SCS Total Energy          =    -505.8567375331150515 [Eh]
	-----------------------------------------------------------

  Dipole Moment: [D]
     X:    -3.0265      Y:    -1.0047      Z:    -0.7944     Total:     3.2863

*** Psi4 exiting successfully. Buy a developer a beer!
