                               Psi4 1.3.2 release

  ==> Input File <==

--------------------------------------------------------------------------
#psi4
#
memory 32 gb

molecule  {
0 1
  N       -1.7893040    -0.1617730    -0.0001110
  N       -0.2713240    -1.8496560    -0.0082220
  N       -0.2672930     1.7497910     0.0010540
  N        2.0532340     1.0361840    -0.0078740
  N        2.7268170    -1.1967150     0.0786200
  C       -0.5487760     0.4359060     0.0048010
  C        0.3666280    -0.6257540     0.0082110
  C       -1.5569310    -1.5157420    -0.0063070
  C        1.7180038    -0.2733865     0.0056629
  C       -3.0654680     0.5328540     0.0028660
  C        1.0578830     1.9506280    -0.0091420
  H       -2.3786350    -2.2235800    -0.0126570
  H       -3.1454970     1.1693440    -0.8801020
  H       -3.8626160    -0.2117770    -0.0066990
  H       -3.1511970     1.1523310     0.8973960
  H        1.3824760     2.9891980    -0.0128990
  H        3.6399096    -0.8710081    -0.2178034
  H        2.4794860    -2.1327440    -0.2212610
units angstrom
no_reorient  #important for SAPT in psi4, default
symmetry c1  #important for SAPT in psi4, default
}

set PROPERTIES_ORIGIN ["COM"]
properties('MP2/aug-cc-pvtz', properties = ['dipole'])
--------------------------------------------------------------------------

    Molecular point group: c1
  Charge       = 0
  Multiplicity = 1
  Basis Set: AUG-CC-PVTZ
    Blend: AUG-CC-PVTZ
  Basis Set: (AUG-CC-PVTZ AUX)
    Blend: AUG-CC-PVTZ-JKFIT

    Orbital Energies [Eh]
    ---------------------

    Doubly Occupied:

       1A    -15.633389     2A    -15.580972     3A    -15.567485
       4A    -15.560205     5A    -15.552494     6A    -11.334259
       7A    -11.323114     8A    -11.314094     9A    -11.310948
      10A    -11.288966    11A    -11.251421    12A     -1.368230
      13A     -1.294649    14A     -1.242169    15A     -1.197083
      16A     -1.149921    17A     -1.032703    18A     -0.986786
      19A     -0.891150    20A     -0.871739    21A     -0.803302
      22A     -0.753085    23A     -0.724172    24A     -0.681569
      25A     -0.671766    26A     -0.666708    27A     -0.624089
      28A     -0.607137    29A     -0.596815    30A     -0.591774
      31A     -0.571957    32A     -0.536058    33A     -0.495701
      34A     -0.492567    35A     -0.450058    36A     -0.414408
      37A     -0.408874    38A     -0.367532    39A     -0.308575

  @DF-RHF Final Energy:  -503.72457406706195

   => Energetics <=

    Nuclear Repulsion Energy =            594.3551591041652955
    One-Electron Energy =               -1863.1236181147414754
    Two-Electron Energy =                 765.0438849435141719
    Total Energy =                       -503.7245740670620080
  Basis Set: (AUG-CC-PVTZ AUX)
    Blend: AUG-CC-PVTZ-RI
    Molecular point group: c1

    Geometry (in Angstrom), charge = 0, multiplicity = 1:

       Center              X                  Y                   Z               Mass
    ------------   -----------------  -----------------  -----------------  -----------------
         N           -1.822294875629    -0.161861298693    -0.003493687617    14.003074004430
         N           -0.304314875629    -1.849744298693    -0.011604687617    14.003074004430
         N           -0.300283875629     1.749702701307    -0.002328687617    14.003074004430
         N            2.020243124371     1.036095701307    -0.011256687617    14.003074004430
         N            2.693826124371    -1.196803298693     0.075237312383    14.003074004430
         C           -0.581766875629     0.435817701307     0.001418312383    12.000000000000
         C            0.333637124371    -0.625842298693     0.004828312383    12.000000000000
         C           -1.589921875629    -1.515830298693    -0.009689687617    12.000000000000
         C            1.685012924371    -0.273474798693     0.002280212383    12.000000000000
         C           -3.098458875629     0.532765701307    -0.000516687617    12.000000000000
         C            1.024892124371     1.950539701307    -0.012524687617    12.000000000000
         H           -2.411625875629    -2.223668298693    -0.016039687617     1.007825032230
         H           -3.178487875629     1.169255701307    -0.883484687617     1.007825032230
         H           -3.895606875629    -0.211865298693    -0.010081687617     1.007825032230
         H           -3.184187875629     1.152242701307     0.894013312383     1.007825032230
         H            1.349485124371     2.989109701307    -0.016281687617     1.007825032230
         H            3.606918724371    -0.871096398693    -0.221186087617     1.007825032230
         H            2.446495124371    -2.132832298693    -0.224643687617     1.007825032230

  Basis Set: AUG-CC-PVTZ
    Blend: AUG-CC-PVTZ
  Basis Set: (AUG-CC-PVTZ AUX)
    Blend: AUG-CC-PVTZ-JKFIT
	 Reference Energy          =    -503.7245740670619512 [Eh]
	 Singles Energy            =      -0.0000000000000000 [Eh]
	 Same-Spin Energy          =      -0.5492604360933400 [Eh]
	 Opposite-Spin Energy      =      -1.6332012845326584 [Eh]
	 Correlation Energy        =      -2.1824617206259984 [Eh]
	 Total Energy              =    -505.9070357876879598 [Eh]

	 ================> DF-SCS-MP2 Energies <==================
	-----------------------------------------------------------
	 SCS Same-Spin Scale       =       0.3333333333333333 [-]
	 SCS Opposite-Spin Scale   =       1.2000000000000000 [-]
	 SCS Same-Spin Energy      =      -0.1830868120311133 [Eh]
	 SCS Opposite-Spin Energy  =      -1.9598415414391901 [Eh]
	 SCS Correlation Energy    =      -2.1429283534703032 [Eh]
	 SCS Total Energy          =    -505.8675024205322757 [Eh]
	-----------------------------------------------------------

  Dipole Moment: [D]
     X:    -2.7468      Y:    -1.1839      Z:    -0.7833     Total:     3.0919

*** Psi4 exiting successfully. Buy a developer a beer!
