                               Psi4 1.4a3.dev225

  ==> Input File <==

--------------------------------------------------------------------------
#psi4
#
memory 32 gb

molecule  {
0 1
  N       -1.7889380    -0.1640290    -0.0179520
  N       -0.2703210    -1.8482040    -0.0023970
  N       -0.2671710     1.7490810    -0.0033560
  N        2.0541740     1.0368940    -0.0085470
  N        2.7206340    -1.1973270     0.0732090
  C       -0.5486140     0.4351420     0.0045870
  C        0.3650590    -0.6247560     0.0169900
  C       -1.6053368    -1.5036320    -0.0167961
  C        1.7266360    -0.2641570     0.0048060
  C       -3.0641060     0.5324820     0.0177850
  C        1.0564750     1.9508360    -0.0110870
  H       -2.3762040    -2.2259510    -0.0342240
  H       -2.9284720     1.5041700    -0.4579320
  H       -3.8067760    -0.0485880    -0.5312030
  H       -3.3972360     0.6796990     1.0480130
  H        1.3812150     2.9891510    -0.0228070
  H        3.6427950    -0.8729100    -0.1905990
  H        2.4748820    -2.1409930    -0.1987870
units angstrom
no_reorient  #important for SAPT in psi4, default
symmetry c1  #important for SAPT in psi4, default
}

set PROPERTIES_ORIGIN ["COM"]
properties('MP2/aug-cc-pvtz', properties = ['dipole'])
--------------------------------------------------------------------------

    Molecular point group: c1
  Charge       = 0
  Multiplicity = 1
  Basis Set: AUG-CC-PVTZ
    Blend: AUG-CC-PVTZ
  Basis Set: (AUG-CC-PVTZ AUX)
    Blend: AUG-CC-PVTZ-JKFIT

    Orbital Energies [Eh]
    ---------------------

    Doubly Occupied:

       1A    -15.637444     2A    -15.581482     3A    -15.567681
       4A    -15.560717     5A    -15.552289     6A    -11.335084
       7A    -11.321940     8A    -11.311761     9A    -11.310793
      10A    -11.288116    11A    -11.251406    12A     -1.367536
      13A     -1.296805    14A     -1.240829    15A     -1.188120
      16A     -1.152513    17A     -1.028659    18A     -0.987471
      19A     -0.895930    20A     -0.870117    21A     -0.805172
      22A     -0.754537    23A     -0.726971    24A     -0.685276
      25A     -0.672739    26A     -0.667980    27A     -0.621667
      28A     -0.609744    29A     -0.594254    30A     -0.592493
      31A     -0.572795    32A     -0.535827    33A     -0.493962
      34A     -0.489341    35A     -0.448785    36A     -0.412059
      37A     -0.406812    38A     -0.369866    39A     -0.301576

  @DF-RHF Final Energy:  -503.71800927565744

   => Energetics <=

    Nuclear Repulsion Energy =            594.0579167262668534
    One-Electron Energy =               -1862.5347571479371709
    Two-Electron Energy =                 764.7588311460127670
    Total Energy =                       -503.7180092756574368
  Basis Set: (AUG-CC-PVTZ AUX)
    Blend: AUG-CC-PVTZ-RI
    Molecular point group: c1

    Geometry (in Angstrom), charge = 0, multiplicity = 1:

       Center              X                  Y                   Z               Mass
    ------------   -----------------  -----------------  -----------------  -----------------
         N           -1.818435381265    -0.165794361646    -0.020490209084    14.003074004430
         N           -0.299818381265    -1.849969361646    -0.004935209084    14.003074004430
         N           -0.296668381265     1.747315638354    -0.005894209084    14.003074004430
         N            2.024676618735     1.035128638354    -0.011085209084    14.003074004430
         N            2.691136618735    -1.199092361646     0.070670790916    14.003074004430
         C           -0.578111381265     0.433376638354     0.002048790916    12.000000000000
         C            0.335561618735    -0.626521361646     0.014451790916    12.000000000000
         C           -1.634834181265    -1.505397361646    -0.019334309084    12.000000000000
         C            1.697138618735    -0.265922361646     0.002267790916    12.000000000000
         C           -3.093603381265     0.530716638354     0.015246790916    12.000000000000
         C            1.026977618735     1.949070638354    -0.013625209084    12.000000000000
         H           -2.405701381265    -2.227716361646    -0.036762209084     1.007825032230
         H           -2.957969381265     1.502404638354    -0.460470209084     1.007825032230
         H           -3.836273381265    -0.050353361646    -0.533741209084     1.007825032230
         H           -3.426733381265     0.677933638354     1.045474790916     1.007825032230
         H            1.351717618735     2.987385638354    -0.025345209084     1.007825032230
         H            3.613297618735    -0.874675361646    -0.193137209084     1.007825032230
         H            2.445384618735    -2.142758361646    -0.201325209084     1.007825032230

  Basis Set: AUG-CC-PVTZ
    Blend: AUG-CC-PVTZ
  Basis Set: (AUG-CC-PVTZ AUX)
    Blend: AUG-CC-PVTZ-JKFIT
	 Reference Energy          =    -503.7180092756574368 [Eh]
	 Singles Energy            =      -0.0000000000000000 [Eh]
	 Same-Spin Energy          =      -0.5507645832714793 [Eh]
	 Opposite-Spin Energy      =      -1.6353958673737332 [Eh]
	 Correlation Energy        =      -2.1861604506452124 [Eh]
	 Total Energy              =    -505.9041697263026549 [Eh]

	 ================> DF-SCS-MP2 Energies <==================
	-----------------------------------------------------------
	 SCS Same-Spin Scale       =       0.3333333333333333 [-]
	 SCS Opposite-Spin Scale   =       1.2000000000000000 [-]
	 SCS Same-Spin Energy      =      -0.1835881944238264 [Eh]
	 SCS Opposite-Spin Energy  =      -1.9624750408484797 [Eh]
	 SCS Correlation Energy    =      -2.1460632352723059 [Eh]
	 SCS Total Energy          =    -505.8640725109297591 [Eh]
	-----------------------------------------------------------

  Dipole Moment: [D]
     X:    -2.7004      Y:    -1.1013      Z:    -0.7128     Total:     3.0022

*** Psi4 exiting successfully. Buy a developer a beer!
