                               Psi4 1.3.2 release

  ==> Input File <==

--------------------------------------------------------------------------
#psi4
#
memory 32 gb

molecule  {
0 1
  N       -1.7893040    -0.1617730    -0.0001110
  N       -0.2713240    -1.8496560    -0.0082220
  N       -0.2672930     1.7497910     0.0010540
  N        2.0532340     1.0361840    -0.0078740
  N        2.7268170    -1.1967150     0.0786200
  C       -0.5697243     0.3381252     0.0050799
  C        0.3666280    -0.6257540     0.0082110
  C       -1.5569310    -1.5157420    -0.0063070
  C        1.7257650    -0.2653140     0.0014880
  C       -3.0654680     0.5328540     0.0028660
  C        1.0578830     1.9506280    -0.0091420
  H       -2.3786350    -2.2235800    -0.0126570
  H       -3.1454970     1.1693440    -0.8801020
  H       -3.8626160    -0.2117770    -0.0066990
  H       -3.1511970     1.1523310     0.8973960
  H        1.3824760     2.9891980    -0.0128990
  H        3.6364610    -0.8630510    -0.2195510
  H        2.4794860    -2.1327440    -0.2212610
units angstrom
no_reorient  #important for SAPT in psi4, default
symmetry c1  #important for SAPT in psi4, default
}

set PROPERTIES_ORIGIN ["COM"]
properties('MP2/aug-cc-pvtz', properties = ['dipole'])
--------------------------------------------------------------------------

    Molecular point group: c1
  Charge       = 0
  Multiplicity = 1
  Basis Set: AUG-CC-PVTZ
    Blend: AUG-CC-PVTZ
  Basis Set: (AUG-CC-PVTZ AUX)
    Blend: AUG-CC-PVTZ-JKFIT

    Orbital Energies [Eh]
    ---------------------

    Doubly Occupied:

       1A    -15.637312     2A    -15.584850     3A    -15.568602
       4A    -15.559019     5A    -15.546592     6A    -11.339361
       7A    -11.320073     8A    -11.306341     9A    -11.305898
      10A    -11.294081    11A    -11.246353    12A     -1.384883
      13A     -1.292626    14A     -1.229569    15A     -1.203431
      16A     -1.136556    17A     -1.038812    18A     -0.995821
      19A     -0.893615    20A     -0.860970    21A     -0.812497
      22A     -0.753475    23A     -0.726521    24A     -0.681844
      25A     -0.675099    26A     -0.664885    27A     -0.625167
      28A     -0.612878    29A     -0.596547    30A     -0.591442
      31A     -0.579011    32A     -0.541596    33A     -0.486085
      34A     -0.484703    35A     -0.445577    36A     -0.416186
      37A     -0.405468    38A     -0.360291    39A     -0.318068

  @DF-RHF Final Energy:  -503.71144834710077

   => Energetics <=

    Nuclear Repulsion Energy =            594.9785652118504231
    One-Electron Energy =               -1864.3358193705303165
    Two-Electron Energy =                 765.6458058115792937
    Total Energy =                       -503.7114483471007134
  Basis Set: (AUG-CC-PVTZ AUX)
    Blend: AUG-CC-PVTZ-RI
    Molecular point group: c1

    Geometry (in Angstrom), charge = 0, multiplicity = 1:

       Center              X                  Y                   Z               Mass
    ------------   -----------------  -----------------  -----------------  -----------------
         N           -1.821210011955    -0.154693664734    -0.003168248376    14.003074004430
         N           -0.303230011955    -1.842576664734    -0.011279248376    14.003074004430
         N           -0.299199011955     1.756870335266    -0.002003248376    14.003074004430
         N            2.021327988045     1.043263335266    -0.010931248376    14.003074004430
         N            2.694910988045    -1.189635664734     0.075562751624    14.003074004430
         C           -0.601630311955     0.345204535266     0.002022651624    12.000000000000
         C            0.334721988045    -0.618674664734     0.005153751624    12.000000000000
         C           -1.588837011955    -1.508662664734    -0.009364248376    12.000000000000
         C            1.693858988045    -0.258234664734    -0.001569248376    12.000000000000
         C           -3.097374011955     0.539933335266    -0.000191248376    12.000000000000
         C            1.025976988045     1.957707335266    -0.012199248376    12.000000000000
         H           -2.410541011955    -2.216500664734    -0.015714248376     1.007825032230
         H           -3.177403011955     1.176423335266    -0.883159248376     1.007825032230
         H           -3.894522011955    -0.204697664734    -0.009756248376     1.007825032230
         H           -3.183103011955     1.159410335266     0.894338751624     1.007825032230
         H            1.350569988045     2.996277335266    -0.015956248376     1.007825032230
         H            3.604554988045    -0.855971664734    -0.222608248376     1.007825032230
         H            2.447579988045    -2.125664664734    -0.224318248376     1.007825032230

  Basis Set: AUG-CC-PVTZ
    Blend: AUG-CC-PVTZ
  Basis Set: (AUG-CC-PVTZ AUX)
    Blend: AUG-CC-PVTZ-JKFIT
	 Reference Energy          =    -503.7114483471007702 [Eh]
	 Singles Energy            =      -0.0000000000000000 [Eh]
	 Same-Spin Energy          =      -0.5484663036801112 [Eh]
	 Opposite-Spin Energy      =      -1.6335996907574923 [Eh]
	 Correlation Energy        =      -2.1820659944376035 [Eh]
	 Total Energy              =    -505.8935143415383777 [Eh]

	 ================> DF-SCS-MP2 Energies <==================
	-----------------------------------------------------------
	 SCS Same-Spin Scale       =       0.3333333333333333 [-]
	 SCS Opposite-Spin Scale   =       1.2000000000000000 [-]
	 SCS Same-Spin Energy      =      -0.1828221012267037 [Eh]
	 SCS Opposite-Spin Energy  =      -1.9603196289089908 [Eh]
	 SCS Correlation Energy    =      -2.1431417301356945 [Eh]
	 SCS Total Energy          =    -505.8545900772364803 [Eh]
	-----------------------------------------------------------

  Dipole Moment: [D]
     X:    -2.8701      Y:    -1.3015      Z:    -0.7863     Total:     3.2480

*** Psi4 exiting successfully. Buy a developer a beer!
