                               Psi4 1.3.2 release

  ==> Input File <==

--------------------------------------------------------------------------
#psi4
#
memory 32 gb

molecule  {
0 1
  N       -1.7893040    -0.1617730    -0.0001110
  N       -0.2713240    -1.8496560    -0.0082220
  N       -0.2672930     1.7497910     0.0010540
  N        2.0532340     1.0361840    -0.0078740
  N        2.7268170    -1.1967150     0.0786200
  C       -0.5487760     0.4359060     0.0048010
  C        0.3666280    -0.6257540     0.0082110
  C       -1.5569310    -1.5157420    -0.0063070
  C        1.6526695    -0.1973043    -0.0041441
  C       -3.0654680     0.5328540     0.0028660
  C        1.0578830     1.9506280    -0.0091420
  H       -2.3786350    -2.2235800    -0.0126570
  H       -3.1454970     1.1693440    -0.8801020
  H       -3.8626160    -0.2117770    -0.0066990
  H       -3.1511970     1.1523310     0.8973960
  H        1.3824760     2.9891980    -0.0128990
  H        3.6364610    -0.8630510    -0.2195510
  H        2.4794860    -2.1327440    -0.2212610
units angstrom
no_reorient  #important for SAPT in psi4, default
symmetry c1  #important for SAPT in psi4, default
}

set PROPERTIES_ORIGIN ["COM"]
properties('MP2/aug-cc-pvtz', properties = ['dipole'])
--------------------------------------------------------------------------

    Molecular point group: c1
  Charge       = 0
  Multiplicity = 1
  Basis Set: AUG-CC-PVTZ
    Blend: AUG-CC-PVTZ
  Basis Set: (AUG-CC-PVTZ AUX)
    Blend: AUG-CC-PVTZ-JKFIT

    Orbital Energies [Eh]
    ---------------------

    Doubly Occupied:

       1A    -15.637644     2A    -15.572376     3A    -15.569596
       4A    -15.562349     5A    -15.557850     6A    -11.329479
       7A    -11.327183     8A    -11.318868     9A    -11.316577
      10A    -11.292297    11A    -11.253065    12A     -1.374474
      13A     -1.306997    14A     -1.232297    15A     -1.193081
      16A     -1.146443    17A     -1.042993    18A     -0.991137
      19A     -0.896634    20A     -0.884512    21A     -0.802133
      22A     -0.754066    23A     -0.719802    24A     -0.674826
      25A     -0.671577    26A     -0.664445    27A     -0.621225
      28A     -0.607612    29A     -0.600946    30A     -0.584617
      31A     -0.575766    32A     -0.537713    33A     -0.501047
      34A     -0.486680    35A     -0.462237    36A     -0.418162
      37A     -0.407734    38A     -0.374882    39A     -0.318337

  @DF-RHF Final Energy:  -503.71232700794565

   => Energetics <=

    Nuclear Repulsion Energy =            595.4614970539449814
    One-Electron Energy =               -1865.1683280500130877
    Two-Electron Energy =                 765.9945039881225739
    Total Energy =                       -503.7123270079456461
  Basis Set: (AUG-CC-PVTZ AUX)
    Blend: AUG-CC-PVTZ-RI
    Molecular point group: c1

    Geometry (in Angstrom), charge = 0, multiplicity = 1:

       Center              X                  Y                   Z               Mass
    ------------   -----------------  -----------------  -----------------  -----------------
         N           -1.817012213670    -0.168039636837    -0.002692418692    14.003074004430
         N           -0.299032213670    -1.855922636837    -0.010803418692    14.003074004430
         N           -0.295001213670     1.743524363163    -0.001527418692    14.003074004430
         N            2.025525786330     1.029917363163    -0.010455418692    14.003074004430
         N            2.699108786330    -1.202981636837     0.076038581308    14.003074004430
         C           -0.576484213670     0.429639363163     0.002219581308    12.000000000000
         C            0.338919786330    -0.632020636837     0.005629581308    12.000000000000
         C           -1.584639213670    -1.522008636837    -0.008888418692    12.000000000000
         C            1.624961286330    -0.203570936837    -0.006725518692    12.000000000000
         C           -3.093176213670     0.526587363163     0.000284581308    12.000000000000
         C            1.030174786330     1.944361363163    -0.011723418692    12.000000000000
         H           -2.406343213670    -2.229846636837    -0.015238418692     1.007825032230
         H           -3.173205213670     1.163077363163    -0.882683418692     1.007825032230
         H           -3.890324213670    -0.218043636837    -0.009280418692     1.007825032230
         H           -3.178905213670     1.146064363163     0.894814581308     1.007825032230
         H            1.354767786330     2.982931363163    -0.015480418692     1.007825032230
         H            3.608752786330    -0.869317636837    -0.222132418692     1.007825032230
         H            2.451777786330    -2.139010636837    -0.223842418692     1.007825032230

  Basis Set: AUG-CC-PVTZ
    Blend: AUG-CC-PVTZ
  Basis Set: (AUG-CC-PVTZ AUX)
    Blend: AUG-CC-PVTZ-JKFIT
	 Reference Energy          =    -503.7123270079456461 [Eh]
	 Singles Energy            =      -0.0000000000000000 [Eh]
	 Same-Spin Energy          =      -0.5490780418201524 [Eh]
	 Opposite-Spin Energy      =      -1.6333222100199607 [Eh]
	 Correlation Energy        =      -2.1824002518401131 [Eh]
	 Total Energy              =    -505.8947272597857818 [Eh]

	 ================> DF-SCS-MP2 Energies <==================
	-----------------------------------------------------------
	 SCS Same-Spin Scale       =       0.3333333333333333 [-]
	 SCS Opposite-Spin Scale   =       1.2000000000000000 [-]
	 SCS Same-Spin Energy      =      -0.1830260139400508 [Eh]
	 SCS Opposite-Spin Energy  =      -1.9599866520239528 [Eh]
	 SCS Correlation Energy    =      -2.1430126659640036 [Eh]
	 SCS Total Energy          =    -505.8553396739096684 [Eh]
	-----------------------------------------------------------

  Dipole Moment: [D]
     X:    -3.5064      Y:    -0.5744      Z:    -0.8180     Total:     3.6461

*** Psi4 exiting successfully. Buy a developer a beer!
