                               Psi4 1.3.2 release

  ==> Input File <==

--------------------------------------------------------------------------
#psi4
#
memory 32 gb

molecule  {
0 1
  N       -1.7893040    -0.1617730    -0.0001110
  N       -0.2713240    -1.8496560    -0.0082220
  N       -0.2672930     1.7497910     0.0010540
  N        2.0532340     1.0361840    -0.0078740
  N        2.7268170    -1.1967150     0.0786200
  C       -0.5487760     0.4359060     0.0048010
  C        0.3666280    -0.6257540     0.0082110
  C       -1.5569310    -1.5157420    -0.0063070
  C        1.7257650    -0.2653140     0.0014880
  C       -3.0654680     0.5328540     0.0028660
  C        1.0578830     1.9506280    -0.0091420
  H       -2.3786350    -2.2235800    -0.0126570
  H       -3.1454970     1.1693440    -0.8801020
  H       -3.8658716    -0.2083370     0.0015588
  H       -3.1588548     1.1473377     0.9000693
  H        1.3824760     2.9891980    -0.0128990
  H        3.6364610    -0.8630510    -0.2195510
  H        2.4794860    -2.1327440    -0.2212610
units angstrom
no_reorient  #important for SAPT in psi4, default
symmetry c1  #important for SAPT in psi4, default
}

set PROPERTIES_ORIGIN ["COM"]
properties('MP2/aug-cc-pvtz', properties = ['dipole'])
--------------------------------------------------------------------------

    Molecular point group: c1
  Charge       = 0
  Multiplicity = 1
  Basis Set: AUG-CC-PVTZ
    Blend: AUG-CC-PVTZ
  Basis Set: (AUG-CC-PVTZ AUX)
    Blend: AUG-CC-PVTZ-JKFIT

    Orbital Energies [Eh]
    ---------------------

    Doubly Occupied:

       1A    -15.633197     2A    -15.581008     3A    -15.567377
       4A    -15.560691     5A    -15.552379     6A    -11.334530
       7A    -11.322546     8A    -11.313073     9A    -11.311577
      10A    -11.288695    11A    -11.251900    12A     -1.367804
      13A     -1.296177    14A     -1.242263    15A     -1.196826
      16A     -1.151896    17A     -1.031382    18A     -0.986053
      19A     -0.890733    20A     -0.872083    21A     -0.802921
      22A     -0.753592    23A     -0.724097    24A     -0.680829
      25A     -0.673281    26A     -0.666428    27A     -0.624611
      28A     -0.606138    29A     -0.597014    30A     -0.591081
      31A     -0.571532    32A     -0.536924    33A     -0.495581
      34A     -0.492634    35A     -0.450524    36A     -0.414301
      37A     -0.408562    38A     -0.368427    39A     -0.307790

  @DF-RHF Final Energy:  -503.72486661910875

   => Energetics <=

    Nuclear Repulsion Energy =            594.3059484524058007
    One-Electron Energy =               -1863.0247178294148398
    Two-Electron Energy =                 764.9939027579002868
    Total Energy =                       -503.7248666191087523
  Basis Set: (AUG-CC-PVTZ AUX)
    Blend: AUG-CC-PVTZ-RI
    Molecular point group: c1

    Geometry (in Angstrom), charge = 0, multiplicity = 1:

       Center              X                  Y                   Z               Mass
    ------------   -----------------  -----------------  -----------------  -----------------
         N           -1.822822546791    -0.162554421449    -0.003219699565    14.003074004430
         N           -0.304842546791    -1.850437421449    -0.011330699565    14.003074004430
         N           -0.300811546791     1.749009578551    -0.002054699565    14.003074004430
         N            2.019715453209     1.035402578551    -0.010982699565    14.003074004430
         N            2.693298453209    -1.197496421449     0.075511300435    14.003074004430
         C           -0.582294546791     0.435124578551     0.001692300435    12.000000000000
         C            0.333109453209    -0.626535421449     0.005102300435    12.000000000000
         C           -1.590449546791    -1.516523421449    -0.009415699565    12.000000000000
         C            1.692246453209    -0.266095421449    -0.001620699565    12.000000000000
         C           -3.098986546791     0.532072578551    -0.000242699565    12.000000000000
         C            1.024364453209     1.949846578551    -0.012250699565    12.000000000000
         H           -2.412153546791    -2.224361421449    -0.015765699565     1.007825032230
         H           -3.179015546791     1.168562578551    -0.883210699565     1.007825032230
         H           -3.899390146791    -0.209118421449    -0.001549899565     1.007825032230
         H           -3.192373346791     1.146556278551     0.896960600435     1.007825032230
         H            1.348957453209     2.988416578551    -0.016007699565     1.007825032230
         H            3.602942453209    -0.863832421449    -0.222659699565     1.007825032230
         H            2.445967453209    -2.133525421449    -0.224369699565     1.007825032230

  Basis Set: AUG-CC-PVTZ
    Blend: AUG-CC-PVTZ
  Basis Set: (AUG-CC-PVTZ AUX)
    Blend: AUG-CC-PVTZ-JKFIT
	 Reference Energy          =    -503.7248666191087523 [Eh]
	 Singles Energy            =      -0.0000000000000000 [Eh]
	 Same-Spin Energy          =      -0.5492615818155415 [Eh]
	 Opposite-Spin Energy      =      -1.6331082967140134 [Eh]
	 Correlation Energy        =      -2.1823698785295549 [Eh]
	 Total Energy              =    -505.9072364976382801 [Eh]

	 ================> DF-SCS-MP2 Energies <==================
	-----------------------------------------------------------
	 SCS Same-Spin Scale       =       0.3333333333333333 [-]
	 SCS Opposite-Spin Scale   =       1.2000000000000000 [-]
	 SCS Same-Spin Energy      =      -0.1830871939385138 [Eh]
	 SCS Opposite-Spin Energy  =      -1.9597299560568160 [Eh]
	 SCS Correlation Energy    =      -2.1428171499953299 [Eh]
	 SCS Total Energy          =    -505.8676837691040760 [Eh]
	-----------------------------------------------------------

  Dipole Moment: [D]
     X:    -2.7367      Y:    -1.1601      Z:    -0.7834     Total:     3.0739

*** Psi4 exiting successfully. Buy a developer a beer!
