                               Psi4 1.4a3.dev225

  ==> Input File <==

--------------------------------------------------------------------------
#psi4
#
memory 32 gb

molecule  {
0 1
  N       -1.7889380    -0.1640290    -0.0179520
  N       -0.2703210    -1.8482040    -0.0023970
  N       -0.2671710     1.7490810    -0.0033560
  N        2.0541740     1.0368940    -0.0085470
  N        2.7206340    -1.1973270     0.0732090
  C       -0.5306076     0.4438405     0.0049142
  C        0.3650590    -0.6247560     0.0169900
  C       -1.5569260    -1.5161270    -0.0162740
  C        1.7266360    -0.2641570     0.0048060
  C       -3.0641060     0.5324820     0.0177850
  C        1.0564750     1.9508360    -0.0110870
  H       -2.3762040    -2.2259510    -0.0342240
  H       -2.9284720     1.5041700    -0.4579320
  H       -3.8067760    -0.0485880    -0.5312030
  H       -3.3972360     0.6796990     1.0480130
  H        1.3812150     2.9891510    -0.0228070
  H        3.6427950    -0.8729100    -0.1905990
  H        2.4748820    -2.1409930    -0.1987870
units angstrom
no_reorient  #important for SAPT in psi4, default
symmetry c1  #important for SAPT in psi4, default
}

set PROPERTIES_ORIGIN ["COM"]
properties('MP2/aug-cc-pvtz', properties = ['dipole'])
--------------------------------------------------------------------------

    Molecular point group: c1
  Charge       = 0
  Multiplicity = 1
  Basis Set: AUG-CC-PVTZ
    Blend: AUG-CC-PVTZ
  Basis Set: (AUG-CC-PVTZ AUX)
    Blend: AUG-CC-PVTZ-JKFIT

    Orbital Energies [Eh]
    ---------------------

    Doubly Occupied:

       1A    -15.629961     2A    -15.581468     3A    -15.566074
       4A    -15.560697     5A    -15.552788     6A    -11.334851
       7A    -11.321325     8A    -11.312657     9A    -11.312291
      10A    -11.285642    11A    -11.251037    12A     -1.364112
      13A     -1.297216    14A     -1.245228    15A     -1.194423
      16A     -1.153890    17A     -1.031372    18A     -0.982693
      19A     -0.889501    20A     -0.873041    21A     -0.802876
      22A     -0.753956    23A     -0.723596    24A     -0.681526
      25A     -0.673602    26A     -0.663846    27A     -0.625532
      28A     -0.606075    29A     -0.595067    30A     -0.592784
      31A     -0.567104    32A     -0.535715    33A     -0.497364
      34A     -0.492630    35A     -0.451208    36A     -0.413855
      37A     -0.408433    38A     -0.369524    39A     -0.306744

  @DF-RHF Final Energy:  -503.72445441040276

   => Energetics <=

    Nuclear Repulsion Energy =            594.6258747696001592
    One-Electron Energy =               -1863.6972485180740478
    Two-Electron Energy =                 765.3469193380711886
    Total Energy =                       -503.7244544104027000
  Basis Set: (AUG-CC-PVTZ AUX)
    Blend: AUG-CC-PVTZ-RI
    Molecular point group: c1

    Geometry (in Angstrom), charge = 0, multiplicity = 1:

       Center              X                  Y                   Z               Mass
    ------------   -----------------  -----------------  -----------------  -----------------
         N           -1.823781900508    -0.165488747132    -0.020558576898    14.003074004430
         N           -0.305164900508    -1.849663747132    -0.005003576898    14.003074004430
         N           -0.302014900508     1.747621252868    -0.005962576898    14.003074004430
         N            2.019330099492     1.035434252868    -0.011153576898    14.003074004430
         N            2.685790099492    -1.198786747132     0.070602423102    14.003074004430
         C           -0.565451500508     0.442380752868     0.002307623102    12.000000000000
         C            0.330215099492    -0.626215747132     0.014383423102    12.000000000000
         C           -1.591769900508    -1.517586747132    -0.018880576898    12.000000000000
         C            1.691792099492    -0.265616747132     0.002199423102    12.000000000000
         C           -3.098949900508     0.531022252868     0.015178423102    12.000000000000
         C            1.021631099492     1.949376252868    -0.013693576898    12.000000000000
         H           -2.411047900508    -2.227410747132    -0.036830576898     1.007825032230
         H           -2.963315900508     1.502710252868    -0.460538576898     1.007825032230
         H           -3.841619900508    -0.050047747132    -0.533809576898     1.007825032230
         H           -3.432079900508     0.678239252868     1.045406423102     1.007825032230
         H            1.346371099492     2.987691252868    -0.025413576898     1.007825032230
         H            3.607951099492    -0.874369747132    -0.193205576898     1.007825032230
         H            2.440038099492    -2.142452747132    -0.201393576898     1.007825032230

  Basis Set: AUG-CC-PVTZ
    Blend: AUG-CC-PVTZ
  Basis Set: (AUG-CC-PVTZ AUX)
    Blend: AUG-CC-PVTZ-JKFIT
	 Reference Energy          =    -503.7244544104027568 [Eh]
	 Singles Energy            =      -0.0000000000000000 [Eh]
	 Same-Spin Energy          =      -0.5493224201520310 [Eh]
	 Opposite-Spin Energy      =      -1.6328995433441564 [Eh]
	 Correlation Energy        =      -2.1822219634961875 [Eh]
	 Total Energy              =    -505.9066763738989607 [Eh]

	 ================> DF-SCS-MP2 Energies <==================
	-----------------------------------------------------------
	 SCS Same-Spin Scale       =       0.3333333333333333 [-]
	 SCS Opposite-Spin Scale   =       1.2000000000000000 [-]
	 SCS Same-Spin Energy      =      -0.1831074733840103 [Eh]
	 SCS Opposite-Spin Energy  =      -1.9594794520129877 [Eh]
	 SCS Correlation Energy    =      -2.1425869253969978 [Eh]
	 SCS Total Energy          =    -505.8670413357997404 [Eh]
	-----------------------------------------------------------

  Dipole Moment: [D]
     X:    -2.5614      Y:    -1.1634      Z:    -0.7122     Total:     2.9020

*** Psi4 exiting successfully. Buy a developer a beer!
