                               Psi4 1.3.2 release

  ==> Input File <==

--------------------------------------------------------------------------
#psi4
#
memory 32 gb

molecule  {
0 1
  N       -1.7893040    -0.1617730    -0.0001110
  N       -0.2713240    -1.8496560    -0.0082220
  N       -0.2672930     1.7497910     0.0010540
  N        2.0532340     1.0361840    -0.0078740
  N        2.7268170    -1.1967150     0.0786200
  C       -0.5487760     0.4359060     0.0048010
  C        0.3666280    -0.6257540     0.0082110
  C       -1.5569310    -1.5157420    -0.0063070
  C        1.7257650    -0.2653140     0.0014880
  C       -3.0654680     0.5328540     0.0028660
  C        1.0578830     1.9506280    -0.0091420
  H       -2.3786350    -2.2235800    -0.0126570
  H       -3.1454970     1.1693440    -0.8801020
  H       -3.8626160    -0.2117770    -0.0066990
  H       -3.1511970     1.1523310     0.8973960
  H        1.3824760     2.9891980    -0.0128990
  H        3.6438872    -0.9094935    -0.2441430
  H        2.5264415    -2.1357896    -0.2457872
units angstrom
no_reorient  #important for SAPT in psi4, default
symmetry c1  #important for SAPT in psi4, default
}

set PROPERTIES_ORIGIN ["COM"]
properties('MP2/aug-cc-pvtz', properties = ['dipole'])
--------------------------------------------------------------------------

    Molecular point group: c1
  Charge       = 0
  Multiplicity = 1
  Basis Set: AUG-CC-PVTZ
    Blend: AUG-CC-PVTZ
  Basis Set: (AUG-CC-PVTZ AUX)
    Blend: AUG-CC-PVTZ-JKFIT

    Orbital Energies [Eh]
    ---------------------

    Doubly Occupied:

       1A    -15.633015     2A    -15.580695     3A    -15.567053
       4A    -15.561095     5A    -15.552675     6A    -11.335718
       7A    -11.322442     8A    -11.313167     9A    -11.311546
      10A    -11.288721    11A    -11.252279    12A     -1.367779
      13A     -1.295976    14A     -1.241880    15A     -1.196724
      16A     -1.152191    17A     -1.031752    18A     -0.986112
      19A     -0.891962    20A     -0.871687    21A     -0.804972
      22A     -0.751150    23A     -0.726037    24A     -0.680654
      25A     -0.668999    26A     -0.666294    27A     -0.625609
      28A     -0.604611    29A     -0.596967    30A     -0.591658
      31A     -0.571574    32A     -0.536719    33A     -0.495703
      34A     -0.492537    35A     -0.450349    36A     -0.414675
      37A     -0.408540    38A     -0.368375    39A     -0.308180

  @DF-RHF Final Energy:  -503.72393149815861

   => Energetics <=

    Nuclear Repulsion Energy =            594.1651877341257659
    One-Electron Energy =               -1862.7420929737302231
    Two-Electron Energy =                 764.8529737414459078
    Total Energy =                       -503.7239314981585494
  Basis Set: (AUG-CC-PVTZ AUX)
    Blend: AUG-CC-PVTZ-RI
    Molecular point group: c1

    Geometry (in Angstrom), charge = 0, multiplicity = 1:

       Center              X                  Y                   Z               Mass
    ------------   -----------------  -----------------  -----------------  -----------------
         N           -1.823263990222    -0.162230346556    -0.002813721643    14.003074004430
         N           -0.305283990222    -1.850113346556    -0.010924721643    14.003074004430
         N           -0.301252990222     1.749333653444    -0.001648721643    14.003074004430
         N            2.019274009778     1.035726653444    -0.010576721643    14.003074004430
         N            2.692857009778    -1.197172346556     0.075917278357    14.003074004430
         C           -0.582735990222     0.435448653444     0.002098278357    12.000000000000
         C            0.332668009778    -0.626211346556     0.005508278357    12.000000000000
         C           -1.590890990222    -1.516199346556    -0.009009721643    12.000000000000
         C            1.691805009778    -0.265771346556    -0.001214721643    12.000000000000
         C           -3.099427990222     0.532396653444     0.000163278357    12.000000000000
         C            1.023923009778     1.950170653444    -0.011844721643    12.000000000000
         H           -2.412594990222    -2.224037346556    -0.015359721643     1.007825032230
         H           -3.179456990222     1.168886653444    -0.882804721643     1.007825032230
         H           -3.896575990222    -0.212234346556    -0.009401721643     1.007825032230
         H           -3.185156990222     1.151873653444     0.894693278357     1.007825032230
         H            1.348516009778     2.988740653444    -0.015601721643     1.007825032230
         H            3.609927209778    -0.909950846556    -0.246845721643     1.007825032230
         H            2.492481509778    -2.136246946556    -0.248489921643     1.007825032230

  Basis Set: AUG-CC-PVTZ
    Blend: AUG-CC-PVTZ
  Basis Set: (AUG-CC-PVTZ AUX)
    Blend: AUG-CC-PVTZ-JKFIT
	 Reference Energy          =    -503.7239314981586062 [Eh]
	 Singles Energy            =      -0.0000000000000000 [Eh]
	 Same-Spin Energy          =      -0.5492232846784409 [Eh]
	 Opposite-Spin Energy      =      -1.6331114444358019 [Eh]
	 Correlation Energy        =      -2.1823347291142428 [Eh]
	 Total Energy              =    -505.9062662272728517 [Eh]

	 ================> DF-SCS-MP2 Energies <==================
	-----------------------------------------------------------
	 SCS Same-Spin Scale       =       0.3333333333333333 [-]
	 SCS Opposite-Spin Scale   =       1.2000000000000000 [-]
	 SCS Same-Spin Energy      =      -0.1830744282261470 [Eh]
	 SCS Opposite-Spin Energy  =      -1.9597337333229623 [Eh]
	 SCS Correlation Energy    =      -2.1428081615491092 [Eh]
	 SCS Total Energy          =    -505.8667396597077186 [Eh]
	-----------------------------------------------------------

  Dipole Moment: [D]
     X:    -2.7244      Y:    -1.1738      Z:    -0.8506     Total:     3.0860

*** Psi4 exiting successfully. Buy a developer a beer!
