                               Psi4 1.3.2 release

  ==> Input File <==

--------------------------------------------------------------------------
#psi4
#
memory 32 gb

molecule  {
0 1
  N       -1.7893040    -0.1617730    -0.0001110
  N       -0.2713240    -1.8496560    -0.0082220
  N       -0.2216104     1.7391671     0.0011003
  N        2.0532340     1.0361840    -0.0078740
  N        2.7268170    -1.1967150     0.0786200
  C       -0.5487760     0.4359060     0.0048010
  C        0.4031219    -0.5931602     0.0081279
  C       -1.5569310    -1.5157420    -0.0063070
  C        1.7257650    -0.2653140     0.0014880
  C       -3.0654680     0.5328540     0.0028660
  C        1.0578830     1.9506280    -0.0091420
  H       -2.3786350    -2.2235800    -0.0126570
  H       -3.1454970     1.1693440    -0.8801020
  H       -3.8626160    -0.2117770    -0.0066990
  H       -3.1511970     1.1523310     0.8973960
  H        1.3824760     2.9891980    -0.0128990
  H        3.6364610    -0.8630510    -0.2195510
  H        2.4794860    -2.1327440    -0.2212610
units angstrom
no_reorient  #important for SAPT in psi4, default
symmetry c1  #important for SAPT in psi4, default
}

set PROPERTIES_ORIGIN ["COM"]
properties('MP2/aug-cc-pvtz', properties = ['dipole'])
--------------------------------------------------------------------------

    Molecular point group: c1
  Charge       = 0
  Multiplicity = 1
  Basis Set: AUG-CC-PVTZ
    Blend: AUG-CC-PVTZ
  Basis Set: (AUG-CC-PVTZ AUX)
    Blend: AUG-CC-PVTZ-JKFIT

    Orbital Energies [Eh]
    ---------------------

    Doubly Occupied:

       1A    -15.635601     2A    -15.577906     3A    -15.569050
       4A    -15.556058     5A    -15.547311     6A    -11.327596
       7A    -11.324760     8A    -11.318270     9A    -11.304253
      10A    -11.290918    11A    -11.250110    12A     -1.366379
      13A     -1.301170    14A     -1.245116    15A     -1.189897
      16A     -1.150444    17A     -1.039373    18A     -0.987283
      19A     -0.893397    20A     -0.875003    21A     -0.804963
      22A     -0.756073    23A     -0.720010    24A     -0.682242
      25A     -0.674365    26A     -0.667916    27A     -0.624323
      28A     -0.613133    29A     -0.599364    30A     -0.595348
      31A     -0.575771    32A     -0.536154    33A     -0.499288
      34A     -0.488074    35A     -0.441090    36A     -0.411116
      37A     -0.405892    38A     -0.364732    39A     -0.317465

  @DF-RHF Final Energy:  -503.72247937196198

   => Energetics <=

    Nuclear Repulsion Energy =            595.2202062457441798
    One-Electron Energy =               -1864.8309480407776846
    Two-Electron Energy =                 765.8882624230714100
    Total Energy =                       -503.7224793719619811
  Basis Set: (AUG-CC-PVTZ AUX)
    Blend: AUG-CC-PVTZ-RI
    Molecular point group: c1

    Geometry (in Angstrom), charge = 0, multiplicity = 1:

       Center              X                  Y                   Z               Mass
    ------------   -----------------  -----------------  -----------------  -----------------
         N           -1.830125299629    -0.164190723583    -0.003143456975    14.003074004430
         N           -0.312145299629    -1.852073723583    -0.011254456975    14.003074004430
         N           -0.262431699629     1.736749376417    -0.001932156975    14.003074004430
         N            2.012412700371     1.033766276417    -0.010906456975    14.003074004430
         N            2.685995700371    -1.199132723583     0.075587543025    14.003074004430
         C           -0.589597299629     0.433488276417     0.001768543025    12.000000000000
         C            0.362300600371    -0.595577923583     0.005095443025    12.000000000000
         C           -1.597752299629    -1.518159723583    -0.009339456975    12.000000000000
         C            1.684943700371    -0.267731723583    -0.001544456975    12.000000000000
         C           -3.106289299629     0.530436276417    -0.000166456975    12.000000000000
         C            1.017061700371     1.948210276417    -0.012174456975    12.000000000000
         H           -2.419456299629    -2.225997723583    -0.015689456975     1.007825032230
         H           -3.186318299629     1.166926276417    -0.883134456975     1.007825032230
         H           -3.903437299629    -0.214194723583    -0.009731456975     1.007825032230
         H           -3.192018299629     1.149913276417     0.894363543025     1.007825032230
         H            1.341654700371     2.986780276417    -0.015931456975     1.007825032230
         H            3.595639700371    -0.865468723583    -0.222583456975     1.007825032230
         H            2.438664700371    -2.135161723583    -0.224293456975     1.007825032230

  Basis Set: AUG-CC-PVTZ
    Blend: AUG-CC-PVTZ
  Basis Set: (AUG-CC-PVTZ AUX)
    Blend: AUG-CC-PVTZ-JKFIT
	 Reference Energy          =    -503.7224793719619811 [Eh]
	 Singles Energy            =      -0.0000000000000000 [Eh]
	 Same-Spin Energy          =      -0.5483698414556988 [Eh]
	 Opposite-Spin Energy      =      -1.6316901129584240 [Eh]
	 Correlation Energy        =      -2.1800599544141228 [Eh]
	 Total Energy              =    -505.9025393263760861 [Eh]

	 ================> DF-SCS-MP2 Energies <==================
	-----------------------------------------------------------
	 SCS Same-Spin Scale       =       0.3333333333333333 [-]
	 SCS Opposite-Spin Scale   =       1.2000000000000000 [-]
	 SCS Same-Spin Energy      =      -0.1827899471518996 [Eh]
	 SCS Opposite-Spin Energy  =      -1.9580281355501088 [Eh]
	 SCS Correlation Energy    =      -2.1408180827020082 [Eh]
	 SCS Total Energy          =    -505.8632974546640071 [Eh]
	-----------------------------------------------------------

  Dipole Moment: [D]
     X:    -2.9252      Y:    -1.0555      Z:    -0.7926     Total:     3.2092

*** Psi4 exiting successfully. Buy a developer a beer!
