                               Psi4 1.3.2 release

  ==> Input File <==

--------------------------------------------------------------------------
#psi4
#
memory 32 gb

molecule  {
0 1
  N       -1.7893040    -0.1617730    -0.0001110
  N       -0.2713240    -1.8496560    -0.0082220
  N       -0.2672930     1.7497910     0.0010540
  N        2.0532340     1.0361840    -0.0078740
  N        2.7268170    -1.1967150     0.0786200
  C       -0.5301081     0.4517197     0.0046426
  C        0.3666280    -0.6257540     0.0082110
  C       -1.5569310    -1.5157420    -0.0063070
  C        1.7192669    -0.2416489     0.0013656
  C       -3.0654680     0.5328540     0.0028660
  C        1.0578830     1.9506280    -0.0091420
  H       -2.3786350    -2.2235800    -0.0126570
  H       -3.1454970     1.1693440    -0.8801020
  H       -3.8626160    -0.2117770    -0.0066990
  H       -3.1511970     1.1523310     0.8973960
  H        1.3824760     2.9891980    -0.0128990
  H        3.6364610    -0.8630510    -0.2195510
  H        2.4794860    -2.1327440    -0.2212610
units angstrom
no_reorient  #important for SAPT in psi4, default
symmetry c1  #important for SAPT in psi4, default
}

set PROPERTIES_ORIGIN ["COM"]
properties('MP2/aug-cc-pvtz', properties = ['dipole'])
--------------------------------------------------------------------------

    Molecular point group: c1
  Charge       = 0
  Multiplicity = 1
  Basis Set: AUG-CC-PVTZ
    Blend: AUG-CC-PVTZ
  Basis Set: (AUG-CC-PVTZ AUX)
    Blend: AUG-CC-PVTZ-JKFIT

    Orbital Energies [Eh]
    ---------------------

    Doubly Occupied:

       1A    -15.631285     2A    -15.576653     3A    -15.566951
       4A    -15.564139     5A    -15.554946     6A    -11.332890
       7A    -11.323947     8A    -11.314552     9A    -11.313727
      10A    -11.287506    11A    -11.253383    12A     -1.364512
      13A     -1.301019    14A     -1.242207    15A     -1.193282
      16A     -1.157354    17A     -1.032191    18A     -0.983160
      19A     -0.891050    20A     -0.876370    21A     -0.801608
      22A     -0.753246    23A     -0.721207    24A     -0.679148
      25A     -0.672521    26A     -0.664346    27A     -0.624965
      28A     -0.605924    29A     -0.597575    30A     -0.591736
      31A     -0.567459    32A     -0.535892    33A     -0.496507
      34A     -0.495951    35A     -0.454401    36A     -0.414799
      37A     -0.408863    38A     -0.373157    39A     -0.308128

  @DF-RHF Final Energy:  -503.72334624242637

   => Energetics <=

    Nuclear Repulsion Energy =            594.4911289465281925
    One-Electron Energy =               -1863.3718338065525586
    Two-Electron Energy =                 765.1573586175978789
    Total Energy =                       -503.7233462424263735
  Basis Set: (AUG-CC-PVTZ AUX)
    Blend: AUG-CC-PVTZ-RI
    Molecular point group: c1

    Geometry (in Angstrom), charge = 0, multiplicity = 1:

       Center              X                  Y                   Z               Mass
    ------------   -----------------  -----------------  -----------------  -----------------
         N           -1.823875986415    -0.165742927463    -0.003123193076    14.003074004430
         N           -0.305895986415    -1.853625927463    -0.011234193076    14.003074004430
         N           -0.301864986415     1.745821072537    -0.001958193076    14.003074004430
         N            2.018662013585     1.032214072537    -0.010886193076    14.003074004430
         N            2.692245013585    -1.200684927463     0.075607806924    14.003074004430
         C           -0.564680086415     0.447749772537     0.001630406924    12.000000000000
         C            0.332056013585    -0.629723927463     0.005198806924    12.000000000000
         C           -1.591502986415    -1.519711927463    -0.009319193076    12.000000000000
         C            1.684694913585    -0.245618827463    -0.001646593076    12.000000000000
         C           -3.100039986415     0.528884072537    -0.000146193076    12.000000000000
         C            1.023311013585     1.946658072537    -0.012154193076    12.000000000000
         H           -2.413206986415    -2.227549927463    -0.015669193076     1.007825032230
         H           -3.180068986415     1.165374072537    -0.883114193076     1.007825032230
         H           -3.897187986415    -0.215746927463    -0.009711193076     1.007825032230
         H           -3.185768986415     1.148361072537     0.894383806924     1.007825032230
         H            1.347904013585     2.985228072537    -0.015911193076     1.007825032230
         H            3.601889013585    -0.867020927463    -0.222563193076     1.007825032230
         H            2.444914013585    -2.136713927463    -0.224273193076     1.007825032230

  Basis Set: AUG-CC-PVTZ
    Blend: AUG-CC-PVTZ
  Basis Set: (AUG-CC-PVTZ AUX)
    Blend: AUG-CC-PVTZ-JKFIT
	 Reference Energy          =    -503.7233462424263735 [Eh]
	 Singles Energy            =      -0.0000000000000000 [Eh]
	 Same-Spin Energy          =      -0.5492761160537368 [Eh]
	 Opposite-Spin Energy      =      -1.6330064142990879 [Eh]
	 Correlation Energy        =      -2.1822825303528246 [Eh]
	 Total Energy              =    -505.9056287727792096 [Eh]

	 ================> DF-SCS-MP2 Energies <==================
	-----------------------------------------------------------
	 SCS Same-Spin Scale       =       0.3333333333333333 [-]
	 SCS Opposite-Spin Scale   =       1.2000000000000000 [-]
	 SCS Same-Spin Energy      =      -0.1830920386845789 [Eh]
	 SCS Opposite-Spin Energy  =      -1.9596076971589054 [Eh]
	 SCS Correlation Energy    =      -2.1426997358434843 [Eh]
	 SCS Total Energy          =    -505.8660459782698808 [Eh]
	-----------------------------------------------------------

  Dipole Moment: [D]
     X:    -2.7965      Y:    -0.9548      Z:    -0.7956     Total:     3.0602

*** Psi4 exiting successfully. Buy a developer a beer!
