                               Psi4 1.3.2 release

  ==> Input File <==

--------------------------------------------------------------------------
#psi4
#
memory 32 gb

molecule  {
0 1
  N       -1.7832910    -0.1506107     0.0000149
  N       -0.2713240    -1.8496560    -0.0082220
  N       -0.2672930     1.7497910     0.0010540
  N        2.0532340     1.0361840    -0.0078740
  N        2.7268170    -1.1967150     0.0786200
  C       -0.5487760     0.4359060     0.0048010
  C        0.3666280    -0.6257540     0.0082110
  C       -1.5569310    -1.5157420    -0.0063070
  C        1.7257650    -0.2653140     0.0014880
  C       -3.0654680     0.5328540     0.0028660
  C        1.0578830     1.9506280    -0.0091420
  H       -2.3786350    -2.2235800    -0.0126570
  H       -3.1454970     1.1693440    -0.8801020
  H       -3.8690842    -0.2047924    -0.0066503
  H       -3.1511970     1.1523310     0.8973960
  H        1.3824760     2.9891980    -0.0128990
  H        3.6364610    -0.8630510    -0.2195510
  H        2.4794860    -2.1327440    -0.2212610
units angstrom
no_reorient  #important for SAPT in psi4, default
symmetry c1  #important for SAPT in psi4, default
}

set PROPERTIES_ORIGIN ["COM"]
properties('MP2/aug-cc-pvtz', properties = ['dipole'])
--------------------------------------------------------------------------

    Molecular point group: c1
  Charge       = 0
  Multiplicity = 1
  Basis Set: AUG-CC-PVTZ
    Blend: AUG-CC-PVTZ
  Basis Set: (AUG-CC-PVTZ AUX)
    Blend: AUG-CC-PVTZ-JKFIT

    Orbital Energies [Eh]
    ---------------------

    Doubly Occupied:

       1A    -15.632937     2A    -15.580985     3A    -15.568859
       4A    -15.559898     5A    -15.551866     6A    -11.334495
       7A    -11.322965     8A    -11.312532     9A    -11.311518
      10A    -11.288503    11A    -11.251478    12A     -1.367973
      13A     -1.295693    14A     -1.242373    15A     -1.197344
      16A     -1.151449    17A     -1.031778    18A     -0.985637
      19A     -0.890179    20A     -0.871764    21A     -0.803379
      22A     -0.753769    23A     -0.724466    24A     -0.679887
      25A     -0.673034    26A     -0.666512    27A     -0.624945
      28A     -0.604641    29A     -0.596552    30A     -0.591299
      31A     -0.574168    32A     -0.536369    33A     -0.495478
      34A     -0.492297    35A     -0.450814    36A     -0.414877
      37A     -0.408580    38A     -0.367063    39A     -0.308235

  @DF-RHF Final Energy:  -503.72480430530322

   => Energetics <=

    Nuclear Repulsion Energy =            594.4060346437404405
    One-Electron Energy =               -1863.2284989331287761
    Two-Electron Energy =                 765.0976599840851122
    Total Energy =                       -503.7248043053032234
  Basis Set: (AUG-CC-PVTZ AUX)
    Blend: AUG-CC-PVTZ-RI
    Molecular point group: c1

    Geometry (in Angstrom), charge = 0, multiplicity = 1:

       Center              X                  Y                   Z               Mass
    ------------   -----------------  -----------------  -----------------  -----------------
         N           -1.817404437658    -0.152498387376    -0.003032053008    14.003074004430
         N           -0.305437437658    -1.851543687376    -0.011268953008    14.003074004430
         N           -0.301406437658     1.747903312624    -0.001992953008    14.003074004430
         N            2.019120562342     1.034296312624    -0.010920953008    14.003074004430
         N            2.692703562342    -1.198602687376     0.075573046992    14.003074004430
         C           -0.582889437658     0.434018312624     0.001754046992    12.000000000000
         C            0.332514562342    -0.627641687376     0.005164046992    12.000000000000
         C           -1.591044437658    -1.517629687376    -0.009353953008    12.000000000000
         C            1.691651562342    -0.267201687376    -0.001558953008    12.000000000000
         C           -3.099581437658     0.530966312624    -0.000180953008    12.000000000000
         C            1.023769562342     1.948740312624    -0.012188953008    12.000000000000
         H           -2.412748437658    -2.225467687376    -0.015703953008     1.007825032230
         H           -3.179610437658     1.167456312624    -0.883148953008     1.007825032230
         H           -3.903197637658    -0.206680087376    -0.009697253008     1.007825032230
         H           -3.185310437658     1.150443312624     0.894349046992     1.007825032230
         H            1.348362562342     2.987310312624    -0.015945953008     1.007825032230
         H            3.602347562342    -0.864938687376    -0.222597953008     1.007825032230
         H            2.445372562342    -2.134631687376    -0.224307953008     1.007825032230

  Basis Set: AUG-CC-PVTZ
    Blend: AUG-CC-PVTZ
  Basis Set: (AUG-CC-PVTZ AUX)
    Blend: AUG-CC-PVTZ-JKFIT
	 Reference Energy          =    -503.7248043053032234 [Eh]
	 Singles Energy            =      -0.0000000000000000 [Eh]
	 Same-Spin Energy          =      -0.5491968188360995 [Eh]
	 Opposite-Spin Energy      =      -1.6330798589481601 [Eh]
	 Correlation Energy        =      -2.1822766777842597 [Eh]
	 Total Energy              =    -505.9070809830874964 [Eh]

	 ================> DF-SCS-MP2 Energies <==================
	-----------------------------------------------------------
	 SCS Same-Spin Scale       =       0.3333333333333333 [-]
	 SCS Opposite-Spin Scale   =       1.2000000000000000 [-]
	 SCS Same-Spin Energy      =      -0.1830656062786998 [Eh]
	 SCS Opposite-Spin Energy  =      -1.9596958307377921 [Eh]
	 SCS Correlation Energy    =      -2.1427614370164920 [Eh]
	 SCS Total Energy          =    -505.8675657423196981 [Eh]
	-----------------------------------------------------------

  Dipole Moment: [D]
     X:    -2.7491      Y:    -1.1880      Z:    -0.7891     Total:     3.0970

*** Psi4 exiting successfully. Buy a developer a beer!
