                               Psi4 1.3.2 release

  ==> Input File <==

--------------------------------------------------------------------------
#psi4
#
memory 32 gb

molecule  {
0 1
  N       -1.7893040    -0.1617730    -0.0001110
  N       -0.2713240    -1.8496560    -0.0082220
  N       -0.2549655     1.6807099     0.0010495
  N        2.0532340     1.0361840    -0.0078740
  N        2.7268170    -1.1967150     0.0786200
  C       -0.5487760     0.4359060     0.0048010
  C        0.3666280    -0.6257540     0.0082110
  C       -1.5569310    -1.5157420    -0.0063070
  C        1.7257650    -0.2653140     0.0014880
  C       -3.0654680     0.5328540     0.0028660
  C        1.0578830     1.9506280    -0.0091420
  H       -2.3786350    -2.2235800    -0.0126570
  H       -3.1454970     1.1693440    -0.8801020
  H       -3.8626160    -0.2117770    -0.0066990
  H       -3.1511970     1.1523310     0.8973960
  H        1.4363844     2.9707858    -0.0132799
  H        3.6364610    -0.8630510    -0.2195510
  H        2.4794860    -2.1327440    -0.2212610
units angstrom
no_reorient  #important for SAPT in psi4, default
symmetry c1  #important for SAPT in psi4, default
}

set PROPERTIES_ORIGIN ["COM"]
properties('MP2/aug-cc-pvtz', properties = ['dipole'])
--------------------------------------------------------------------------

    Molecular point group: c1
  Charge       = 0
  Multiplicity = 1
  Basis Set: AUG-CC-PVTZ
    Blend: AUG-CC-PVTZ
  Basis Set: (AUG-CC-PVTZ AUX)
    Blend: AUG-CC-PVTZ-JKFIT

    Orbital Energies [Eh]
    ---------------------

    Doubly Occupied:

       1A    -15.629488     2A    -15.577496     3A    -15.565027
       4A    -15.553802     5A    -15.552771     6A    -11.329795
       7A    -11.322376     8A    -11.313371     9A    -11.307028
      10A    -11.287815    11A    -11.248748    12A     -1.369653
      13A     -1.299576    14A     -1.248032    15A     -1.195196
      16A     -1.156661    17A     -1.028936    18A     -0.984687
      19A     -0.891969    20A     -0.878389    21A     -0.801728
      22A     -0.755714    23A     -0.723866    24A     -0.682372
      25A     -0.675910    26A     -0.667285    27A     -0.625075
      28A     -0.604470    29A     -0.599831    30A     -0.593720
      31A     -0.573010    32A     -0.535049    33A     -0.500149
      34A     -0.492240    35A     -0.450028    36A     -0.413228
      37A     -0.402387    38A     -0.371392    39A     -0.302021

  @DF-RHF Final Energy:  -503.72220037348728

   => Energetics <=

    Nuclear Repulsion Energy =            596.3135328249232998
    One-Electron Energy =               -1867.0508872101886482
    Two-Electron Energy =                 767.0151540117781224
    Total Energy =                       -503.7222003734873397
  Basis Set: (AUG-CC-PVTZ AUX)
    Blend: AUG-CC-PVTZ-RI
    Molecular point group: c1

    Geometry (in Angstrom), charge = 0, multiplicity = 1:

       Center              X                  Y                   Z               Mass
    ------------   -----------------  -----------------  -----------------  -----------------
         N           -1.824418788125    -0.155951230882    -0.003142799320    14.003074004430
         N           -0.306438788125    -1.843834230882    -0.011253799320    14.003074004430
         N           -0.290080288125     1.686531669118    -0.001982299320    14.003074004430
         N            2.018119211875     1.042005769118    -0.010905799320    14.003074004430
         N            2.691702211875    -1.190893230882     0.075588200680    14.003074004430
         C           -0.583890788125     0.441727769118     0.001769200680    12.000000000000
         C            0.331513211875    -0.619932230882     0.005179200680    12.000000000000
         C           -1.592045788125    -1.509920230882    -0.009338799320    12.000000000000
         C            1.690650211875    -0.259492230882    -0.001543799320    12.000000000000
         C           -3.100582788125     0.538675769118    -0.000165799320    12.000000000000
         C            1.022768211875     1.956449769118    -0.012173799320    12.000000000000
         H           -2.413749788125    -2.217758230882    -0.015688799320     1.007825032230
         H           -3.180611788125     1.175165769118    -0.883133799320     1.007825032230
         H           -3.897730788125    -0.205955230882    -0.009730799320     1.007825032230
         H           -3.186311788125     1.158152769118     0.894364200680     1.007825032230
         H            1.401269611875     2.976607569118    -0.016311699320     1.007825032230
         H            3.601346211875    -0.857229230882    -0.222582799320     1.007825032230
         H            2.444371211875    -2.126922230882    -0.224292799320     1.007825032230

  Basis Set: AUG-CC-PVTZ
    Blend: AUG-CC-PVTZ
  Basis Set: (AUG-CC-PVTZ AUX)
    Blend: AUG-CC-PVTZ-JKFIT
	 Reference Energy          =    -503.7222003734872828 [Eh]
	 Singles Energy            =      -0.0000000000000000 [Eh]
	 Same-Spin Energy          =      -0.5494073820124941 [Eh]
	 Opposite-Spin Energy      =      -1.6319986145705021 [Eh]
	 Correlation Energy        =      -2.1814059965829964 [Eh]
	 Total Energy              =    -505.9036063700702925 [Eh]

	 ================> DF-SCS-MP2 Energies <==================
	-----------------------------------------------------------
	 SCS Same-Spin Scale       =       0.3333333333333333 [-]
	 SCS Opposite-Spin Scale   =       1.2000000000000000 [-]
	 SCS Same-Spin Energy      =      -0.1831357940041647 [Eh]
	 SCS Opposite-Spin Energy  =      -1.9583983374846023 [Eh]
	 SCS Correlation Energy    =      -2.1415341314887670 [Eh]
	 SCS Total Energy          =    -505.8637345049760370 [Eh]
	-----------------------------------------------------------

  Dipole Moment: [D]
     X:    -2.7562      Y:    -0.9483      Z:    -0.7908     Total:     3.0201

*** Psi4 exiting successfully. Buy a developer a beer!
