                               Psi4 1.3.2 release

  ==> Input File <==

--------------------------------------------------------------------------
#psi4
#
memory 32 gb

molecule  {
0 1
  N       -1.7893040    -0.1617730    -0.0001110
  N       -0.2713240    -1.8496560    -0.0082220
  N       -0.2672930     1.7497910     0.0010540
  N        2.0532340     1.0361840    -0.0078740
  N        2.7268170    -1.1967150     0.0786200
  C       -0.5487760     0.4359060     0.0048010
  C        0.4089567    -0.6487630     0.0079976
  C       -1.5678012    -1.5608088    -0.0068899
  C        1.7257650    -0.2653140     0.0014880
  C       -3.0654680     0.5328540     0.0028660
  C        1.0578830     1.9506280    -0.0091420
  H       -2.3786350    -2.2235800    -0.0126570
  H       -3.1454970     1.1693440    -0.8801020
  H       -3.8626160    -0.2117770    -0.0066990
  H       -3.1511970     1.1523310     0.8973960
  H        1.3824760     2.9891980    -0.0128990
  H        3.6364610    -0.8630510    -0.2195510
  H        2.4794860    -2.1327440    -0.2212610
units angstrom
no_reorient  #important for SAPT in psi4, default
symmetry c1  #important for SAPT in psi4, default
}

set PROPERTIES_ORIGIN ["COM"]
properties('MP2/aug-cc-pvtz', properties = ['dipole'])
--------------------------------------------------------------------------

    Molecular point group: c1
  Charge       = 0
  Multiplicity = 1
  Basis Set: AUG-CC-PVTZ
    Blend: AUG-CC-PVTZ
  Basis Set: (AUG-CC-PVTZ AUX)
    Blend: AUG-CC-PVTZ-JKFIT

    Orbital Energies [Eh]
    ---------------------

    Doubly Occupied:

       1A    -15.632352     2A    -15.577263     3A    -15.572600
       4A    -15.561312     5A    -15.552364     6A    -11.329939
       7A    -11.325482     8A    -11.320911     9A    -11.313187
      10A    -11.287014    11A    -11.253617    12A     -1.356964
      13A     -1.294626    14A     -1.242648    15A     -1.193769
      16A     -1.150986    17A     -1.031576    18A     -0.982361
      19A     -0.894538    20A     -0.873700    21A     -0.799971
      22A     -0.752418    23A     -0.724308    24A     -0.677452
      25A     -0.676706    26A     -0.661114    27A     -0.633511
      28A     -0.605861    29A     -0.598851    30A     -0.591948
      31A     -0.571644    32A     -0.532879    33A     -0.496655
      34A     -0.490731    35A     -0.446980    36A     -0.415041
      37A     -0.407031    38A     -0.364460    39A     -0.309105

  @DF-RHF Final Energy:  -503.71713313495650

   => Energetics <=

    Nuclear Repulsion Energy =            592.9137487520634977
    One-Electron Energy =               -1860.2540196580412157
    Two-Electron Energy =                 763.6231377710213337
    Total Energy =                       -503.7171331349564980
  Basis Set: (AUG-CC-PVTZ AUX)
    Blend: AUG-CC-PVTZ-RI
    Molecular point group: c1

    Geometry (in Angstrom), charge = 0, multiplicity = 1:

       Center              X                  Y                   Z               Mass
    ------------   -----------------  -----------------  -----------------  -----------------
         N           -1.825428707784    -0.157084888002    -0.003081695834    14.003074004430
         N           -0.307448707784    -1.844967888002    -0.011192695834    14.003074004430
         N           -0.303417707784     1.754479111998    -0.001916695834    14.003074004430
         N            2.017109292216     1.040872111998    -0.010844695834    14.003074004430
         N            2.690692292216    -1.192026888002     0.075649304166    14.003074004430
         C           -0.584900707784     0.440594111998     0.001830304166    12.000000000000
         C            0.372831992216    -0.644074888002     0.005026904166    12.000000000000
         C           -1.603925907784    -1.556120688002    -0.009860595834    12.000000000000
         C            1.689640292216    -0.260625888002    -0.001482695834    12.000000000000
         C           -3.101592707784     0.537542111998    -0.000104695834    12.000000000000
         C            1.021758292216     1.955316111998    -0.012112695834    12.000000000000
         H           -2.414759707784    -2.218891888002    -0.015627695834     1.007825032230
         H           -3.181621707784     1.174032111998    -0.883072695834     1.007825032230
         H           -3.898740707784    -0.207088888002    -0.009669695834     1.007825032230
         H           -3.187321707784     1.157019111998     0.894425304166     1.007825032230
         H            1.346351292216     2.993886111998    -0.015869695834     1.007825032230
         H            3.600336292216    -0.858362888002    -0.222521695834     1.007825032230
         H            2.443361292216    -2.128055888002    -0.224231695834     1.007825032230

  Basis Set: AUG-CC-PVTZ
    Blend: AUG-CC-PVTZ
  Basis Set: (AUG-CC-PVTZ AUX)
    Blend: AUG-CC-PVTZ-JKFIT
	 Reference Energy          =    -503.7171331349564980 [Eh]
	 Singles Energy            =      -0.0000000000000000 [Eh]
	 Same-Spin Energy          =      -0.5494575531233258 [Eh]
	 Opposite-Spin Energy      =      -1.6339875406306028 [Eh]
	 Correlation Energy        =      -2.1834450937539285 [Eh]
	 Total Energy              =    -505.9005782287104012 [Eh]

	 ================> DF-SCS-MP2 Energies <==================
	-----------------------------------------------------------
	 SCS Same-Spin Scale       =       0.3333333333333333 [-]
	 SCS Opposite-Spin Scale   =       1.2000000000000000 [-]
	 SCS Same-Spin Energy      =      -0.1831525177077752 [Eh]
	 SCS Opposite-Spin Energy  =      -1.9607850487567233 [Eh]
	 SCS Correlation Energy    =      -2.1439375664644986 [Eh]
	 SCS Total Energy          =    -505.8610707014209993 [Eh]
	-----------------------------------------------------------

  Dipole Moment: [D]
     X:    -2.7866      Y:    -1.2216      Z:    -0.7922     Total:     3.1440

*** Psi4 exiting successfully. Buy a developer a beer!
