                               Psi4 1.3.2 release

  ==> Input File <==

--------------------------------------------------------------------------
#psi4
#
memory 32 gb

molecule  {
0 1
  N       -1.7893040    -0.1617730    -0.0001110
  N       -0.2713240    -1.8496560    -0.0082220
  N       -0.2672930     1.7497910     0.0010540
  N        2.0532340     1.0361840    -0.0078740
  N        2.7268170    -1.1967150     0.0786200
  C       -0.5487760     0.4359060     0.0048010
  C        0.3666280    -0.6257540     0.0082110
  C       -1.5569310    -1.5157420    -0.0063070
  C        1.6803618    -0.3147914     0.0266141
  C       -3.0654680     0.5328540     0.0028660
  C        1.0578830     1.9506280    -0.0091420
  H       -2.3786350    -2.2235800    -0.0126570
  H       -3.1454970     1.1693440    -0.8801020
  H       -3.8626160    -0.2117770    -0.0066990
  H       -3.1511970     1.1523310     0.8973960
  H        1.3824760     2.9891980    -0.0128990
  H        3.6561043    -0.9111536    -0.2087293
  H        2.4794860    -2.1327440    -0.2212610
units angstrom
no_reorient  #important for SAPT in psi4, default
symmetry c1  #important for SAPT in psi4, default
}

set PROPERTIES_ORIGIN ["COM"]
properties('MP2/aug-cc-pvtz', properties = ['dipole'])
--------------------------------------------------------------------------

    Molecular point group: c1
  Charge       = 0
  Multiplicity = 1
  Basis Set: AUG-CC-PVTZ
    Blend: AUG-CC-PVTZ
  Basis Set: (AUG-CC-PVTZ AUX)
    Blend: AUG-CC-PVTZ-JKFIT

    Orbital Energies [Eh]
    ---------------------

    Doubly Occupied:

       1A    -15.634962     2A    -15.580649     3A    -15.568036
       4A    -15.558015     5A    -15.552952     6A    -11.332457
       7A    -11.326024     8A    -11.319446     9A    -11.307813
      10A    -11.290169    11A    -11.248809    12A     -1.370531
      13A     -1.287752    14A     -1.241892    15A     -1.198187
      16A     -1.140085    17A     -1.039838    18A     -0.990377
      19A     -0.895437    20A     -0.867572    21A     -0.806013
      22A     -0.750818    23A     -0.724583    24A     -0.686138
      25A     -0.668953    26A     -0.664006    27A     -0.625143
      28A     -0.608575    29A     -0.596602    30A     -0.591935
      31A     -0.572354    32A     -0.532469    33A     -0.496515
      34A     -0.491899    35A     -0.447026    36A     -0.415375
      37A     -0.409997    38A     -0.363521    39A     -0.312426

  @DF-RHF Final Energy:  -503.71736417371204

   => Energetics <=

    Nuclear Repulsion Energy =            594.4928598673268425
    One-Electron Energy =               -1863.3897498585865833
    Two-Electron Energy =                 765.1795258175477557
    Total Energy =                       -503.7173641737119851
  Basis Set: (AUG-CC-PVTZ AUX)
    Blend: AUG-CC-PVTZ-RI
    Molecular point group: c1

    Geometry (in Angstrom), charge = 0, multiplicity = 1:

       Center              X                  Y                   Z               Mass
    ------------   -----------------  -----------------  -----------------  -----------------
         N           -1.819374219885    -0.158256831555    -0.005241586264    14.003074004430
         N           -0.301394219885    -1.846139831555    -0.013352586264    14.003074004430
         N           -0.297363219885     1.753307168445    -0.004076586264    14.003074004430
         N            2.023163780115     1.039700168445    -0.013004586264    14.003074004430
         N            2.696746780115    -1.193198831555     0.073489413736    14.003074004430
         C           -0.578846219885     0.439422168445    -0.000329586264    12.000000000000
         C            0.336557780115    -0.622237831555     0.003080413736    12.000000000000
         C           -1.587001219885    -1.512225831555    -0.011437586264    12.000000000000
         C            1.650291580115    -0.311275231555     0.021483513736    12.000000000000
         C           -3.095538219885     0.536370168445    -0.002264586264    12.000000000000
         C            1.027812780115     1.954144168445    -0.014272586264    12.000000000000
         H           -2.408705219885    -2.220063831555    -0.017787586264     1.007825032230
         H           -3.175567219885     1.172860168445    -0.885232586264     1.007825032230
         H           -3.892686219885    -0.208260831555    -0.011829586264     1.007825032230
         H           -3.181267219885     1.155847168445     0.892265413736     1.007825032230
         H            1.352405780115     2.992714168445    -0.018029586264     1.007825032230
         H            3.626034080115    -0.907637431555    -0.213859886264     1.007825032230
         H            2.449415780115    -2.129227831555    -0.226391586264     1.007825032230

  Basis Set: AUG-CC-PVTZ
    Blend: AUG-CC-PVTZ
  Basis Set: (AUG-CC-PVTZ AUX)
    Blend: AUG-CC-PVTZ-JKFIT
	 Reference Energy          =    -503.7173641737120420 [Eh]
	 Singles Energy            =      -0.0000000000000000 [Eh]
	 Same-Spin Energy          =      -0.5492453094226588 [Eh]
	 Opposite-Spin Energy      =      -1.6339402539164989 [Eh]
	 Correlation Energy        =      -2.1831855633391575 [Eh]
	 Total Energy              =    -505.9005497370512217 [Eh]

	 ================> DF-SCS-MP2 Energies <==================
	-----------------------------------------------------------
	 SCS Same-Spin Scale       =       0.3333333333333333 [-]
	 SCS Opposite-Spin Scale   =       1.2000000000000000 [-]
	 SCS Same-Spin Energy      =      -0.1830817698075529 [Eh]
	 SCS Opposite-Spin Energy  =      -1.9607283046997985 [Eh]
	 SCS Correlation Energy    =      -2.1438100745073516 [Eh]
	 SCS Total Energy          =    -505.8611742482194131 [Eh]
	-----------------------------------------------------------

  Dipole Moment: [D]
     X:    -2.8041      Y:    -1.3056      Z:    -0.7555     Total:     3.1841

*** Psi4 exiting successfully. Buy a developer a beer!
