                               Psi4 1.3.2 release

  ==> Input File <==

--------------------------------------------------------------------------
#psi4
#
memory 32 gb

molecule  {
0 1
  N       -1.7893040    -0.1617730    -0.0001110
  N       -0.2713240    -1.8496560    -0.0082220
  N       -0.2689958     1.7613628     0.0009680
  N        2.0611757     1.0449042    -0.0079981
  N        2.7268170    -1.1967150     0.0786200
  C       -0.5487760     0.4359060     0.0048010
  C        0.3666280    -0.6257540     0.0082110
  C       -1.5569310    -1.5157420    -0.0063070
  C        1.7257650    -0.2653140     0.0014880
  C       -3.0654680     0.5328540     0.0028660
  C        1.0578830     1.9506280    -0.0091420
  H       -2.3786350    -2.2235800    -0.0126570
  H       -3.1454970     1.1693440    -0.8801020
  H       -3.8626160    -0.2117770    -0.0066990
  H       -3.1511970     1.1523310     0.8973960
  H        1.3824760     2.9891980    -0.0128990
  H        3.6364610    -0.8630510    -0.2195510
  H        2.4794860    -2.1327440    -0.2212610
units angstrom
no_reorient  #important for SAPT in psi4, default
symmetry c1  #important for SAPT in psi4, default
}

set PROPERTIES_ORIGIN ["COM"]
properties('MP2/aug-cc-pvtz', properties = ['dipole'])
--------------------------------------------------------------------------

    Molecular point group: c1
  Charge       = 0
  Multiplicity = 1
  Basis Set: AUG-CC-PVTZ
    Blend: AUG-CC-PVTZ
  Basis Set: (AUG-CC-PVTZ AUX)
    Blend: AUG-CC-PVTZ-JKFIT

    Orbital Energies [Eh]
    ---------------------

    Doubly Occupied:

       1A    -15.633826     2A    -15.582310     3A    -15.568023
       4A    -15.561594     5A    -15.553531     6A    -11.336553
       7A    -11.322900     8A    -11.314568     9A    -11.310863
      10A    -11.289004    11A    -11.252669    12A     -1.367734
      13A     -1.294215    14A     -1.241358    15A     -1.197372
      16A     -1.150281    17A     -1.031851    18A     -0.986525
      19A     -0.890791    20A     -0.870043    21A     -0.802939
      22A     -0.752850    23A     -0.724228    24A     -0.680915
      25A     -0.672159    26A     -0.666400    27A     -0.624015
      28A     -0.606559    29A     -0.595945    30A     -0.590553
      31A     -0.571544    32A     -0.536612    33A     -0.495178
      34A     -0.492277    35A     -0.450920    36A     -0.414832
      37A     -0.410092    38A     -0.367828    39A     -0.308765

  @DF-RHF Final Energy:  -503.72366912036171

   => Energetics <=

    Nuclear Repulsion Energy =            593.6885050223207827
    One-Electron Energy =               -1861.7831071183777567
    Two-Electron Energy =                 764.3709329756951547
    Total Energy =                       -503.7236691203617056
  Basis Set: (AUG-CC-PVTZ AUX)
    Blend: AUG-CC-PVTZ-RI
    Molecular point group: c1

    Geometry (in Angstrom), charge = 0, multiplicity = 1:

       Center              X                  Y                   Z               Mass
    ------------   -----------------  -----------------  -----------------  -----------------
         N           -1.823482387673    -0.164471075061    -0.003126061217    14.003074004430
         N           -0.305502387673    -1.852354075061    -0.011237061217    14.003074004430
         N           -0.303174187673     1.758664724939    -0.002047061217    14.003074004430
         N            2.026997312327     1.042206124939    -0.011013161217    14.003074004430
         N            2.692638612327    -1.199413075061     0.075604938783    14.003074004430
         C           -0.582954387673     0.433207924939     0.001785938783    12.000000000000
         C            0.332449612327    -0.628452075061     0.005195938783    12.000000000000
         C           -1.591109387673    -1.518440075061    -0.009322061217    12.000000000000
         C            1.691586612327    -0.268012075061    -0.001527061217    12.000000000000
         C           -3.099646387673     0.530155924939    -0.000149061217    12.000000000000
         C            1.023704612327     1.947929924939    -0.012157061217    12.000000000000
         H           -2.412813387673    -2.226278075061    -0.015672061217     1.007825032230
         H           -3.179675387673     1.166645924939    -0.883117061217     1.007825032230
         H           -3.896794387673    -0.214475075061    -0.009714061217     1.007825032230
         H           -3.185375387673     1.149632924939     0.894380938783     1.007825032230
         H            1.348297612327     2.986499924939    -0.015914061217     1.007825032230
         H            3.602282612327    -0.865749075061    -0.222566061217     1.007825032230
         H            2.445307612327    -2.135442075061    -0.224276061217     1.007825032230

  Basis Set: AUG-CC-PVTZ
    Blend: AUG-CC-PVTZ
  Basis Set: (AUG-CC-PVTZ AUX)
    Blend: AUG-CC-PVTZ-JKFIT
	 Reference Energy          =    -503.7236691203617056 [Eh]
	 Singles Energy            =      -0.0000000000000000 [Eh]
	 Same-Spin Energy          =      -0.5492576685256793 [Eh]
	 Opposite-Spin Energy      =      -1.6335491965877711 [Eh]
	 Correlation Energy        =      -2.1828068651134505 [Eh]
	 Total Energy              =    -505.9064759854751401 [Eh]

	 ================> DF-SCS-MP2 Energies <==================
	-----------------------------------------------------------
	 SCS Same-Spin Scale       =       0.3333333333333333 [-]
	 SCS Opposite-Spin Scale   =       1.2000000000000000 [-]
	 SCS Same-Spin Energy      =      -0.1830858895085598 [Eh]
	 SCS Opposite-Spin Energy  =      -1.9602590359053251 [Eh]
	 SCS Correlation Energy    =      -2.1433449254138850 [Eh]
	 SCS Total Energy          =    -505.8670140457755906 [Eh]
	-----------------------------------------------------------

  Dipole Moment: [D]
     X:    -2.7355      Y:    -1.2326      Z:    -0.7871     Total:     3.1019

*** Psi4 exiting successfully. Buy a developer a beer!
