                               Psi4 1.4a3.dev225

  ==> Input File <==

--------------------------------------------------------------------------
#psi4
#
memory 32 gb

molecule  {
0 1
  N       -1.7889380    -0.1640290    -0.0179520
  N       -0.2703210    -1.8482040    -0.0023970
  N       -0.2671710     1.7490810    -0.0033560
  N        2.0541740     1.0368940    -0.0085470
  N        2.7206340    -1.1973270     0.0732090
  C       -0.5486140     0.4351420     0.0045870
  C        0.3650590    -0.6247560     0.0169900
  C       -1.5569260    -1.5161270    -0.0162740
  C        1.7630433    -0.2983364     0.0073114
  C       -3.0641060     0.5324820     0.0177850
  C        1.0564750     1.9508360    -0.0110870
  H       -2.3762040    -2.2259510    -0.0342240
  H       -2.9284720     1.5041700    -0.4579320
  H       -3.8067760    -0.0485880    -0.5312030
  H       -3.3972360     0.6796990     1.0480130
  H        1.3812150     2.9891510    -0.0228070
  H        3.6427950    -0.8729100    -0.1905990
  H        2.4748820    -2.1409930    -0.1987870
units angstrom
no_reorient  #important for SAPT in psi4, default
symmetry c1  #important for SAPT in psi4, default
}

set PROPERTIES_ORIGIN ["COM"]
properties('MP2/aug-cc-pvtz', properties = ['dipole'])
--------------------------------------------------------------------------

    Molecular point group: c1
  Charge       = 0
  Multiplicity = 1
  Basis Set: AUG-CC-PVTZ
    Blend: AUG-CC-PVTZ
  Basis Set: (AUG-CC-PVTZ AUX)
    Blend: AUG-CC-PVTZ-JKFIT

    Orbital Energies [Eh]
    ---------------------

    Doubly Occupied:

       1A    -15.629626     2A    -15.591470     3A    -15.564753
       4A    -15.554654     5A    -15.548564     6A    -11.338693
       7A    -11.317092     8A    -11.309420     9A    -11.308904
      10A    -11.285068    11A    -11.250168    12A     -1.364358
      13A     -1.298136    14A     -1.251531    15A     -1.197453
      16A     -1.147886    17A     -1.024979    18A     -0.982549
      19A     -0.888226    20A     -0.866060    21A     -0.804840
      22A     -0.757046    23A     -0.731046    24A     -0.683515
      25A     -0.677148    26A     -0.663584    27A     -0.627385
      28A     -0.601360    29A     -0.593770    30A     -0.591354
      31A     -0.568961    32A     -0.540308    33A     -0.498869
      34A     -0.487050    35A     -0.444374    36A     -0.412580
      37A     -0.404163    38A     -0.364015    39A     -0.301285

  @DF-RHF Final Energy:  -503.72069248374044

   => Energetics <=

    Nuclear Repulsion Energy =            594.1130312426785167
    One-Electron Energy =               -1862.7229643930793372
    Two-Electron Energy =                 764.8892406666603847
    Total Energy =                       -503.7206924837404358
  Basis Set: (AUG-CC-PVTZ AUX)
    Blend: AUG-CC-PVTZ-RI
    Molecular point group: c1

    Geometry (in Angstrom), charge = 0, multiplicity = 1:

       Center              X                  Y                   Z               Mass
    ------------   -----------------  -----------------  -----------------  -----------------
         N           -1.825263154850    -0.162037118376    -0.020733919855    14.003074004430
         N           -0.306646154850    -1.846212118376    -0.005178919855    14.003074004430
         N           -0.303496154850     1.751072881624    -0.006137919855    14.003074004430
         N            2.017848845150     1.038885881624    -0.011328919855    14.003074004430
         N            2.684308845150    -1.195335118376     0.070427080145    14.003074004430
         C           -0.584939154850     0.437133881624     0.001805080145    12.000000000000
         C            0.328733845150    -0.622764118376     0.014208080145    12.000000000000
         C           -1.593251154850    -1.514135118376    -0.019055919855    12.000000000000
         C            1.726718145150    -0.296344518376     0.004529480145    12.000000000000
         C           -3.100431154850     0.534473881624     0.015003080145    12.000000000000
         C            1.020149845150     1.952827881624    -0.013868919855    12.000000000000
         H           -2.412529154850    -2.223959118376    -0.037005919855     1.007825032230
         H           -2.964797154850     1.506161881624    -0.460713919855     1.007825032230
         H           -3.843101154850    -0.046596118376    -0.533984919855     1.007825032230
         H           -3.433561154850     0.681690881624     1.045231080145     1.007825032230
         H            1.344889845150     2.991142881624    -0.025588919855     1.007825032230
         H            3.606469845150    -0.870918118376    -0.193380919855     1.007825032230
         H            2.438556845150    -2.139001118376    -0.201568919855     1.007825032230

  Basis Set: AUG-CC-PVTZ
    Blend: AUG-CC-PVTZ
  Basis Set: (AUG-CC-PVTZ AUX)
    Blend: AUG-CC-PVTZ-JKFIT
	 Reference Energy          =    -503.7206924837404358 [Eh]
	 Singles Energy            =      -0.0000000000000000 [Eh]
	 Same-Spin Energy          =      -0.5495418819409488 [Eh]
	 Opposite-Spin Energy      =      -1.6331323642579865 [Eh]
	 Correlation Energy        =      -2.1826742461989355 [Eh]
	 Total Energy              =    -505.9033667299393642 [Eh]

	 ================> DF-SCS-MP2 Energies <==================
	-----------------------------------------------------------
	 SCS Same-Spin Scale       =       0.3333333333333333 [-]
	 SCS Opposite-Spin Scale   =       1.2000000000000000 [-]
	 SCS Same-Spin Energy      =      -0.1831806273136496 [Eh]
	 SCS Opposite-Spin Energy  =      -1.9597588371095838 [Eh]
	 SCS Correlation Energy    =      -2.1429394644232334 [Eh]
	 SCS Total Energy          =    -505.8636319481636860 [Eh]
	-----------------------------------------------------------

  Dipole Moment: [D]
     X:    -2.2311      Y:    -1.5178      Z:    -0.6974     Total:     2.7871

*** Psi4 exiting successfully. Buy a developer a beer!
