                               Psi4 1.3.2 release

  ==> Input File <==

--------------------------------------------------------------------------
#psi4
#
memory 32 gb

molecule  {
0 1
  N       -1.7893040    -0.1617730    -0.0001110
  N       -0.2713240    -1.8496560    -0.0082220
  N       -0.2672930     1.7497910     0.0010540
  N        2.0532340     1.0361840    -0.0078740
  N        2.7268170    -1.1967150     0.0786200
  C       -0.5487760     0.4359060     0.0048010
  C        0.3666280    -0.6257540     0.0082110
  C       -1.5569310    -1.5157420    -0.0063070
  C        1.7257650    -0.2653140     0.0014880
  C       -3.0654680     0.5328540     0.0028660
  C        1.0578830     1.9506280    -0.0091420
  H       -2.3786350    -2.2235800    -0.0126570
  H       -3.1454970     1.1693440    -0.8801020
  H       -3.8626160    -0.2117770    -0.0066990
  H       -3.1511970     1.1523310     0.8973960
  H        1.3824760     2.9891980    -0.0128990
  H        3.6301235    -0.8325896    -0.2026980
  H        2.4485511    -2.1292875    -0.2044493
units angstrom
no_reorient  #important for SAPT in psi4, default
symmetry c1  #important for SAPT in psi4, default
}

set PROPERTIES_ORIGIN ["COM"]
properties('MP2/aug-cc-pvtz', properties = ['dipole'])
--------------------------------------------------------------------------

    Molecular point group: c1
  Charge       = 0
  Multiplicity = 1
  Basis Set: AUG-CC-PVTZ
    Blend: AUG-CC-PVTZ
  Basis Set: (AUG-CC-PVTZ AUX)
    Blend: AUG-CC-PVTZ-JKFIT

    Orbital Energies [Eh]
    ---------------------

    Doubly Occupied:

       1A    -15.633139     2A    -15.581150     3A    -15.567565
       4A    -15.560466     5A    -15.552208     6A    -11.333753
       7A    -11.322601     8A    -11.312943     9A    -11.311632
      10A    -11.288744    11A    -11.251632    12A     -1.367815
      13A     -1.296367    14A     -1.242590    15A     -1.196965
      16A     -1.151767    17A     -1.031159    18A     -0.986035
      19A     -0.890016    20A     -0.872432    21A     -0.801465
      22A     -0.755302    23A     -0.722884    24A     -0.682430
      25A     -0.673987    26A     -0.666417    27A     -0.623943
      28A     -0.607219    29A     -0.596603    30A     -0.591231
      31A     -0.571941    32A     -0.536862    33A     -0.495508
      34A     -0.492746    35A     -0.450656    36A     -0.413919
      37A     -0.408613    38A     -0.368426    39A     -0.307522

  @DF-RHF Final Energy:  -503.72441790756830

   => Energetics <=

    Nuclear Repulsion Energy =            594.4432655429550323
    One-Electron Energy =               -1863.2980610876495575
    Two-Electron Energy =                 765.1303776371262302
    Total Energy =                       -503.7244179075682950
  Basis Set: (AUG-CC-PVTZ AUX)
    Blend: AUG-CC-PVTZ-RI
    Molecular point group: c1

    Geometry (in Angstrom), charge = 0, multiplicity = 1:

       Center              X                  Y                   Z               Mass
    ------------   -----------------  -----------------  -----------------  -----------------
         N           -1.822644340351    -0.162794233138    -0.003373395606    14.003074004430
         N           -0.304664340351    -1.850677233138    -0.011484395606    14.003074004430
         N           -0.300633340351     1.748769766862    -0.002208395606    14.003074004430
         N            2.019893659649     1.035162766862    -0.011136395606    14.003074004430
         N            2.693476659649    -1.197736233138     0.075357604394    14.003074004430
         C           -0.582116340351     0.434884766862     0.001538604394    12.000000000000
         C            0.333287659649    -0.626775233138     0.004948604394    12.000000000000
         C           -1.590271340351    -1.516763233138    -0.009569395606    12.000000000000
         C            1.692424659649    -0.266335233138    -0.001774395606    12.000000000000
         C           -3.098808340351     0.531832766862    -0.000396395606    12.000000000000
         C            1.024542659649     1.949606766862    -0.012404395606    12.000000000000
         H           -2.411975340351    -2.224601233138    -0.015919395606     1.007825032230
         H           -3.178837340351     1.168322766862    -0.883364395606     1.007825032230
         H           -3.895956340351    -0.212798233138    -0.009961395606     1.007825032230
         H           -3.184537340351     1.151309766862     0.894133604394     1.007825032230
         H            1.349135659649     2.988176766862    -0.016161395606     1.007825032230
         H            3.596783159649    -0.833610833138    -0.205960395606     1.007825032230
         H            2.415210759649    -2.130308733138    -0.207711695606     1.007825032230

  Basis Set: AUG-CC-PVTZ
    Blend: AUG-CC-PVTZ
  Basis Set: (AUG-CC-PVTZ AUX)
    Blend: AUG-CC-PVTZ-JKFIT
	 Reference Energy          =    -503.7244179075682950 [Eh]
	 Singles Energy            =      -0.0000000000000000 [Eh]
	 Same-Spin Energy          =      -0.5493571817881492 [Eh]
	 Opposite-Spin Energy      =      -1.6332110616587281 [Eh]
	 Correlation Energy        =      -2.1825682434468772 [Eh]
	 Total Energy              =    -505.9069861510151895 [Eh]

	 ================> DF-SCS-MP2 Energies <==================
	-----------------------------------------------------------
	 SCS Same-Spin Scale       =       0.3333333333333333 [-]
	 SCS Opposite-Spin Scale   =       1.2000000000000000 [-]
	 SCS Same-Spin Energy      =      -0.1831190605960497 [Eh]
	 SCS Opposite-Spin Energy  =      -1.9598532739904737 [Eh]
	 SCS Correlation Energy    =      -2.1429723345865233 [Eh]
	 SCS Total Energy          =    -505.8673902421548405 [Eh]
	-----------------------------------------------------------

  Dipole Moment: [D]
     X:    -2.7433      Y:    -1.1453      Z:    -0.7464     Total:     3.0651

*** Psi4 exiting successfully. Buy a developer a beer!
