                               Psi4 1.3.2 release

  ==> Input File <==

--------------------------------------------------------------------------
#psi4
#
memory 32 gb

molecule  {
0 1
  N       -1.7893040    -0.1617730    -0.0001110
  N       -0.2713240    -1.8496560    -0.0082220
  N       -0.2672930     1.7497910     0.0010540
  N        2.0532340     1.0361840    -0.0078740
  N        2.7268170    -1.1967150     0.0786200
  C       -0.5487760     0.4359060     0.0048010
  C        0.3666280    -0.6257540     0.0082110
  C       -1.5569310    -1.5157420    -0.0063070
  C        1.7257650    -0.2653140     0.0014880
  C       -3.0654680     0.5328540     0.0028660
  C        1.0578830     1.9506280    -0.0091420
  H       -2.3786350    -2.2235800    -0.0126570
  H       -3.1454970     1.1693440    -0.8801020
  H       -3.8626160    -0.2117770    -0.0066990
  H       -3.1511970     1.1523310     0.8973960
  H        1.3228147     2.7983052    -0.0122085
  H        3.6364610    -0.8630510    -0.2195510
  H        2.4794860    -2.1327440    -0.2212610
units angstrom
no_reorient  #important for SAPT in psi4, default
symmetry c1  #important for SAPT in psi4, default
}

set PROPERTIES_ORIGIN ["COM"]
properties('MP2/aug-cc-pvtz', properties = ['dipole'])
--------------------------------------------------------------------------

    Molecular point group: c1
  Charge       = 0
  Multiplicity = 1
  Basis Set: AUG-CC-PVTZ
    Blend: AUG-CC-PVTZ
  Basis Set: (AUG-CC-PVTZ AUX)
    Blend: AUG-CC-PVTZ-JKFIT

    Orbital Energies [Eh]
    ---------------------

    Doubly Occupied:

       1A    -15.632665     2A    -15.580401     3A    -15.567081
       4A    -15.559712     5A    -15.551236     6A    -11.333396
       7A    -11.322360     8A    -11.312040     9A    -11.288532
      10A    -11.288351    11A    -11.251728    12A     -1.367437
      13A     -1.296513    14A     -1.242451    15A     -1.196658
      16A     -1.151060    17A     -1.037067    18A     -0.985952
      19A     -0.905542    20A     -0.881155    21A     -0.804355
      22A     -0.754051    23A     -0.739204    24A     -0.683900
      25A     -0.675465    26A     -0.666147    27A     -0.630374
      28A     -0.609624    29A     -0.603582    30A     -0.592778
      31A     -0.573930    32A     -0.536371    33A     -0.497674
      34A     -0.495025    35A     -0.452519    36A     -0.413735
      37A     -0.407895    38A     -0.367627    39A     -0.307501

  @DF-RHF Final Energy:  -503.69042243402419

   => Energetics <=

    Nuclear Repulsion Energy =            595.6021184227512322
    One-Electron Energy =               -1865.4588956175043677
    Two-Electron Energy =                 766.1663547607290639
    Total Energy =                       -503.6904224340241853
  Basis Set: (AUG-CC-PVTZ AUX)
    Blend: AUG-CC-PVTZ-RI
    Molecular point group: c1

    Geometry (in Angstrom), charge = 0, multiplicity = 1:

       Center              X                  Y                   Z               Mass
    ------------   -----------------  -----------------  -----------------  -----------------
         N           -1.822492974738    -0.161274345634    -0.003150465494    14.003074004430
         N           -0.304512974738    -1.849157345634    -0.011261465494    14.003074004430
         N           -0.300481974738     1.750289654366    -0.001985465494    14.003074004430
         N            2.020045025262     1.036682654366    -0.010913465494    14.003074004430
         N            2.693628025262    -1.196216345634     0.075580534506    14.003074004430
         C           -0.581964974738     0.436404654366     0.001761534506    12.000000000000
         C            0.333439025262    -0.625255345634     0.005171534506    12.000000000000
         C           -1.590119974738    -1.515243345634    -0.009346465494    12.000000000000
         C            1.692576025262    -0.264815345634    -0.001551465494    12.000000000000
         C           -3.098656974738     0.533352654366    -0.000173465494    12.000000000000
         C            1.024694025262     1.951126654366    -0.012181465494    12.000000000000
         H           -2.411823974738    -2.223081345634    -0.015696465494     1.007825032230
         H           -3.178685974738     1.169842654366    -0.883141465494     1.007825032230
         H           -3.895804974738    -0.211278345634    -0.009738465494     1.007825032230
         H           -3.184385974738     1.152829654366     0.894356534506     1.007825032230
         H            1.289625725262     2.798803854366    -0.015247965494     1.007825032230
         H            3.603272025262    -0.862552345634    -0.222590465494     1.007825032230
         H            2.446297025262    -2.132245345634    -0.224300465494     1.007825032230

  Basis Set: AUG-CC-PVTZ
    Blend: AUG-CC-PVTZ
  Basis Set: (AUG-CC-PVTZ AUX)
    Blend: AUG-CC-PVTZ-JKFIT
	 Reference Energy          =    -503.6904224340241853 [Eh]
	 Singles Energy            =      -0.0000000000000000 [Eh]
	 Same-Spin Energy          =      -0.5490126702501459 [Eh]
	 Opposite-Spin Energy      =      -1.6325957196778331 [Eh]
	 Correlation Energy        =      -2.1816083899279790 [Eh]
	 Total Energy              =    -505.8720308239521728 [Eh]

	 ================> DF-SCS-MP2 Energies <==================
	-----------------------------------------------------------
	 SCS Same-Spin Scale       =       0.3333333333333333 [-]
	 SCS Opposite-Spin Scale   =       1.2000000000000000 [-]
	 SCS Same-Spin Energy      =      -0.1830042234167153 [Eh]
	 SCS Opposite-Spin Energy  =      -1.9591148636133997 [Eh]
	 SCS Correlation Energy    =      -2.1421190870301148 [Eh]
	 SCS Total Energy          =    -505.8325415210542815 [Eh]
	-----------------------------------------------------------

  Dipole Moment: [D]
     X:    -2.7354      Y:    -1.1285      Z:    -0.7899     Total:     3.0627

*** Psi4 exiting successfully. Buy a developer a beer!
