                               Psi4 1.3.2 release

  ==> Input File <==

--------------------------------------------------------------------------
#psi4
#
memory 32 gb

molecule  {
0 1
  N       -1.7893040    -0.1617730    -0.0001110
  N       -0.2713240    -1.8496560    -0.0082220
  N       -0.2672930     1.7497910     0.0010540
  N        2.0532340     1.0361840    -0.0078740
  N        2.7268170    -1.1967150     0.0786200
  C       -0.5487760     0.4359060     0.0048010
  C        0.3666280    -0.6257540     0.0082110
  C       -1.5569310    -1.5157420    -0.0063070
  C        1.7988605    -0.3333237     0.0071201
  C       -3.0654680     0.5328540     0.0028660
  C        1.0578830     1.9506280    -0.0091420
  H       -2.3786350    -2.2235800    -0.0126570
  H       -3.1454970     1.1693440    -0.8801020
  H       -3.8626160    -0.2117770    -0.0066990
  H       -3.1511970     1.1523310     0.8973960
  H        1.3824760     2.9891980    -0.0128990
  H        3.6364610    -0.8630510    -0.2195510
  H        2.4794860    -2.1327440    -0.2212610
units angstrom
no_reorient  #important for SAPT in psi4, default
symmetry c1  #important for SAPT in psi4, default
}

set PROPERTIES_ORIGIN ["COM"]
properties('MP2/aug-cc-pvtz', properties = ['dipole'])
--------------------------------------------------------------------------

    Molecular point group: c1
  Charge       = 0
  Multiplicity = 1
  Basis Set: AUG-CC-PVTZ
    Blend: AUG-CC-PVTZ
  Basis Set: (AUG-CC-PVTZ AUX)
    Blend: AUG-CC-PVTZ-JKFIT

    Orbital Energies [Eh]
    ---------------------

    Doubly Occupied:

       1A    -15.628095     2A    -15.601080     3A    -15.562280
       4A    -15.549980     5A    -15.546302     6A    -11.342520
       7A    -11.314889     8A    -11.306796     9A    -11.306622
      10A    -11.284747    11A    -11.250851    12A     -1.361476
      13A     -1.310818    14A     -1.254927    15A     -1.197075
      16A     -1.142422    17A     -1.019907    18A     -0.980381
      19A     -0.886729    20A     -0.860939    21A     -0.807728
      22A     -0.761817    23A     -0.738039    24A     -0.682503
      25A     -0.679348    26A     -0.661233    27A     -0.628417
      28A     -0.597574    29A     -0.595082    30A     -0.588400
      31A     -0.566905    32A     -0.546058    33A     -0.500376
      34A     -0.484468    35A     -0.438688    36A     -0.411044
      37A     -0.398717    38A     -0.361339    39A     -0.296441

  @DF-RHF Final Energy:  -503.70826667247297

   => Energetics <=

    Nuclear Repulsion Energy =            593.3911891380159886
    One-Electron Energy =               -1861.2928927044692955
    Two-Electron Energy =                 764.1934368939803335
    Total Energy =                       -503.7082666724729734
  Basis Set: (AUG-CC-PVTZ AUX)
    Blend: AUG-CC-PVTZ-RI
    Molecular point group: c1

    Geometry (in Angstrom), charge = 0, multiplicity = 1:

       Center              X                  Y                   Z               Mass
    ------------   -----------------  -----------------  -----------------  -----------------
         N           -1.828780445311    -0.157090208987    -0.003599175708    14.003074004430
         N           -0.310800445311    -1.844973208987    -0.011710175708    14.003074004430
         N           -0.306769445311     1.754473791013    -0.002434175708    14.003074004430
         N            2.013757554689     1.040866791013    -0.011362175708    14.003074004430
         N            2.687340554689    -1.192032208987     0.075131824292    14.003074004430
         C           -0.588252445311     0.440588791013     0.001312824292    12.000000000000
         C            0.327151554689    -0.621071208987     0.004722824292    12.000000000000
         C           -1.596407445311    -1.511059208987    -0.009795175708    12.000000000000
         C            1.759384054689    -0.328640908987     0.003631924292    12.000000000000
         C           -3.104944445311     0.537536791013    -0.000622175708    12.000000000000
         C            1.018406554689     1.955310791013    -0.012630175708    12.000000000000
         H           -2.418111445311    -2.218897208987    -0.016145175708     1.007825032230
         H           -3.184973445311     1.174026791013    -0.883590175708     1.007825032230
         H           -3.902092445311    -0.207094208987    -0.010187175708     1.007825032230
         H           -3.190673445311     1.157013791013     0.893907824292     1.007825032230
         H            1.342999554689     2.993880791013    -0.016387175708     1.007825032230
         H            3.596984554689    -0.858368208987    -0.223039175708     1.007825032230
         H            2.440009554689    -2.128061208987    -0.224749175708     1.007825032230

  Basis Set: AUG-CC-PVTZ
    Blend: AUG-CC-PVTZ
  Basis Set: (AUG-CC-PVTZ AUX)
    Blend: AUG-CC-PVTZ-JKFIT
	 Reference Energy          =    -503.7082666724729734 [Eh]
	 Singles Energy            =      -0.0000000000000000 [Eh]
	 Same-Spin Energy          =      -0.5498352157013995 [Eh]
	 Opposite-Spin Energy      =      -1.6338136549803055 [Eh]
	 Correlation Energy        =      -2.1836488706817052 [Eh]
	 Total Energy              =    -505.8919155431546528 [Eh]

	 ================> DF-SCS-MP2 Energies <==================
	-----------------------------------------------------------
	 SCS Same-Spin Scale       =       0.3333333333333333 [-]
	 SCS Opposite-Spin Scale   =       1.2000000000000000 [-]
	 SCS Same-Spin Energy      =      -0.1832784052337998 [Eh]
	 SCS Opposite-Spin Energy  =      -1.9605763859763665 [Eh]
	 SCS Correlation Energy    =      -2.1438547912101664 [Eh]
	 SCS Total Energy          =    -505.8521214636831473 [Eh]
	-----------------------------------------------------------

  Dipole Moment: [D]
     X:    -1.9129      Y:    -1.7898      Z:    -0.7542     Total:     2.7261

*** Psi4 exiting successfully. Buy a developer a beer!
