                               Psi4 1.3.2 release

  ==> Input File <==

--------------------------------------------------------------------------
#psi4
#
memory 32 gb

molecule  {
0 1
  N       -1.7893040    -0.1617730    -0.0001110
  N       -0.3345056    -1.8146067    -0.0069473
  N       -0.2672930     1.7497910     0.0010540
  N        2.0532340     1.0361840    -0.0078740
  N        2.7268170    -1.1967150     0.0786200
  C       -0.5487760     0.4359060     0.0048010
  C        0.3666280    -0.6257540     0.0082110
  C       -1.5569310    -1.5157420    -0.0063070
  C        1.7050491    -0.1946885     0.0030042
  C       -3.0654680     0.5328540     0.0028660
  C        1.0578830     1.9506280    -0.0091420
  H       -2.3786350    -2.2235800    -0.0126570
  H       -3.1454970     1.1693440    -0.8801020
  H       -3.8626160    -0.2117770    -0.0066990
  H       -3.1511970     1.1523310     0.8973960
  H        1.3824760     2.9891980    -0.0128990
  H        3.6364610    -0.8630510    -0.2195510
  H        2.4794860    -2.1327440    -0.2212610
units angstrom
no_reorient  #important for SAPT in psi4, default
symmetry c1  #important for SAPT in psi4, default
}

set PROPERTIES_ORIGIN ["COM"]
properties('MP2/aug-cc-pvtz', properties = ['dipole'])
--------------------------------------------------------------------------

    Molecular point group: c1
  Charge       = 0
  Multiplicity = 1
  Basis Set: AUG-CC-PVTZ
    Blend: AUG-CC-PVTZ
  Basis Set: (AUG-CC-PVTZ AUX)
    Blend: AUG-CC-PVTZ-JKFIT

    Orbital Energies [Eh]
    ---------------------

    Doubly Occupied:

       1A    -15.625976     2A    -15.569665     3A    -15.567546
       4A    -15.559718     5A    -15.555659     6A    -11.333457
       7A    -11.318371     8A    -11.313070     9A    -11.312970
      10A    -11.286282    11A    -11.253940    12A     -1.377238
      13A     -1.310787    14A     -1.238016    15A     -1.197943
      16A     -1.156509    17A     -1.039962    18A     -0.981441
      19A     -0.896965    20A     -0.880067    21A     -0.798501
      22A     -0.754311    23A     -0.724233    24A     -0.677758
      25A     -0.671645    26A     -0.668157    27A     -0.631766
      28A     -0.603794    29A     -0.600008    30A     -0.589738
      31A     -0.571836    32A     -0.543878    33A     -0.495562
      34A     -0.490433    35A     -0.454359    36A     -0.415837
      37A     -0.407628    38A     -0.373600    39A     -0.318181

  @DF-RHF Final Energy:  -503.71956521238405

   => Energetics <=

    Nuclear Repulsion Energy =            596.3691568445518669
    One-Electron Energy =               -1867.0438291465898146
    Two-Electron Energy =                 766.9551070896537794
    Total Energy =                       -503.7195652123840546
  Basis Set: (AUG-CC-PVTZ AUX)
    Blend: AUG-CC-PVTZ-RI
    Molecular point group: c1

    Geometry (in Angstrom), charge = 0, multiplicity = 1:

       Center              X                  Y                   Z               Mass
    ------------   -----------------  -----------------  -----------------  -----------------
         N           -1.815293684316    -0.171542602108    -0.003387590206    14.003074004430
         N           -0.360495284316    -1.824376302108    -0.010223890206    14.003074004430
         N           -0.293282684316     1.740021397892    -0.002222590206    14.003074004430
         N            2.027244315684     1.026414397892    -0.011150590206    14.003074004430
         N            2.700827315684    -1.206484602108     0.075343409794    14.003074004430
         C           -0.574765684316     0.426136397892     0.001524409794    12.000000000000
         C            0.340638315684    -0.635523602108     0.004934409794    12.000000000000
         C           -1.582920684316    -1.525511602108    -0.009583590206    12.000000000000
         C            1.679059415684    -0.204458102108    -0.000272390206    12.000000000000
         C           -3.091457684316     0.523084397892    -0.000410590206    12.000000000000
         C            1.031893315684     1.940858397892    -0.012418590206    12.000000000000
         H           -2.404624684316    -2.233349602108    -0.015933590206     1.007825032230
         H           -3.171486684316     1.159574397892    -0.883378590206     1.007825032230
         H           -3.888605684316    -0.221546602108    -0.009975590206     1.007825032230
         H           -3.177186684316     1.142561397892     0.894119409794     1.007825032230
         H            1.356486315684     2.979428397892    -0.016175590206     1.007825032230
         H            3.610471315684    -0.872820602108    -0.222827590206     1.007825032230
         H            2.453496315684    -2.142513602108    -0.224537590206     1.007825032230

  Basis Set: AUG-CC-PVTZ
    Blend: AUG-CC-PVTZ
  Basis Set: (AUG-CC-PVTZ AUX)
    Blend: AUG-CC-PVTZ-JKFIT
	 Reference Energy          =    -503.7195652123840546 [Eh]
	 Singles Energy            =      -0.0000000000000000 [Eh]
	 Same-Spin Energy          =      -0.5471674232365134 [Eh]
	 Opposite-Spin Energy      =      -1.6288920633825081 [Eh]
	 Correlation Energy        =      -2.1760594866190215 [Eh]
	 Total Energy              =    -505.8956246990030650 [Eh]

	 ================> DF-SCS-MP2 Energies <==================
	-----------------------------------------------------------
	 SCS Same-Spin Scale       =       0.3333333333333333 [-]
	 SCS Opposite-Spin Scale   =       1.2000000000000000 [-]
	 SCS Same-Spin Energy      =      -0.1823891410788378 [Eh]
	 SCS Opposite-Spin Energy  =      -1.9546704760590097 [Eh]
	 SCS Correlation Energy    =      -2.1370596171378473 [Eh]
	 SCS Total Energy          =    -505.8566248295218770 [Eh]
	-----------------------------------------------------------

  Dipole Moment: [D]
     X:    -2.9680      Y:    -0.8333      Z:    -0.8102     Total:     3.1874

*** Psi4 exiting successfully. Buy a developer a beer!
