                               Psi4 1.4a3.dev225

  ==> Input File <==

--------------------------------------------------------------------------
#psi4
#
memory 32 gb

molecule  {
0 1
  N       -1.7889380    -0.1640290    -0.0179520
  N       -0.2703210    -1.8482040    -0.0023970
  N       -0.2671710     1.7490810    -0.0033560
  N        2.0541740     1.0368940    -0.0085470
  N        2.7206340    -1.1973270     0.0732090
  C       -0.5486140     0.4351420     0.0045870
  C        0.3650590    -0.6247560     0.0169900
  C       -1.5484699    -1.5654067    -0.0162128
  C        1.7266360    -0.2641570     0.0048060
  C       -3.0641060     0.5324820     0.0177850
  C        1.0564750     1.9508360    -0.0110870
  H       -2.3762040    -2.2259510    -0.0342240
  H       -2.9284720     1.5041700    -0.4579320
  H       -3.8067760    -0.0485880    -0.5312030
  H       -3.3972360     0.6796990     1.0480130
  H        1.3812150     2.9891510    -0.0228070
  H        3.6427950    -0.8729100    -0.1905990
  H        2.4748820    -2.1409930    -0.1987870
units angstrom
no_reorient  #important for SAPT in psi4, default
symmetry c1  #important for SAPT in psi4, default
}

set PROPERTIES_ORIGIN ["COM"]
properties('MP2/aug-cc-pvtz', properties = ['dipole'])
--------------------------------------------------------------------------

    Molecular point group: c1
  Charge       = 0
  Multiplicity = 1
  Basis Set: AUG-CC-PVTZ
    Blend: AUG-CC-PVTZ
  Basis Set: (AUG-CC-PVTZ AUX)
    Blend: AUG-CC-PVTZ-JKFIT

    Orbital Energies [Eh]
    ---------------------

    Doubly Occupied:

       1A    -15.626658     2A    -15.581923     3A    -15.570905
       4A    -15.558998     5A    -15.551176     6A    -11.335836
       7A    -11.321441     8A    -11.313561     9A    -11.312811
      10A    -11.283221    11A    -11.250540    12A     -1.359449
      13A     -1.294382    14A     -1.244069    15A     -1.196456
      16A     -1.150939    17A     -1.033045    18A     -0.978088
      19A     -0.890482    20A     -0.869596    21A     -0.804292
      22A     -0.753383    23A     -0.723651    24A     -0.678109
      25A     -0.675528    26A     -0.660167    27A     -0.632984
      28A     -0.603574    29A     -0.596490    30A     -0.592550
      31A     -0.569678    32A     -0.534425    33A     -0.496514
      34A     -0.488776    35A     -0.450645    36A     -0.414796
      37A     -0.407813    38A     -0.363906    39A     -0.310918

  @DF-RHF Final Energy:  -503.72358226980577

   => Energetics <=

    Nuclear Repulsion Energy =            593.8268623124647547
    One-Electron Energy =               -1862.1373421502601104
    Two-Electron Energy =                 764.5868975679895811
    Total Energy =                       -503.7235822698057746
  Basis Set: (AUG-CC-PVTZ AUX)
    Blend: AUG-CC-PVTZ-RI
    Molecular point group: c1

    Geometry (in Angstrom), charge = 0, multiplicity = 1:

       Center              X                  Y                   Z               Mass
    ------------   -----------------  -----------------  -----------------  -----------------
         N           -1.823013110755    -0.160821559085    -0.020537164160    14.003074004430
         N           -0.304396110755    -1.844996559085    -0.004982164160    14.003074004430
         N           -0.301246110755     1.752288440915    -0.005941164160    14.003074004430
         N            2.020098889245     1.040101440915    -0.011132164160    14.003074004430
         N            2.686558889245    -1.194119559085     0.070623835840    14.003074004430
         C           -0.582689110755     0.438349440915     0.002001835840    12.000000000000
         C            0.330983889245    -0.621548559085     0.014404835840    12.000000000000
         C           -1.582545010755    -1.562199259085    -0.018797964160    12.000000000000
         C            1.692560889245    -0.260949559085     0.002220835840    12.000000000000
         C           -3.098181110755     0.535689440915     0.015199835840    12.000000000000
         C            1.022399889245     1.954043440915    -0.013672164160    12.000000000000
         H           -2.410279110755    -2.222743559085    -0.036809164160     1.007825032230
         H           -2.962547110755     1.507377440915    -0.460517164160     1.007825032230
         H           -3.840851110755    -0.045380559085    -0.533788164160     1.007825032230
         H           -3.431311110755     0.682906440915     1.045427835840     1.007825032230
         H            1.347139889245     2.992358440915    -0.025392164160     1.007825032230
         H            3.608719889245    -0.869702559085    -0.193184164160     1.007825032230
         H            2.440806889245    -2.137785559085    -0.201372164160     1.007825032230

  Basis Set: AUG-CC-PVTZ
    Blend: AUG-CC-PVTZ
  Basis Set: (AUG-CC-PVTZ AUX)
    Blend: AUG-CC-PVTZ-JKFIT
	 Reference Energy          =    -503.7235822698057746 [Eh]
	 Singles Energy            =      -0.0000000000000000 [Eh]
	 Same-Spin Energy          =      -0.5485193026489086 [Eh]
	 Opposite-Spin Energy      =      -1.6322055365114159 [Eh]
	 Correlation Energy        =      -2.1807248391603244 [Eh]
	 Total Energy              =    -505.9043071089661225 [Eh]

	 ================> DF-SCS-MP2 Energies <==================
	-----------------------------------------------------------
	 SCS Same-Spin Scale       =       0.3333333333333333 [-]
	 SCS Opposite-Spin Scale   =       1.2000000000000000 [-]
	 SCS Same-Spin Energy      =      -0.1828397675496362 [Eh]
	 SCS Opposite-Spin Energy  =      -1.9586466438136989 [Eh]
	 SCS Correlation Energy    =      -2.1414864113633350 [Eh]
	 SCS Total Energy          =    -505.8650686811691344 [Eh]
	-----------------------------------------------------------

  Dipole Moment: [D]
     X:    -2.5330      Y:    -1.3595      Z:    -0.7132     Total:     2.9619

*** Psi4 exiting successfully. Buy a developer a beer!
