                               Psi4 1.3.2 release

  ==> Input File <==

--------------------------------------------------------------------------
#psi4
#
memory 32 gb

molecule  {
0 1
  N       -1.7786842    -0.1833323    -0.0000728
  N       -0.2713240    -1.8496560    -0.0082220
  N       -0.2672930     1.7497910     0.0010540
  N        2.0532340     1.0361840    -0.0078740
  N        2.7268170    -1.1967150     0.0786200
  C       -0.5487760     0.4359060     0.0048010
  C        0.3479602    -0.6415684     0.0081361
  C       -1.5569310    -1.5157420    -0.0063070
  C        1.7257650    -0.2653140     0.0014880
  C       -3.0654680     0.5328540     0.0028660
  C        1.0578830     1.9506280    -0.0091420
  H       -2.3786350    -2.2235800    -0.0126570
  H       -3.1454970     1.1693440    -0.8801020
  H       -3.8626160    -0.2117770    -0.0066990
  H       -3.1511970     1.1523310     0.8973960
  H        1.3824760     2.9891980    -0.0128990
  H        3.6364610    -0.8630510    -0.2195510
  H        2.4794860    -2.1327440    -0.2212610
units angstrom
no_reorient  #important for SAPT in psi4, default
symmetry c1  #important for SAPT in psi4, default
}

set PROPERTIES_ORIGIN ["COM"]
properties('MP2/aug-cc-pvtz', properties = ['dipole'])
--------------------------------------------------------------------------

    Molecular point group: c1
  Charge       = 0
  Multiplicity = 1
  Basis Set: AUG-CC-PVTZ
    Blend: AUG-CC-PVTZ
  Basis Set: (AUG-CC-PVTZ AUX)
    Blend: AUG-CC-PVTZ-JKFIT

    Orbital Energies [Eh]
    ---------------------

    Doubly Occupied:

       1A    -15.633909     2A    -15.581443     3A    -15.563380
       4A    -15.560921     5A    -15.552509     6A    -11.336470
       7A    -11.318955     8A    -11.311207     9A    -11.309519
      10A    -11.290800    11A    -11.252113    12A     -1.372984
      13A     -1.295920    14A     -1.242384    15A     -1.197641
      16A     -1.151759    17A     -1.029337    18A     -0.986434
      19A     -0.891993    20A     -0.870868    21A     -0.801722
      22A     -0.753221    23A     -0.726409    24A     -0.681179
      25A     -0.673658    26A     -0.666583    27A     -0.623141
      28A     -0.604734    29A     -0.595960    30A     -0.590365
      31A     -0.569576    32A     -0.539567    33A     -0.495627
      34A     -0.492257    35A     -0.452972    36A     -0.414758
      37A     -0.407350    38A     -0.370359    39A     -0.303485

  @DF-RHF Final Energy:  -503.72320535346739

   => Energetics <=

    Nuclear Repulsion Energy =            594.5587878772959129
    One-Electron Energy =               -1863.5370486796464320
    Two-Electron Energy =                 765.2550554488832404
    Total Energy =                       -503.7232053534673923
  Basis Set: (AUG-CC-PVTZ AUX)
    Blend: AUG-CC-PVTZ-RI
    Molecular point group: c1

    Geometry (in Angstrom), charge = 0, multiplicity = 1:

       Center              X                  Y                   Z               Mass
    ------------   -----------------  -----------------  -----------------  -----------------
         N           -1.811771372978    -0.180825981856    -0.003105156184    14.003074004430
         N           -0.304411172978    -1.847149681856    -0.011254356184    14.003074004430
         N           -0.300380172978     1.752297318144    -0.001978356184    14.003074004430
         N            2.020146827022     1.038690318144    -0.010906356184    14.003074004430
         N            2.693729827022    -1.194208681856     0.075587643816    14.003074004430
         C           -0.581863172978     0.438412318144     0.001768643816    12.000000000000
         C            0.314873027022    -0.639062081856     0.005103743816    12.000000000000
         C           -1.590018172978    -1.513235681856    -0.009339356184    12.000000000000
         C            1.692677827022    -0.262807681856    -0.001544356184    12.000000000000
         C           -3.098555172978     0.535360318144    -0.000166356184    12.000000000000
         C            1.024795827022     1.953134318144    -0.012174356184    12.000000000000
         H           -2.411722172978    -2.221073681856    -0.015689356184     1.007825032230
         H           -3.178584172978     1.171850318144    -0.883134356184     1.007825032230
         H           -3.895703172978    -0.209270681856    -0.009731356184     1.007825032230
         H           -3.184284172978     1.154837318144     0.894363643816     1.007825032230
         H            1.349388827022     2.991704318144    -0.015931356184     1.007825032230
         H            3.603373827022    -0.860544681856    -0.222583356184     1.007825032230
         H            2.446398827022    -2.130237681856    -0.224293356184     1.007825032230

  Basis Set: AUG-CC-PVTZ
    Blend: AUG-CC-PVTZ
  Basis Set: (AUG-CC-PVTZ AUX)
    Blend: AUG-CC-PVTZ-JKFIT
	 Reference Energy          =    -503.7232053534673923 [Eh]
	 Singles Energy            =      -0.0000000000000000 [Eh]
	 Same-Spin Energy          =      -0.5496130842927176 [Eh]
	 Opposite-Spin Energy      =      -1.6330843136538711 [Eh]
	 Correlation Energy        =      -2.1826973979465887 [Eh]
	 Total Energy              =    -505.9059027514139757 [Eh]

	 ================> DF-SCS-MP2 Energies <==================
	-----------------------------------------------------------
	 SCS Same-Spin Scale       =       0.3333333333333333 [-]
	 SCS Opposite-Spin Scale   =       1.2000000000000000 [-]
	 SCS Same-Spin Energy      =      -0.1832043614309058 [Eh]
	 SCS Opposite-Spin Energy  =      -1.9597011763846452 [Eh]
	 SCS Correlation Energy    =      -2.1429055378155510 [Eh]
	 SCS Total Energy          =    -505.8661108912829150 [Eh]
	-----------------------------------------------------------

  Dipole Moment: [D]
     X:    -2.7785      Y:    -1.1403      Z:    -0.7871     Total:     3.1048

*** Psi4 exiting successfully. Buy a developer a beer!
