                               Psi4 1.3.2 release

  ==> Input File <==

--------------------------------------------------------------------------
#psi4
#
memory 32 gb

molecule  {
0 1
  N       -1.7893040    -0.1617730    -0.0001110
  N       -0.2713240    -1.8496560    -0.0082220
  N       -0.2672930     1.7497910     0.0010540
  N        2.0532340     1.0361840    -0.0078740
  N        2.7349331    -1.1879562     0.0781268
  C       -0.5487760     0.4359060     0.0048010
  C        0.3635380    -0.6139093     0.0073578
  C       -1.5569310    -1.5157420    -0.0063070
  C        1.7257650    -0.2653140     0.0014880
  C       -3.0654680     0.5328540     0.0028660
  C        1.0578830     1.9506280    -0.0091420
  H       -2.3786350    -2.2235800    -0.0126570
  H       -3.1454970     1.1693440    -0.8801020
  H       -3.8626160    -0.2117770    -0.0066990
  H       -3.1511970     1.1523310     0.8973960
  H        1.3824760     2.9891980    -0.0128990
  H        3.6364610    -0.8630510    -0.2195510
  H        2.4794860    -2.1327440    -0.2212610
units angstrom
no_reorient  #important for SAPT in psi4, default
symmetry c1  #important for SAPT in psi4, default
}

set PROPERTIES_ORIGIN ["COM"]
properties('MP2/aug-cc-pvtz', properties = ['dipole'])
--------------------------------------------------------------------------

    Molecular point group: c1
  Charge       = 0
  Multiplicity = 1
  Basis Set: AUG-CC-PVTZ
    Blend: AUG-CC-PVTZ
  Basis Set: (AUG-CC-PVTZ AUX)
    Blend: AUG-CC-PVTZ-JKFIT

    Orbital Energies [Eh]
    ---------------------

    Doubly Occupied:

       1A    -15.632459     2A    -15.581579     3A    -15.567471
       4A    -15.560419     5A    -15.551915     6A    -11.334884
       7A    -11.322593     8A    -11.312281     9A    -11.311383
      10A    -11.288542    11A    -11.251460    12A     -1.367699
      13A     -1.296498    14A     -1.241912    15A     -1.195514
      16A     -1.151623    17A     -1.032943    18A     -0.985521
      19A     -0.890627    20A     -0.871780    21A     -0.804209
      22A     -0.753340    23A     -0.723555    24A     -0.682057
      25A     -0.671267    26A     -0.666392    27A     -0.624011
      28A     -0.608107    29A     -0.596408    30A     -0.591506
      31A     -0.571841    32A     -0.536759    33A     -0.495213
      34A     -0.492377    35A     -0.449915    36A     -0.413629
      37A     -0.408827    38A     -0.368336    39A     -0.309556

  @DF-RHF Final Energy:  -503.72494258163863

   => Energetics <=

    Nuclear Repulsion Energy =            594.3931887321032264
    One-Electron Energy =               -1863.2034435990594829
    Two-Electron Energy =                 765.0853122853176274
    Total Energy =                       -503.7249425816386292
  Basis Set: (AUG-CC-PVTZ AUX)
    Blend: AUG-CC-PVTZ-RI
    Molecular point group: c1

    Geometry (in Angstrom), charge = 0, multiplicity = 1:

       Center              X                  Y                   Z               Mass
    ------------   -----------------  -----------------  -----------------  -----------------
         N           -1.823409982636    -0.164341177468    -0.003030786136    14.003074004430
         N           -0.305429982636    -1.852224177468    -0.011141786136    14.003074004430
         N           -0.301398982636     1.747222822532    -0.001865786136    14.003074004430
         N            2.019128017364     1.033615822532    -0.010793786136    14.003074004430
         N            2.700827117364    -1.190524377468     0.075207013864    14.003074004430
         C           -0.582881982636     0.433337822532     0.001881213864    12.000000000000
         C            0.329432017364    -0.616477477468     0.004438013864    12.000000000000
         C           -1.591036982636    -1.518310177468    -0.009226786136    12.000000000000
         C            1.691659017364    -0.267882177468    -0.001431786136    12.000000000000
         C           -3.099573982636     0.530285822532    -0.000053786136    12.000000000000
         C            1.023777017364     1.948059822532    -0.012061786136    12.000000000000
         H           -2.412740982636    -2.226148177468    -0.015576786136     1.007825032230
         H           -3.179602982636     1.166775822532    -0.883021786136     1.007825032230
         H           -3.896721982636    -0.214345177468    -0.009618786136     1.007825032230
         H           -3.185302982636     1.149762822532     0.894476213864     1.007825032230
         H            1.348370017364     2.986629822532    -0.015818786136     1.007825032230
         H            3.602355017364    -0.865619177468    -0.222470786136     1.007825032230
         H            2.445380017364    -2.135312177468    -0.224180786136     1.007825032230

  Basis Set: AUG-CC-PVTZ
    Blend: AUG-CC-PVTZ
  Basis Set: (AUG-CC-PVTZ AUX)
    Blend: AUG-CC-PVTZ-JKFIT
	 Reference Energy          =    -503.7249425816386292 [Eh]
	 Singles Energy            =      -0.0000000000000000 [Eh]
	 Same-Spin Energy          =      -0.5490225048235475 [Eh]
	 Opposite-Spin Energy      =      -1.6329492804441437 [Eh]
	 Correlation Energy        =      -2.1819717852676912 [Eh]
	 Total Energy              =    -505.9069143669063351 [Eh]

	 ================> DF-SCS-MP2 Energies <==================
	-----------------------------------------------------------
	 SCS Same-Spin Scale       =       0.3333333333333333 [-]
	 SCS Opposite-Spin Scale   =       1.2000000000000000 [-]
	 SCS Same-Spin Energy      =      -0.1830075016078492 [Eh]
	 SCS Opposite-Spin Energy  =      -1.9595391365329724 [Eh]
	 SCS Correlation Energy    =      -2.1425466381408214 [Eh]
	 SCS Total Energy          =    -505.8674892197794293 [Eh]
	-----------------------------------------------------------

  Dipole Moment: [D]
     X:    -2.7157      Y:    -1.1636      Z:    -0.7884     Total:     3.0578

*** Psi4 exiting successfully. Buy a developer a beer!
