                               Psi4 1.3.2 release

  ==> Input File <==

--------------------------------------------------------------------------
#psi4
#
memory 32 gb

molecule  {
0 1
  N       -1.7893040    -0.1617730    -0.0001110
  N       -0.2282206    -1.8711641    -0.0090470
  N       -0.2672930     1.7497910     0.0010540
  N        2.0532340     1.0361840    -0.0078740
  N        2.7268170    -1.1967150     0.0786200
  C       -0.5487760     0.4359060     0.0048010
  C        0.3666280    -0.6257540     0.0082110
  C       -1.5569310    -1.5157420    -0.0063070
  C        1.7375091    -0.3129586     0.0004872
  C       -3.0654680     0.5328540     0.0028660
  C        1.0578830     1.9506280    -0.0091420
  H       -2.3786350    -2.2235800    -0.0126570
  H       -3.1454970     1.1693440    -0.8801020
  H       -3.8626160    -0.2117770    -0.0066990
  H       -3.1511970     1.1523310     0.8973960
  H        1.3824760     2.9891980    -0.0128990
  H        3.6364610    -0.8630510    -0.2195510
  H        2.4794860    -2.1327440    -0.2212610
units angstrom
no_reorient  #important for SAPT in psi4, default
symmetry c1  #important for SAPT in psi4, default
}

set PROPERTIES_ORIGIN ["COM"]
properties('MP2/aug-cc-pvtz', properties = ['dipole'])
--------------------------------------------------------------------------

    Molecular point group: c1
  Charge       = 0
  Multiplicity = 1
  Basis Set: AUG-CC-PVTZ
    Blend: AUG-CC-PVTZ
  Basis Set: (AUG-CC-PVTZ AUX)
    Blend: AUG-CC-PVTZ-JKFIT

    Orbital Energies [Eh]
    ---------------------

    Doubly Occupied:

       1A    -15.637600     2A    -15.588474     3A    -15.571867
       4A    -15.556022     5A    -15.550036     6A    -11.335337
       7A    -11.328039     8A    -11.312963     9A    -11.307322
      10A    -11.290156    11A    -11.251034    12A     -1.363211
      13A     -1.293402    14A     -1.248214    15A     -1.194176
      16A     -1.144199    17A     -1.025495    18A     -0.989059
      19A     -0.890022    20A     -0.863860    21A     -0.807127
      22A     -0.755065    23A     -0.727232    24A     -0.683824
      25A     -0.670806    26A     -0.665620    27A     -0.626047
      28A     -0.602543    29A     -0.593726    30A     -0.589779
      31A     -0.571037    32A     -0.536257    33A     -0.497571
      34A     -0.491797    35A     -0.447008    36A     -0.412855
      37A     -0.406496    38A     -0.364661    39A     -0.300367

  @DF-RHF Final Energy:  -503.71304971066297

   => Energetics <=

    Nuclear Repulsion Energy =            593.1399283932445314
    One-Electron Energy =               -1860.7253439425867327
    Two-Electron Energy =                 763.8723658386791158
    Total Energy =                       -503.7130497106629718
  Basis Set: (AUG-CC-PVTZ AUX)
    Blend: AUG-CC-PVTZ-RI
    Molecular point group: c1

    Geometry (in Angstrom), charge = 0, multiplicity = 1:

       Center              X                  Y                   Z               Mass
    ------------   -----------------  -----------------  -----------------  -----------------
         N           -1.827890684992    -0.156709191609    -0.002987736470    14.003074004430
         N           -0.266807284992    -1.866100291609    -0.011923736470    14.003074004430
         N           -0.305879684992     1.754854808391    -0.001822736470    14.003074004430
         N            2.014647315008     1.041247808391    -0.010750736470    14.003074004430
         N            2.688230315008    -1.191651191609     0.075743263530    14.003074004430
         C           -0.587362684992     0.440969808391     0.001924263530    12.000000000000
         C            0.328041315008    -0.620690191609     0.005334263530    12.000000000000
         C           -1.595517684992    -1.510678191609    -0.009183736470    12.000000000000
         C            1.698922415008    -0.307894791609    -0.002389536470    12.000000000000
         C           -3.104054684992     0.537917808391    -0.000010736470    12.000000000000
         C            1.019296315008     1.955691808391    -0.012018736470    12.000000000000
         H           -2.417221684992    -2.218516191609    -0.015533736470     1.007825032230
         H           -3.184083684992     1.174407808391    -0.882978736470     1.007825032230
         H           -3.901202684992    -0.206713191609    -0.009575736470     1.007825032230
         H           -3.189783684992     1.157394808391     0.894519263530     1.007825032230
         H            1.343889315008     2.994261808391    -0.015775736470     1.007825032230
         H            3.597874315008    -0.857987191609    -0.222427736470     1.007825032230
         H            2.440899315008    -2.127680191609    -0.224137736470     1.007825032230

  Basis Set: AUG-CC-PVTZ
    Blend: AUG-CC-PVTZ
  Basis Set: (AUG-CC-PVTZ AUX)
    Blend: AUG-CC-PVTZ-JKFIT
	 Reference Energy          =    -503.7130497106629718 [Eh]
	 Singles Energy            =      -0.0000000000000000 [Eh]
	 Same-Spin Energy          =      -0.5510373962549591 [Eh]
	 Opposite-Spin Energy      =      -1.6367471478301743 [Eh]
	 Correlation Energy        =      -2.1877845440851331 [Eh]
	 Total Energy              =    -505.9008342547481334 [Eh]

	 ================> DF-SCS-MP2 Energies <==================
	-----------------------------------------------------------
	 SCS Same-Spin Scale       =       0.3333333333333333 [-]
	 SCS Opposite-Spin Scale   =       1.2000000000000000 [-]
	 SCS Same-Spin Energy      =      -0.1836791320849863 [Eh]
	 SCS Opposite-Spin Energy  =      -1.9640965773962091 [Eh]
	 SCS Correlation Energy    =      -2.1477757094811953 [Eh]
	 SCS Total Energy          =    -505.8608254201441810 [Eh]
	-----------------------------------------------------------

  Dipole Moment: [D]
     X:    -2.5572      Y:    -1.3726      Z:    -0.7741     Total:     3.0038

*** Psi4 exiting successfully. Buy a developer a beer!
