                               Psi4 1.3.2 release

  ==> Input File <==

--------------------------------------------------------------------------
#psi4
#
memory 32 gb

molecule  {
0 1
  N       -1.7893040    -0.1617730    -0.0001110
  N       -0.2713240    -1.8496560    -0.0082220
  N       -0.2672930     1.7497910     0.0010540
  N        2.0532340     1.0361840    -0.0078740
  N        2.7268170    -1.1967150     0.0786200
  C       -0.5487760     0.4359060     0.0048010
  C        0.3016940    -0.5940446     0.0084934
  C       -1.5376936    -1.4489217    -0.0054373
  C        1.7257650    -0.2653140     0.0014880
  C       -3.0654680     0.5328540     0.0028660
  C        1.0578830     1.9506280    -0.0091420
  H       -2.3786350    -2.2235800    -0.0126570
  H       -3.1454970     1.1693440    -0.8801020
  H       -3.8626160    -0.2117770    -0.0066990
  H       -3.1511970     1.1523310     0.8973960
  H        1.3824760     2.9891980    -0.0128990
  H        3.6364610    -0.8630510    -0.2195510
  H        2.4794860    -2.1327440    -0.2212610
units angstrom
no_reorient  #important for SAPT in psi4, default
symmetry c1  #important for SAPT in psi4, default
}

set PROPERTIES_ORIGIN ["COM"]
properties('MP2/aug-cc-pvtz', properties = ['dipole'])
--------------------------------------------------------------------------

    Molecular point group: c1
  Charge       = 0
  Multiplicity = 1
  Basis Set: AUG-CC-PVTZ
    Blend: AUG-CC-PVTZ
  Basis Set: (AUG-CC-PVTZ AUX)
    Blend: AUG-CC-PVTZ-JKFIT

    Orbital Energies [Eh]
    ---------------------

    Doubly Occupied:

       1A    -15.633313     2A    -15.586383     3A    -15.560537
       4A    -15.559282     5A    -15.551848     6A    -11.340864
       7A    -11.319663     8A    -11.309674     9A    -11.299796
      10A    -11.291316    11A    -11.250005    12A     -1.387833
      13A     -1.297661    14A     -1.242075    15A     -1.202708
      16A     -1.153110    17A     -1.033993    18A     -0.992642
      19A     -0.888137    20A     -0.869696    21A     -0.806543
      22A     -0.755101    23A     -0.721755    24A     -0.685298
      25A     -0.676321    26A     -0.671224    27A     -0.620993
      28A     -0.607056    29A     -0.595094    30A     -0.577273
      31A     -0.565356    32A     -0.542663    33A     -0.496169
      34A     -0.494693    35A     -0.454762    36A     -0.412956
      37A     -0.408754    38A     -0.375324    39A     -0.307104

  @DF-RHF Final Energy:  -503.71172607272825

   => Energetics <=

    Nuclear Repulsion Energy =            596.6014877557089449
    One-Electron Energy =               -1867.5364797430186172
    Two-Electron Energy =                 767.2232659145815887
    Total Energy =                       -503.7117260727281973
  Basis Set: (AUG-CC-PVTZ AUX)
    Blend: AUG-CC-PVTZ-RI
    Molecular point group: c1

    Geometry (in Angstrom), charge = 0, multiplicity = 1:

       Center              X                  Y                   Z               Mass
    ------------   -----------------  -----------------  -----------------  -----------------
         N           -1.819217798159    -0.170496466804    -0.003238540116    14.003074004430
         N           -0.301237798159    -1.858379466804    -0.011349540116    14.003074004430
         N           -0.297206798159     1.741067533196    -0.002073540116    14.003074004430
         N            2.023320201841     1.027460533196    -0.011001540116    14.003074004430
         N            2.696903201841    -1.205438466804     0.075492459884    14.003074004430
         C           -0.578689798159     0.427182533196     0.001673459884    12.000000000000
         C            0.271780201841    -0.602768066804     0.005365859884    12.000000000000
         C           -1.567607398159    -1.457645166804    -0.008564840116    12.000000000000
         C            1.695851201841    -0.274037466804    -0.001639540116    12.000000000000
         C           -3.095381798159     0.524130533196    -0.000261540116    12.000000000000
         C            1.027969201841     1.941904533196    -0.012269540116    12.000000000000
         H           -2.408548798159    -2.232303466804    -0.015784540116     1.007825032230
         H           -3.175410798159     1.160620533196    -0.883229540116     1.007825032230
         H           -3.892529798159    -0.220500466804    -0.009826540116     1.007825032230
         H           -3.181110798159     1.143607533196     0.894268459884     1.007825032230
         H            1.352562201841     2.980474533196    -0.016026540116     1.007825032230
         H            3.606547201841    -0.871774466804    -0.222678540116     1.007825032230
         H            2.449572201841    -2.141467466804    -0.224388540116     1.007825032230

  Basis Set: AUG-CC-PVTZ
    Blend: AUG-CC-PVTZ
  Basis Set: (AUG-CC-PVTZ AUX)
    Blend: AUG-CC-PVTZ-JKFIT
	 Reference Energy          =    -503.7117260727282542 [Eh]
	 Singles Energy            =      -0.0000000000000000 [Eh]
	 Same-Spin Energy          =      -0.5490102176642107 [Eh]
	 Opposite-Spin Energy      =      -1.6326304637775739 [Eh]
	 Correlation Energy        =      -2.1816406814417846 [Eh]
	 Total Energy              =    -505.8933667541700174 [Eh]

	 ================> DF-SCS-MP2 Energies <==================
	-----------------------------------------------------------
	 SCS Same-Spin Scale       =       0.3333333333333333 [-]
	 SCS Opposite-Spin Scale   =       1.2000000000000000 [-]
	 SCS Same-Spin Energy      =      -0.1830034058880702 [Eh]
	 SCS Opposite-Spin Energy  =      -1.9591565565330886 [Eh]
	 SCS Correlation Energy    =      -2.1421599624211587 [Eh]
	 SCS Total Energy          =    -505.8538860351494009 [Eh]
	-----------------------------------------------------------

  Dipole Moment: [D]
     X:    -2.6409      Y:    -1.0568      Z:    -0.7843     Total:     2.9507

*** Psi4 exiting successfully. Buy a developer a beer!
