                               Psi4 1.3.2 release

  ==> Input File <==

--------------------------------------------------------------------------
#psi4
#
memory 32 gb

molecule  {
0 1
  N       -1.7893040    -0.1617730    -0.0001110
  N       -0.2713240    -1.8496560    -0.0082220
  N       -0.2672930     1.7497910     0.0010540
  N        2.0532340     1.0361840    -0.0078740
  N        2.6765416    -1.2477555     0.0814547
  C       -0.5487760     0.4359060     0.0048010
  C        0.3873328    -0.6962142     0.0133174
  C       -1.5569310    -1.5157420    -0.0063070
  C        1.7257650    -0.2653140     0.0014880
  C       -3.0654680     0.5328540     0.0028660
  C        1.0578830     1.9506280    -0.0091420
  H       -2.3786350    -2.2235800    -0.0126570
  H       -3.1454970     1.1693440    -0.8801020
  H       -3.8626160    -0.2117770    -0.0066990
  H       -3.1511970     1.1523310     0.8973960
  H        1.3824760     2.9891980    -0.0128990
  H        3.6364610    -0.8630510    -0.2195510
  H        2.4794860    -2.1327440    -0.2212610
units angstrom
no_reorient  #important for SAPT in psi4, default
symmetry c1  #important for SAPT in psi4, default
}

set PROPERTIES_ORIGIN ["COM"]
properties('MP2/aug-cc-pvtz', properties = ['dipole'])
--------------------------------------------------------------------------

    Molecular point group: c1
  Charge       = 0
  Multiplicity = 1
  Basis Set: AUG-CC-PVTZ
    Blend: AUG-CC-PVTZ
  Basis Set: (AUG-CC-PVTZ AUX)
    Blend: AUG-CC-PVTZ-JKFIT

    Orbital Energies [Eh]
    ---------------------

    Doubly Occupied:

       1A    -15.636829     2A    -15.577699     3A    -15.566571
       4A    -15.562373     5A    -15.555533     6A    -11.333553
       7A    -11.322146     8A    -11.316438     9A    -11.312802
      10A    -11.289853    11A    -11.254972    12A     -1.368646
      13A     -1.294835    14A     -1.246023    15A     -1.204582
      16A     -1.154312    17A     -1.022759    18A     -0.989506
      19A     -0.893113    20A     -0.873780    21A     -0.798524
      22A     -0.752360    23A     -0.732094    24A     -0.685526
      25A     -0.667772    26A     -0.666240    27A     -0.631493
      28A     -0.600597    29A     -0.595559    30A     -0.586294
      31A     -0.569231    32A     -0.537338    33A     -0.498341
      34A     -0.494433    35A     -0.452835    36A     -0.419115
      37A     -0.404050    38A     -0.369293    39A     -0.297262

  @DF-RHF Final Energy:  -503.70692568348551

   => Energetics <=

    Nuclear Repulsion Energy =            594.0189896903543740
    One-Electron Energy =               -1862.3824697451577777
    Two-Electron Energy =                 764.6565543713178386
    Total Energy =                       -503.7069256834855651
  Basis Set: (AUG-CC-PVTZ AUX)
    Blend: AUG-CC-PVTZ-RI
    Molecular point group: c1

    Geometry (in Angstrom), charge = 0, multiplicity = 1:

       Center              X                  Y                   Z               Mass
    ------------   -----------------  -----------------  -----------------  -----------------
         N           -1.819840368513    -0.152098398605    -0.003823138151    14.003074004430
         N           -0.301860368513    -1.839981398605    -0.011934138151    14.003074004430
         N           -0.297829368513     1.759465601395    -0.002658138151    14.003074004430
         N            2.022697631487     1.045858601395    -0.011586138151    14.003074004430
         N            2.646005231487    -1.238080898605     0.077742561849    14.003074004430
         C           -0.579312368513     0.445580601395     0.001088861849    12.000000000000
         C            0.356796431487    -0.686539598605     0.009605261849    12.000000000000
         C           -1.587467368513    -1.506067398605    -0.010019138151    12.000000000000
         C            1.695228631487    -0.255639398605    -0.002224138151    12.000000000000
         C           -3.096004368513     0.542528601395    -0.000846138151    12.000000000000
         C            1.027346631487     1.960302601395    -0.012854138151    12.000000000000
         H           -2.409171368513    -2.213905398605    -0.016369138151     1.007825032230
         H           -3.176033368513     1.179018601395    -0.883814138151     1.007825032230
         H           -3.893152368513    -0.202102398605    -0.010411138151     1.007825032230
         H           -3.181733368513     1.162005601395     0.893683861849     1.007825032230
         H            1.351939631487     2.998872601395    -0.016611138151     1.007825032230
         H            3.605924631487    -0.853376398605    -0.223263138151     1.007825032230
         H            2.448949631487    -2.123069398605    -0.224973138151     1.007825032230

  Basis Set: AUG-CC-PVTZ
    Blend: AUG-CC-PVTZ
  Basis Set: (AUG-CC-PVTZ AUX)
    Blend: AUG-CC-PVTZ-JKFIT
	 Reference Energy          =    -503.7069256834855082 [Eh]
	 Singles Energy            =      -0.0000000000000000 [Eh]
	 Same-Spin Energy          =      -0.5512291703779147 [Eh]
	 Opposite-Spin Energy      =      -1.6352142486335062 [Eh]
	 Correlation Energy        =      -2.1864434190114208 [Eh]
	 Total Energy              =    -505.8933691024969335 [Eh]

	 ================> DF-SCS-MP2 Energies <==================
	-----------------------------------------------------------
	 SCS Same-Spin Scale       =       0.3333333333333333 [-]
	 SCS Opposite-Spin Scale   =       1.2000000000000000 [-]
	 SCS Same-Spin Energy      =      -0.1837430567926382 [Eh]
	 SCS Opposite-Spin Energy  =      -1.9622570983602072 [Eh]
	 SCS Correlation Energy    =      -2.1460001551528456 [Eh]
	 SCS Total Energy          =    -505.8529258386383276 [Eh]
	-----------------------------------------------------------

  Dipole Moment: [D]
     X:    -2.8553      Y:    -1.1225      Z:    -0.7920     Total:     3.1686

*** Psi4 exiting successfully. Buy a developer a beer!
