                               Psi4 1.3.2 release

  ==> Input File <==

--------------------------------------------------------------------------
#psi4
#
memory 32 gb

molecule  {
0 1
  N       -1.7893040    -0.1617730    -0.0001110
  N       -0.2713240    -1.8496560    -0.0082220
  N       -0.2672930     1.7497910     0.0010540
  N        2.0532340     1.0361840    -0.0078740
  N        2.7268170    -1.1967150     0.0786200
  C       -0.5487760     0.4359060     0.0048010
  C        0.3559223    -0.6202337     0.0082612
  C       -1.5539682    -1.5045367    -0.0061616
  C        1.7257650    -0.2653140     0.0014880
  C       -3.0654680     0.5328540     0.0028660
  C        1.0578830     1.9506280    -0.0091420
  H       -2.3786350    -2.2235800    -0.0126570
  H       -3.1454970     1.1693440    -0.8801020
  H       -3.8626160    -0.2117770    -0.0066990
  H       -3.1511970     1.1523310     0.8973960
  H        1.3824760     2.9891980    -0.0128990
  H        3.6364610    -0.8630510    -0.2195510
  H        2.4794860    -2.1327440    -0.2212610
units angstrom
no_reorient  #important for SAPT in psi4, default
symmetry c1  #important for SAPT in psi4, default
}

set PROPERTIES_ORIGIN ["COM"]
properties('MP2/aug-cc-pvtz', properties = ['dipole'])
--------------------------------------------------------------------------

    Molecular point group: c1
  Charge       = 0
  Multiplicity = 1
  Basis Set: AUG-CC-PVTZ
    Blend: AUG-CC-PVTZ
  Basis Set: (AUG-CC-PVTZ AUX)
    Blend: AUG-CC-PVTZ-JKFIT

    Orbital Energies [Eh]
    ---------------------

    Doubly Occupied:

       1A    -15.633178     2A    -15.581928     3A    -15.566119
       4A    -15.560504     5A    -15.552338     6A    -11.335641
       7A    -11.321911     8A    -11.311218     9A    -11.310904
      10A    -11.289153    11A    -11.251507    12A     -1.370801
      13A     -1.296490    14A     -1.242198    15A     -1.197708
      16A     -1.152116    17A     -1.031548    18A     -0.987056
      19A     -0.890072    20A     -0.871685    21A     -0.803510
      22A     -0.753713    23A     -0.723875    24A     -0.681401
      25A     -0.672884    26A     -0.667788    27A     -0.623338
      28A     -0.606588    29A     -0.595561    30A     -0.590299
      31A     -0.571659    32A     -0.537784    33A     -0.495376
      34A     -0.493149    35A     -0.451363    36A     -0.414010
      37A     -0.408742    38A     -0.369466    39A     -0.307554

  @DF-RHF Final Energy:  -503.72481886829740

   => Energetics <=

    Nuclear Repulsion Energy =            594.6940306325647043
    One-Electron Energy =               -1863.7934319877153939
    Two-Electron Energy =                 765.3745824868533418
    Total Energy =                       -503.7248188682974614
  Basis Set: (AUG-CC-PVTZ AUX)
    Blend: AUG-CC-PVTZ-RI
    Molecular point group: c1

    Geometry (in Angstrom), charge = 0, multiplicity = 1:

       Center              X                  Y                   Z               Mass
    ------------   -----------------  -----------------  -----------------  -----------------
         N           -1.822273033660    -0.163911317254    -0.003161542808    14.003074004430
         N           -0.304293033660    -1.851794317254    -0.011272542808    14.003074004430
         N           -0.300262033660     1.747652682746    -0.001996542808    14.003074004430
         N            2.020264966340     1.034045682746    -0.010924542808    14.003074004430
         N            2.693847966340    -1.198853317254     0.075569457192    14.003074004430
         C           -0.581745033660     0.433767682746     0.001750457192    12.000000000000
         C            0.322953266340    -0.622372017254     0.005210657192    12.000000000000
         C           -1.586937233660    -1.506675017254    -0.009212142808    12.000000000000
         C            1.692795966340    -0.267452317254    -0.001562542808    12.000000000000
         C           -3.098437033660     0.530715682746    -0.000184542808    12.000000000000
         C            1.024913966340     1.948489682746    -0.012192542808    12.000000000000
         H           -2.411604033660    -2.225718317254    -0.015707542808     1.007825032230
         H           -3.178466033660     1.167205682746    -0.883152542808     1.007825032230
         H           -3.895585033660    -0.213915317254    -0.009749542808     1.007825032230
         H           -3.184166033660     1.150192682746     0.894345457192     1.007825032230
         H            1.349506966340     2.987059682746    -0.015949542808     1.007825032230
         H            3.603491966340    -0.865189317254    -0.222601542808     1.007825032230
         H            2.446516966340    -2.134882317254    -0.224311542808     1.007825032230

  Basis Set: AUG-CC-PVTZ
    Blend: AUG-CC-PVTZ
  Basis Set: (AUG-CC-PVTZ AUX)
    Blend: AUG-CC-PVTZ-JKFIT
	 Reference Energy          =    -503.7248188682974046 [Eh]
	 Singles Energy            =      -0.0000000000000000 [Eh]
	 Same-Spin Energy          =      -0.5492252668517879 [Eh]
	 Opposite-Spin Energy      =      -1.6329746209698350 [Eh]
	 Correlation Energy        =      -2.1821998878216231 [Eh]
	 Total Energy              =    -505.9070187561190437 [Eh]

	 ================> DF-SCS-MP2 Energies <==================
	-----------------------------------------------------------
	 SCS Same-Spin Scale       =       0.3333333333333333 [-]
	 SCS Opposite-Spin Scale   =       1.2000000000000000 [-]
	 SCS Same-Spin Energy      =      -0.1830750889505959 [Eh]
	 SCS Opposite-Spin Energy  =      -1.9595695451638020 [Eh]
	 SCS Correlation Energy    =      -2.1426446341143981 [Eh]
	 SCS Total Energy          =    -505.8674635024117947 [Eh]
	-----------------------------------------------------------

  Dipole Moment: [D]
     X:    -2.7197      Y:    -1.1418      Z:    -0.7882     Total:     3.0532

*** Psi4 exiting successfully. Buy a developer a beer!
