                               Psi4 1.3.2 release

  ==> Input File <==

--------------------------------------------------------------------------
#psi4
#
memory 32 gb

molecule  {
0 1
  N       -1.7893040    -0.1617730    -0.0001110
  N       -0.2713240    -1.8496560    -0.0082220
  N       -0.2672930     1.7497910     0.0010540
  N        2.0532340     1.0361840    -0.0078740
  N        2.7268170    -1.1967150     0.0786200
  C       -0.6388646     0.3925019     0.0044443
  C        0.3666280    -0.6257540     0.0082110
  C       -1.5569310    -1.5157420    -0.0063070
  C        1.7257650    -0.2653140     0.0014880
  C       -3.0654680     0.5328540     0.0028660
  C        1.0578830     1.9506280    -0.0091420
  H       -2.3786350    -2.2235800    -0.0126570
  H       -3.1454970     1.1693440    -0.8801020
  H       -3.8626160    -0.2117770    -0.0066990
  H       -3.1511970     1.1523310     0.8973960
  H        1.3824760     2.9891980    -0.0128990
  H        3.6364610    -0.8630510    -0.2195510
  H        2.4794860    -2.1327440    -0.2212610
units angstrom
no_reorient  #important for SAPT in psi4, default
symmetry c1  #important for SAPT in psi4, default
}

set PROPERTIES_ORIGIN ["COM"]
properties('MP2/aug-cc-pvtz', properties = ['dipole'])
--------------------------------------------------------------------------

    Molecular point group: c1
  Charge       = 0
  Multiplicity = 1
  Basis Set: AUG-CC-PVTZ
    Blend: AUG-CC-PVTZ
  Basis Set: (AUG-CC-PVTZ AUX)
    Blend: AUG-CC-PVTZ-JKFIT

    Orbital Energies [Eh]
    ---------------------

    Doubly Occupied:

       1A    -15.642532     2A    -15.580527     3A    -15.573983
       4A    -15.556820     5A    -15.546030     6A    -11.334275
       7A    -11.319560     8A    -11.312803     9A    -11.307867
      10A    -11.295912    11A    -11.250824    12A     -1.392777
      13A     -1.290746    14A     -1.232572    15A     -1.205949
      16A     -1.139976    17A     -1.031462    18A     -0.997832
      19A     -0.898303    20A     -0.865088    21A     -0.803415
      22A     -0.754385    23A     -0.730851    24A     -0.681166
      25A     -0.678910    26A     -0.673321    27A     -0.622868
      28A     -0.605199    29A     -0.595654    30A     -0.590250
      31A     -0.588234    32A     -0.541949    33A     -0.487543
      34A     -0.487430    35A     -0.444658    36A     -0.422327
      37A     -0.399803    38A     -0.357645    39A     -0.307646

  @DF-RHF Final Energy:  -503.70982803974857

   => Energetics <=

    Nuclear Repulsion Energy =            594.3635491562819197
    One-Electron Energy =               -1863.0485653148271012
    Two-Electron Energy =                 764.9751881187967228
    Total Energy =                       -503.7098280397485723
  Basis Set: (AUG-CC-PVTZ AUX)
    Blend: AUG-CC-PVTZ-RI
    Molecular point group: c1

    Geometry (in Angstrom), charge = 0, multiplicity = 1:

       Center              X                  Y                   Z               Mass
    ------------   -----------------  -----------------  -----------------  -----------------
         N           -1.815644285843    -0.159070935574    -0.003117083201    14.003074004430
         N           -0.297664285843    -1.846953935574    -0.011228083201    14.003074004430
         N           -0.293633285843     1.752493064426    -0.001952083201    14.003074004430
         N            2.026893714157     1.038886064426    -0.010880083201    14.003074004430
         N            2.700476714157    -1.194012935574     0.075613916799    14.003074004430
         C           -0.665204885843     0.395203964426     0.001438216799    12.000000000000
         C            0.340287714157    -0.623051935574     0.005204916799    12.000000000000
         C           -1.583271285843    -1.513039935574    -0.009313083201    12.000000000000
         C            1.699424714157    -0.262611935574    -0.001518083201    12.000000000000
         C           -3.091808285843     0.535556064426    -0.000140083201    12.000000000000
         C            1.031542714157     1.953330064426    -0.012148083201    12.000000000000
         H           -2.404975285843    -2.220877935574    -0.015663083201     1.007825032230
         H           -3.171837285843     1.172046064426    -0.883108083201     1.007825032230
         H           -3.888956285843    -0.209074935574    -0.009705083201     1.007825032230
         H           -3.177537285843     1.155033064426     0.894389916799     1.007825032230
         H            1.356135714157     2.991900064426    -0.015905083201     1.007825032230
         H            3.610120714157    -0.860348935574    -0.222557083201     1.007825032230
         H            2.453145714157    -2.130041935574    -0.224267083201     1.007825032230

  Basis Set: AUG-CC-PVTZ
    Blend: AUG-CC-PVTZ
  Basis Set: (AUG-CC-PVTZ AUX)
    Blend: AUG-CC-PVTZ-JKFIT
	 Reference Energy          =    -503.7098280397485723 [Eh]
	 Singles Energy            =      -0.0000000000000000 [Eh]
	 Same-Spin Energy          =      -0.5495548607777974 [Eh]
	 Opposite-Spin Energy      =      -1.6338035310796175 [Eh]
	 Correlation Energy        =      -2.1833583918574151 [Eh]
	 Total Energy              =    -505.8931864316060114 [Eh]

	 ================> DF-SCS-MP2 Energies <==================
	-----------------------------------------------------------
	 SCS Same-Spin Scale       =       0.3333333333333333 [-]
	 SCS Opposite-Spin Scale   =       1.2000000000000000 [-]
	 SCS Same-Spin Energy      =      -0.1831849535925991 [Eh]
	 SCS Opposite-Spin Energy  =      -1.9605642372955410 [Eh]
	 SCS Correlation Energy    =      -2.1437491908881401 [Eh]
	 SCS Total Energy          =    -505.8535772306366880 [Eh]
	-----------------------------------------------------------

  Dipole Moment: [D]
     X:    -3.1209      Y:    -1.3361      Z:    -0.7893     Total:     3.4855

*** Psi4 exiting successfully. Buy a developer a beer!
