                               Psi4 1.3.2 release

  ==> Input File <==

--------------------------------------------------------------------------
#psi4
#
memory 32 gb

molecule  {
0 1
  N       -1.7893040    -0.1617730    -0.0001110
  N       -0.2713240    -1.8496560    -0.0082220
  N       -0.2672930     1.7497910     0.0010540
  N        2.0532340     1.0361840    -0.0078740
  N        2.7268170    -1.1967150     0.0786200
  C       -0.5487760     0.4359060     0.0048010
  C        0.3666280    -0.6257540     0.0082110
  C       -1.5569310    -1.5157420    -0.0063070
  C        1.7501648    -0.1683389     0.0007904
  C       -3.0654680     0.5328540     0.0028660
  C        1.0578830     1.9506280    -0.0091420
  H       -2.3786350    -2.2235800    -0.0126570
  H       -3.1454970     1.1693440    -0.8801020
  H       -3.8626160    -0.2117770    -0.0066990
  H       -3.1511970     1.1523310     0.8973960
  H        1.3824760     2.9891980    -0.0128990
  H        3.6364610    -0.8630510    -0.2195510
  H        2.4794860    -2.1327440    -0.2212610
units angstrom
no_reorient  #important for SAPT in psi4, default
symmetry c1  #important for SAPT in psi4, default
}

set PROPERTIES_ORIGIN ["COM"]
properties('MP2/aug-cc-pvtz', properties = ['dipole'])
--------------------------------------------------------------------------

    Molecular point group: c1
  Charge       = 0
  Multiplicity = 1
  Basis Set: AUG-CC-PVTZ
    Blend: AUG-CC-PVTZ
  Basis Set: (AUG-CC-PVTZ AUX)
    Blend: AUG-CC-PVTZ-JKFIT

    Orbital Energies [Eh]
    ---------------------

    Doubly Occupied:

       1A    -15.632840     2A    -15.570517     3A    -15.569854
       4A    -15.568344     5A    -15.553328     6A    -11.332185
       7A    -11.321054     8A    -11.318978     9A    -11.307457
      10A    -11.288609    11A    -11.255830    12A     -1.368158
      13A     -1.316073    14A     -1.236024    15A     -1.193239
      16A     -1.163575    17A     -1.027299    18A     -0.982826
      19A     -0.898980    20A     -0.872988    21A     -0.800633
      22A     -0.753218    23A     -0.721678    24A     -0.678616
      25A     -0.670522    26A     -0.666202    27A     -0.630002
      28A     -0.603641    29A     -0.599700    30A     -0.584274
      31A     -0.572221    32A     -0.542677    33A     -0.496982
      34A     -0.489468    35A     -0.458209    36A     -0.414013
      37A     -0.405832    38A     -0.378666    39A     -0.306209

  @DF-RHF Final Energy:  -503.71218693087997

   => Energetics <=

    Nuclear Repulsion Energy =            594.6211134468297814
    One-Electron Energy =               -1863.5647602477545206
    Two-Electron Energy =                 765.2314598700448869
    Total Energy =                       -503.7121869308799660
  Basis Set: (AUG-CC-PVTZ AUX)
    Blend: AUG-CC-PVTZ-RI
    Molecular point group: c1

    Geometry (in Angstrom), charge = 0, multiplicity = 1:

       Center              X                  Y                   Z               Mass
    ------------   -----------------  -----------------  -----------------  -----------------
         N           -1.824860489380    -0.170371323034    -0.003089641087    14.003074004430
         N           -0.306880489380    -1.858254323034    -0.011200641087    14.003074004430
         N           -0.302849489380     1.741192676966    -0.001924641087    14.003074004430
         N            2.017677510620     1.027585676966    -0.010852641087    14.003074004430
         N            2.691260510620    -1.205313323034     0.075641358913    14.003074004430
         C           -0.584332489380     0.427307676966     0.001822358913    12.000000000000
         C            0.331071510620    -0.634352323034     0.005232358913    12.000000000000
         C           -1.592487489380    -1.524340323034    -0.009285641087    12.000000000000
         C            1.714608310620    -0.176937223034    -0.002188241087    12.000000000000
         C           -3.101024489380     0.524255676966    -0.000112641087    12.000000000000
         C            1.022326510620     1.942029676966    -0.012120641087    12.000000000000
         H           -2.414191489380    -2.232178323034    -0.015635641087     1.007825032230
         H           -3.181053489380     1.160745676966    -0.883080641087     1.007825032230
         H           -3.898172489380    -0.220375323034    -0.009677641087     1.007825032230
         H           -3.186753489380     1.143732676966     0.894417358913     1.007825032230
         H            1.346919510620     2.980599676966    -0.015877641087     1.007825032230
         H            3.600904510620    -0.871649323034    -0.222529641087     1.007825032230
         H            2.443929510620    -2.141342323034    -0.224239641087     1.007825032230

  Basis Set: AUG-CC-PVTZ
    Blend: AUG-CC-PVTZ
  Basis Set: (AUG-CC-PVTZ AUX)
    Blend: AUG-CC-PVTZ-JKFIT
	 Reference Energy          =    -503.7121869308799660 [Eh]
	 Singles Energy            =      -0.0000000000000000 [Eh]
	 Same-Spin Energy          =      -0.5490555118379314 [Eh]
	 Opposite-Spin Energy      =      -1.6328795542743855 [Eh]
	 Correlation Energy        =      -2.1819350661123167 [Eh]
	 Total Energy              =    -505.8941219969922827 [Eh]

	 ================> DF-SCS-MP2 Energies <==================
	-----------------------------------------------------------
	 SCS Same-Spin Scale       =       0.3333333333333333 [-]
	 SCS Opposite-Spin Scale   =       1.2000000000000000 [-]
	 SCS Same-Spin Energy      =      -0.1830185039459771 [Eh]
	 SCS Opposite-Spin Energy  =      -1.9594554651292624 [Eh]
	 SCS Correlation Energy    =      -2.1424739690752395 [Eh]
	 SCS Total Energy          =    -505.8546608999552063 [Eh]
	-----------------------------------------------------------

  Dipole Moment: [D]
     X:    -2.9591      Y:    -0.6577      Z:    -0.8074     Total:     3.1370

*** Psi4 exiting successfully. Buy a developer a beer!
