                               Psi4 1.3.2 release

  ==> Input File <==

--------------------------------------------------------------------------
#psi4
#
memory 32 gb

molecule  {
0 1
  N       -1.7893040    -0.1617730    -0.0001110
  N       -0.2713240    -1.8496560    -0.0082220
  N       -0.2672930     1.7497910     0.0010540
  N        2.0532340     1.0361840    -0.0078740
  N        2.7268170    -1.1967150     0.0786200
  C       -0.5436074     0.4250579     0.0047397
  C        0.3666280    -0.6257540     0.0082110
  C       -1.5569310    -1.5157420    -0.0063070
  C        1.7257650    -0.2653140     0.0014880
  C       -3.0714811     0.5216913     0.0027915
  C        1.0578830     1.9506280    -0.0091420
  H       -2.3786350    -2.2235800    -0.0126570
  H       -3.1454970     1.1693440    -0.8801020
  H       -3.8626160    -0.2117770    -0.0066990
  H       -3.1511970     1.1523310     0.8973960
  H        1.3824760     2.9891980    -0.0128990
  H        3.6364610    -0.8630510    -0.2195510
  H        2.4794860    -2.1327440    -0.2212610
units angstrom
no_reorient  #important for SAPT in psi4, default
symmetry c1  #important for SAPT in psi4, default
}

set PROPERTIES_ORIGIN ["COM"]
properties('MP2/aug-cc-pvtz', properties = ['dipole'])
--------------------------------------------------------------------------

    Molecular point group: c1
  Charge       = 0
  Multiplicity = 1
  Basis Set: AUG-CC-PVTZ
    Blend: AUG-CC-PVTZ
  Basis Set: (AUG-CC-PVTZ AUX)
    Blend: AUG-CC-PVTZ-JKFIT

    Orbital Energies [Eh]
    ---------------------

    Doubly Occupied:

       1A    -15.632974     2A    -15.581695     3A    -15.566894
       4A    -15.560864     5A    -15.551979     6A    -11.335395
       7A    -11.322135     8A    -11.312286     9A    -11.311119
      10A    -11.288897    11A    -11.251281    12A     -1.368209
      13A     -1.295932    14A     -1.241027    15A     -1.196880
      16A     -1.150759    17A     -1.033034    18A     -0.986334
      19A     -0.890624    20A     -0.870768    21A     -0.804414
      22A     -0.753548    23A     -0.723777    24A     -0.680717
      25A     -0.672767    26A     -0.665265    27A     -0.624287
      28A     -0.607332    29A     -0.596903    30A     -0.590889
      31A     -0.574613    32A     -0.536176    33A     -0.494512
      34A     -0.492108    35A     -0.450417    36A     -0.413727
      37A     -0.408723    38A     -0.367993    39A     -0.309403

  @DF-RHF Final Energy:  -503.72471934377540

   => Energetics <=

    Nuclear Repulsion Energy =            594.3774931362705729
    One-Electron Energy =               -1863.1711099338076565
    Two-Electron Energy =                 765.0688974537617923
    Total Energy =                       -503.7247193437754049
  Basis Set: (AUG-CC-PVTZ AUX)
    Blend: AUG-CC-PVTZ-RI
    Molecular point group: c1

    Geometry (in Angstrom), charge = 0, multiplicity = 1:

       Center              X                  Y                   Z               Mass
    ------------   -----------------  -----------------  -----------------  -----------------
         N           -1.822828348072    -0.160793075172    -0.003134865434    14.003074004430
         N           -0.304848348072    -1.848676075172    -0.011245865434    14.003074004430
         N           -0.300817348072     1.750770924828    -0.001969865434    14.003074004430
         N            2.019709651928     1.037163924828    -0.010897865434    14.003074004430
         N            2.693292651928    -1.195735075172     0.075596134566    14.003074004430
         C           -0.577131748072     0.426037824828     0.001715834566    12.000000000000
         C            0.333103651928    -0.624774075172     0.005187134566    12.000000000000
         C           -1.590455348072    -1.514762075172    -0.009330865434    12.000000000000
         C            1.692240651928    -0.264334075172    -0.001535865434    12.000000000000
         C           -3.105005448072     0.522671224828    -0.000232365434    12.000000000000
         C            1.024358651928     1.951607924828    -0.012165865434    12.000000000000
         H           -2.412159348072    -2.222600075172    -0.015680865434     1.007825032230
         H           -3.179021348072     1.170323924828    -0.883125865434     1.007825032230
         H           -3.896140348072    -0.210797075172    -0.009722865434     1.007825032230
         H           -3.184721348072     1.153310924828     0.894372134566     1.007825032230
         H            1.348951651928     2.990177924828    -0.015922865434     1.007825032230
         H            3.602936651928    -0.862071075172    -0.222574865434     1.007825032230
         H            2.445961651928    -2.131764075172    -0.224284865434     1.007825032230

  Basis Set: AUG-CC-PVTZ
    Blend: AUG-CC-PVTZ
  Basis Set: (AUG-CC-PVTZ AUX)
    Blend: AUG-CC-PVTZ-JKFIT
	 Reference Energy          =    -503.7247193437754049 [Eh]
	 Singles Energy            =      -0.0000000000000000 [Eh]
	 Same-Spin Energy          =      -0.5491076216505646 [Eh]
	 Opposite-Spin Energy      =      -1.6330736775862094 [Eh]
	 Correlation Energy        =      -2.1821812992367740 [Eh]
	 Total Energy              =    -505.9069006430121931 [Eh]

	 ================> DF-SCS-MP2 Energies <==================
	-----------------------------------------------------------
	 SCS Same-Spin Scale       =       0.3333333333333333 [-]
	 SCS Opposite-Spin Scale   =       1.2000000000000000 [-]
	 SCS Same-Spin Energy      =      -0.1830358738835215 [Eh]
	 SCS Opposite-Spin Energy  =      -1.9596884131034511 [Eh]
	 SCS Correlation Energy    =      -2.1427242869869727 [Eh]
	 SCS Total Energy          =    -505.8674436307623523 [Eh]
	-----------------------------------------------------------

  Dipole Moment: [D]
     X:    -2.7241      Y:    -1.1718      Z:    -0.7887     Total:     3.0685

*** Psi4 exiting successfully. Buy a developer a beer!
