                               Psi4 1.3.2 release

  ==> Input File <==

--------------------------------------------------------------------------
#psi4
#
memory 32 gb

molecule  {
0 1
  N       -1.7774796    -0.1597970    -0.0000618
  N       -0.2713240    -1.8496560    -0.0082220
  N       -0.2672930     1.7497910     0.0010540
  N        2.0532340     1.0361840    -0.0078740
  N        2.7268170    -1.1967150     0.0786200
  C       -0.5487760     0.4359060     0.0048010
  C        0.3666280    -0.6257540     0.0082110
  C       -1.5569310    -1.5157420    -0.0063070
  C        1.7257650    -0.2653140     0.0014880
  C       -3.0654680     0.5328540     0.0028660
  C        1.0578830     1.9506280    -0.0091420
  H       -2.3724266    -2.2307237    -0.0126733
  H       -3.1454970     1.1693440    -0.8801020
  H       -3.8626160    -0.2117770    -0.0066990
  H       -3.1511970     1.1523310     0.8973960
  H        1.3824760     2.9891980    -0.0128990
  H        3.6364610    -0.8630510    -0.2195510
  H        2.4794860    -2.1327440    -0.2212610
units angstrom
no_reorient  #important for SAPT in psi4, default
symmetry c1  #important for SAPT in psi4, default
}

set PROPERTIES_ORIGIN ["COM"]
properties('MP2/aug-cc-pvtz', properties = ['dipole'])
--------------------------------------------------------------------------

    Molecular point group: c1
  Charge       = 0
  Multiplicity = 1
  Basis Set: AUG-CC-PVTZ
    Blend: AUG-CC-PVTZ
  Basis Set: (AUG-CC-PVTZ AUX)
    Blend: AUG-CC-PVTZ-JKFIT

    Orbital Energies [Eh]
    ---------------------

    Doubly Occupied:

       1A    -15.633283     2A    -15.580767     3A    -15.567301
       4A    -15.560074     5A    -15.551800     6A    -11.334224
       7A    -11.321709     8A    -11.311877     9A    -11.311411
      10A    -11.289711    11A    -11.250964    12A     -1.369481
      13A     -1.295872    14A     -1.242064    15A     -1.195860
      16A     -1.151335    17A     -1.031883    18A     -0.985645
      19A     -0.891048    20A     -0.871993    21A     -0.802715
      22A     -0.753700    23A     -0.724579    24A     -0.680170
      25A     -0.672930    26A     -0.666556    27A     -0.623643
      28A     -0.605303    29A     -0.596483    30A     -0.591293
      31A     -0.573960    32A     -0.537363    33A     -0.495355
      34A     -0.491998    35A     -0.450317    36A     -0.414616
      37A     -0.408358    38A     -0.367501    39A     -0.307820

  @DF-RHF Final Energy:  -503.72501787696535

   => Energetics <=

    Nuclear Repulsion Energy =            594.5352203445721671
    One-Electron Energy =               -1863.4945516919149213
    Two-Electron Energy =                 765.2343134703775149
    Total Energy =                       -503.7250178769653530
  Basis Set: (AUG-CC-PVTZ AUX)
    Blend: AUG-CC-PVTZ-RI
    Molecular point group: c1

    Geometry (in Angstrom), charge = 0, multiplicity = 1:

       Center              X                  Y                   Z               Mass
    ------------   -----------------  -----------------  -----------------  -----------------
         N           -1.812224641383    -0.160726244000    -0.003101108658    14.003074004430
         N           -0.306069041383    -1.850585244000    -0.011261308658    14.003074004430
         N           -0.302038041383     1.748861756000    -0.001985308658    14.003074004430
         N            2.018488958617     1.035254756000    -0.010913308658    14.003074004430
         N            2.692071958617    -1.197644244000     0.075580691342    14.003074004430
         C           -0.583521041383     0.434976756000     0.001761691342    12.000000000000
         C            0.331882958617    -0.626683244000     0.005171691342    12.000000000000
         C           -1.591676041383    -1.516671244000    -0.009346308658    12.000000000000
         C            1.691019958617    -0.266243244000    -0.001551308658    12.000000000000
         C           -3.100213041383     0.531924756000    -0.000173308658    12.000000000000
         C            1.023137958617     1.949698756000    -0.012181308658    12.000000000000
         H           -2.407171641383    -2.231652944000    -0.015712608658     1.007825032230
         H           -3.180242041383     1.168414756000    -0.883141308658     1.007825032230
         H           -3.897361041383    -0.212706244000    -0.009738308658     1.007825032230
         H           -3.185942041383     1.151401756000     0.894356691342     1.007825032230
         H            1.347730958617     2.988268756000    -0.015938308658     1.007825032230
         H            3.601715958617    -0.863980244000    -0.222590308658     1.007825032230
         H            2.444740958617    -2.133673244000    -0.224300308658     1.007825032230

  Basis Set: AUG-CC-PVTZ
    Blend: AUG-CC-PVTZ
  Basis Set: (AUG-CC-PVTZ AUX)
    Blend: AUG-CC-PVTZ-JKFIT
	 Reference Energy          =    -503.7250178769653530 [Eh]
	 Singles Energy            =      -0.0000000000000000 [Eh]
	 Same-Spin Energy          =      -0.5491938019661718 [Eh]
	 Opposite-Spin Energy      =      -1.6329576365849894 [Eh]
	 Correlation Energy        =      -2.1821514385511613 [Eh]
	 Total Energy              =    -505.9071693155165121 [Eh]

	 ================> DF-SCS-MP2 Energies <==================
	-----------------------------------------------------------
	 SCS Same-Spin Scale       =       0.3333333333333333 [-]
	 SCS Opposite-Spin Scale   =       1.2000000000000000 [-]
	 SCS Same-Spin Energy      =      -0.1830646006553906 [Eh]
	 SCS Opposite-Spin Energy  =      -1.9595491639019871 [Eh]
	 SCS Correlation Energy    =      -2.1426137645573777 [Eh]
	 SCS Total Energy          =    -505.8676316415227348 [Eh]
	-----------------------------------------------------------

  Dipole Moment: [D]
     X:    -2.7744      Y:    -1.1683      Z:    -0.7889     Total:     3.1121

*** Psi4 exiting successfully. Buy a developer a beer!
