                               Psi4 1.3.2 release

  ==> Input File <==

--------------------------------------------------------------------------
#psi4
#
memory 32 gb

molecule  {
0 1
  N       -1.7893040    -0.1617730    -0.0001110
  N       -0.2925868    -1.8383334    -0.0083967
  N       -0.2672930     1.7497910     0.0010540
  N        2.0532340     1.0361840    -0.0078740
  N        2.7268170    -1.1967150     0.0786200
  C       -0.5671629     0.4197692     0.0044644
  C        0.3666280    -0.6257540     0.0082110
  C       -1.5569310    -1.5157420    -0.0063070
  C        1.7257650    -0.2653140     0.0014880
  C       -3.0654680     0.5328540     0.0028660
  C        1.0578830     1.9506280    -0.0091420
  H       -2.3786350    -2.2235800    -0.0126570
  H       -3.1454970     1.1693440    -0.8801020
  H       -3.8626160    -0.2117770    -0.0066990
  H       -3.1511970     1.1523310     0.8973960
  H        1.3824760     2.9891980    -0.0128990
  H        3.6364610    -0.8630510    -0.2195510
  H        2.4794860    -2.1327440    -0.2212610
units angstrom
no_reorient  #important for SAPT in psi4, default
symmetry c1  #important for SAPT in psi4, default
}

set PROPERTIES_ORIGIN ["COM"]
properties('MP2/aug-cc-pvtz', properties = ['dipole'])
--------------------------------------------------------------------------

    Molecular point group: c1
  Charge       = 0
  Multiplicity = 1
  Basis Set: AUG-CC-PVTZ
    Blend: AUG-CC-PVTZ
  Basis Set: (AUG-CC-PVTZ AUX)
    Blend: AUG-CC-PVTZ-JKFIT

    Orbital Energies [Eh]
    ---------------------

    Doubly Occupied:

       1A    -15.632484     2A    -15.581565     3A    -15.565278
       4A    -15.559564     5A    -15.550859     6A    -11.335714
       7A    -11.318122     8A    -11.312378     9A    -11.310784
      10A    -11.289251    11A    -11.251009    12A     -1.374742
      13A     -1.295091    14A     -1.239890    15A     -1.201377
      16A     -1.148659    17A     -1.033611    18A     -0.987532
      19A     -0.891877    20A     -0.871112    21A     -0.802400
      22A     -0.753843    23A     -0.726267    24A     -0.680510
      25A     -0.674409    26A     -0.669130    27A     -0.625541
      28A     -0.606869    29A     -0.597336    30A     -0.591293
      31A     -0.576024    32A     -0.539240    33A     -0.493570
      34A     -0.489550    35A     -0.448000    36A     -0.416002
      37A     -0.406888    38A     -0.365248    39A     -0.310997

  @DF-RHF Final Energy:  -503.72607657708107

   => Energetics <=

    Nuclear Repulsion Energy =            594.8304780270336778
    One-Electron Energy =               -1864.0650762611526261
    Two-Electron Energy =                 765.5085216570379316
    Total Energy =                       -503.7260765770810167
  Basis Set: (AUG-CC-PVTZ AUX)
    Blend: AUG-CC-PVTZ-RI
    Molecular point group: c1

    Geometry (in Angstrom), charge = 0, multiplicity = 1:

       Center              X                  Y                   Z               Mass
    ------------   -----------------  -----------------  -----------------  -----------------
         N           -1.819418856781    -0.162329527728    -0.003102290588    14.003074004430
         N           -0.322701656781    -1.838889927728    -0.011387990588    14.003074004430
         N           -0.297407856781     1.749234472272    -0.001937290588    14.003074004430
         N            2.023119143219     1.035627472272    -0.010865290588    14.003074004430
         N            2.696702143219    -1.197271527728     0.075628709412    14.003074004430
         C           -0.597277756781     0.419212672272     0.001473109412    12.000000000000
         C            0.336513143219    -0.626310527728     0.005219709412    12.000000000000
         C           -1.587045856781    -1.516298527728    -0.009298290588    12.000000000000
         C            1.695650143219    -0.265870527728    -0.001503290588    12.000000000000
         C           -3.095582856781     0.532297472272    -0.000125290588    12.000000000000
         C            1.027768143219     1.950071472272    -0.012133290588    12.000000000000
         H           -2.408749856781    -2.224136527728    -0.015648290588     1.007825032230
         H           -3.175611856781     1.168787472272    -0.883093290588     1.007825032230
         H           -3.892730856781    -0.212333527728    -0.009690290588     1.007825032230
         H           -3.181311856781     1.151774472272     0.894404709412     1.007825032230
         H            1.352361143219     2.988641472272    -0.015890290588     1.007825032230
         H            3.606346143219    -0.863607527728    -0.222542290588     1.007825032230
         H            2.449371143219    -2.133300527728    -0.224252290588     1.007825032230

  Basis Set: AUG-CC-PVTZ
    Blend: AUG-CC-PVTZ
  Basis Set: (AUG-CC-PVTZ AUX)
    Blend: AUG-CC-PVTZ-JKFIT
	 Reference Energy          =    -503.7260765770810735 [Eh]
	 Singles Energy            =      -0.0000000000000000 [Eh]
	 Same-Spin Energy          =      -0.5485178579126084 [Eh]
	 Opposite-Spin Energy      =      -1.6317275037188022 [Eh]
	 Correlation Energy        =      -2.1802453616314104 [Eh]
	 Total Energy              =    -505.9063219387124946 [Eh]

	 ================> DF-SCS-MP2 Energies <==================
	-----------------------------------------------------------
	 SCS Same-Spin Scale       =       0.3333333333333333 [-]
	 SCS Opposite-Spin Scale   =       1.2000000000000000 [-]
	 SCS Same-Spin Energy      =      -0.1828392859708695 [Eh]
	 SCS Opposite-Spin Energy  =      -1.9580730044625625 [Eh]
	 SCS Correlation Energy    =      -2.1409122904334321 [Eh]
	 SCS Total Energy          =    -505.8669888675145216 [Eh]
	-----------------------------------------------------------

  Dipole Moment: [D]
     X:    -2.7579      Y:    -1.2518      Z:    -0.7895     Total:     3.1299

*** Psi4 exiting successfully. Buy a developer a beer!
