                               Psi4 1.3.2 release

  ==> Input File <==

--------------------------------------------------------------------------
#psi4
#
memory 32 gb

molecule  {
0 1
  N       -1.7893040    -0.1617730    -0.0001110
  N       -0.2713240    -1.8496560    -0.0082220
  N       -0.2672930     1.7497910     0.0010540
  N        2.0532340     1.0361840    -0.0078740
  N        2.7743486    -1.1431215     0.0755739
  C       -0.5487760     0.4359060     0.0048010
  C        0.3496485    -0.5543058     0.0030861
  C       -1.5569310    -1.5157420    -0.0063070
  C        1.7257650    -0.2653140     0.0014880
  C       -3.0654680     0.5328540     0.0028660
  C        1.0578830     1.9506280    -0.0091420
  H       -2.3786350    -2.2235800    -0.0126570
  H       -3.1454970     1.1693440    -0.8801020
  H       -3.8626160    -0.2117770    -0.0066990
  H       -3.1511970     1.1523310     0.8973960
  H        1.3824760     2.9891980    -0.0128990
  H        3.6364610    -0.8630510    -0.2195510
  H        2.4794860    -2.1327440    -0.2212610
units angstrom
no_reorient  #important for SAPT in psi4, default
symmetry c1  #important for SAPT in psi4, default
}

set PROPERTIES_ORIGIN ["COM"]
properties('MP2/aug-cc-pvtz', properties = ['dipole'])
--------------------------------------------------------------------------

    Molecular point group: c1
  Charge       = 0
  Multiplicity = 1
  Basis Set: AUG-CC-PVTZ
    Blend: AUG-CC-PVTZ
  Basis Set: (AUG-CC-PVTZ AUX)
    Blend: AUG-CC-PVTZ-JKFIT

    Orbital Energies [Eh]
    ---------------------

    Doubly Occupied:

       1A    -15.629440     2A    -15.584481     3A    -15.568005
       4A    -15.559027     5A    -15.549874     6A    -11.337480
       7A    -11.322938     8A    -11.310387     9A    -11.307982
      10A    -11.287637    11A    -11.249735    12A     -1.367512
      13A     -1.298527    14A     -1.241326    15A     -1.188835
      16A     -1.150823    17A     -1.041150    18A     -0.983096
      19A     -0.891348    20A     -0.870113    21A     -0.813388
      22A     -0.751450    23A     -0.725923    24A     -0.685639
      25A     -0.667172    26A     -0.659967    27A     -0.629654
      28A     -0.606900    29A     -0.595475    30A     -0.590150
      31A     -0.571383    32A     -0.536794    33A     -0.493753
      34A     -0.491129    35A     -0.445771    36A     -0.413127
      37A     -0.407000    38A     -0.368559    39A     -0.318312

  @DF-RHF Final Energy:  -503.71231461465516

   => Energetics <=

    Nuclear Repulsion Energy =            594.7779224434312937
    One-Electron Energy =               -1863.9579460420388841
    Two-Electron Energy =                 765.4677089839523205
    Total Energy =                       -503.7123146146551562
  Basis Set: (AUG-CC-PVTZ AUX)
    Blend: AUG-CC-PVTZ-RI
    Molecular point group: c1

    Geometry (in Angstrom), charge = 0, multiplicity = 1:

       Center              X                  Y                   Z               Mass
    ------------   -----------------  -----------------  -----------------  -----------------
         N           -1.825994431472    -0.173350799212    -0.002447108918    14.003074004430
         N           -0.308014431472    -1.861233799212    -0.010558108918    14.003074004430
         N           -0.303983431472     1.738213200788    -0.001282108918    14.003074004430
         N            2.016543568528     1.024606200788    -0.010210108918    14.003074004430
         N            2.737658168528    -1.154699299212     0.073237791082    14.003074004430
         C           -0.585466431472     0.424328200788     0.002464891082    12.000000000000
         C            0.312958068528    -0.565883599212     0.000749991082    12.000000000000
         C           -1.593621431472    -1.527319799212    -0.008643108918    12.000000000000
         C            1.689074568528    -0.276891799212    -0.000848108918    12.000000000000
         C           -3.102158431472     0.521276200788     0.000529891082    12.000000000000
         C            1.021192568528     1.939050200788    -0.011478108918    12.000000000000
         H           -2.415325431472    -2.235157799212    -0.014993108918     1.007825032230
         H           -3.182187431472     1.157766200788    -0.882438108918     1.007825032230
         H           -3.899306431472    -0.223354799212    -0.009035108918     1.007825032230
         H           -3.187887431472     1.140753200788     0.895059891082     1.007825032230
         H            1.345785568528     2.977620200788    -0.015235108918     1.007825032230
         H            3.599770568528    -0.874628799212    -0.221887108918     1.007825032230
         H            2.442795568528    -2.144321799212    -0.223597108918     1.007825032230

  Basis Set: AUG-CC-PVTZ
    Blend: AUG-CC-PVTZ
  Basis Set: (AUG-CC-PVTZ AUX)
    Blend: AUG-CC-PVTZ-JKFIT
	 Reference Energy          =    -503.7123146146551562 [Eh]
	 Singles Energy            =      -0.0000000000000000 [Eh]
	 Same-Spin Energy          =      -0.5481291479629720 [Eh]
	 Opposite-Spin Energy      =      -1.6328127977750055 [Eh]
	 Correlation Energy        =      -2.1809419457379775 [Eh]
	 Total Energy              =    -505.8932565603931266 [Eh]

	 ================> DF-SCS-MP2 Energies <==================
	-----------------------------------------------------------
	 SCS Same-Spin Scale       =       0.3333333333333333 [-]
	 SCS Opposite-Spin Scale   =       1.2000000000000000 [-]
	 SCS Same-Spin Energy      =      -0.1827097159876573 [Eh]
	 SCS Opposite-Spin Energy  =      -1.9593753573300066 [Eh]
	 SCS Correlation Energy    =      -2.1420850733176637 [Eh]
	 SCS Total Energy          =    -505.8543996879728297 [Eh]
	-----------------------------------------------------------

  Dipole Moment: [D]
     X:    -2.6330      Y:    -1.1881      Z:    -0.7849     Total:     2.9934

*** Psi4 exiting successfully. Buy a developer a beer!
