                               Psi4 1.4a3.dev225

  ==> Input File <==

--------------------------------------------------------------------------
#psi4
#
memory 32 gb

molecule  {
0 1
  N       -1.7889380    -0.1640290    -0.0179520
  N       -0.2703210    -1.8482040    -0.0023970
  N       -0.2671710     1.7490810    -0.0033560
  N        2.0541740     1.0368940    -0.0085470
  N        2.7206340    -1.1973270     0.0732090
  C       -0.5486140     0.4351420     0.0045870
  C        0.3558421    -0.6425034     0.0167088
  C       -1.5569260    -1.5161270    -0.0162740
  C        1.7266360    -0.2641570     0.0048060
  C       -3.0641060     0.5324820     0.0177850
  C        1.0564750     1.9508360    -0.0110870
  H       -2.3762040    -2.2259510    -0.0342240
  H       -2.9284720     1.5041700    -0.4579320
  H       -3.8067760    -0.0485880    -0.5312030
  H       -3.3972360     0.6796990     1.0480130
  H        1.3812150     2.9891510    -0.0228070
  H        3.6427950    -0.8729100    -0.1905990
  H        2.4748820    -2.1409930    -0.1987870
units angstrom
no_reorient  #important for SAPT in psi4, default
symmetry c1  #important for SAPT in psi4, default
}

set PROPERTIES_ORIGIN ["COM"]
properties('MP2/aug-cc-pvtz', properties = ['dipole'])
--------------------------------------------------------------------------

    Molecular point group: c1
  Charge       = 0
  Multiplicity = 1
  Basis Set: AUG-CC-PVTZ
    Blend: AUG-CC-PVTZ
  Basis Set: (AUG-CC-PVTZ AUX)
    Blend: AUG-CC-PVTZ-JKFIT

    Orbital Energies [Eh]
    ---------------------

    Doubly Occupied:

       1A    -15.632664     2A    -15.581489     3A    -15.566853
       4A    -15.559857     5A    -15.551768     6A    -11.336083
       7A    -11.320204     8A    -11.311688     9A    -11.311371
      10A    -11.286932    11A    -11.251856    12A     -1.368879
      13A     -1.295488    14A     -1.243553    15A     -1.199960
      16A     -1.151675    17A     -1.028408    18A     -0.985806
      19A     -0.890077    20A     -0.871101    21A     -0.802189
      22A     -0.753596    23A     -0.726978    24A     -0.681301
      25A     -0.674239    26A     -0.666221    27A     -0.625608
      28A     -0.603112    29A     -0.595021    30A     -0.591659
      31A     -0.570980    32A     -0.537191    33A     -0.495986
      34A     -0.491578    35A     -0.452810    36A     -0.415211
      37A     -0.407459    38A     -0.367911    39A     -0.303639

  @DF-RHF Final Energy:  -503.72388026329895

   => Energetics <=

    Nuclear Repulsion Energy =            594.5390625625985876
    One-Electron Energy =               -1863.5090877999041368
    Two-Electron Energy =                 765.2461449740064836
    Total Energy =                       -503.7238802632989518
  Basis Set: (AUG-CC-PVTZ AUX)
    Blend: AUG-CC-PVTZ-RI
    Molecular point group: c1

    Geometry (in Angstrom), charge = 0, multiplicity = 1:

       Center              X                  Y                   Z               Mass
    ------------   -----------------  -----------------  -----------------  -----------------
         N           -1.821590451647    -0.163359878206    -0.020509601297    14.003074004430
         N           -0.302973451647    -1.847534878206    -0.004954601297    14.003074004430
         N           -0.299823451647     1.749750121794    -0.005913601297    14.003074004430
         N            2.021521548353     1.037563121794    -0.011104601297    14.003074004430
         N            2.687981548353    -1.196657878206     0.070651398703    14.003074004430
         C           -0.581266451647     0.435811121794     0.002029398703    12.000000000000
         C            0.323189648353    -0.641834278206     0.014151198703    12.000000000000
         C           -1.589578451647    -1.515457878206    -0.018831601297    12.000000000000
         C            1.693983548353    -0.263487878206     0.002248398703    12.000000000000
         C           -3.096758451647     0.533151121794     0.015227398703    12.000000000000
         C            1.023822548353     1.951505121794    -0.013644601297    12.000000000000
         H           -2.408856451647    -2.225281878206    -0.036781601297     1.007825032230
         H           -2.961124451647     1.504839121794    -0.460489601297     1.007825032230
         H           -3.839428451647    -0.047918878206    -0.533760601297     1.007825032230
         H           -3.429888451647     0.680368121794     1.045455398703     1.007825032230
         H            1.348562548353     2.989820121794    -0.025364601297     1.007825032230
         H            3.610142548353    -0.872240878206    -0.193156601297     1.007825032230
         H            2.442229548353    -2.140323878206    -0.201344601297     1.007825032230

  Basis Set: AUG-CC-PVTZ
    Blend: AUG-CC-PVTZ
  Basis Set: (AUG-CC-PVTZ AUX)
    Blend: AUG-CC-PVTZ-JKFIT
	 Reference Energy          =    -503.7238802632989518 [Eh]
	 Singles Energy            =      -0.0000000000000000 [Eh]
	 Same-Spin Energy          =      -0.5496827996448628 [Eh]
	 Opposite-Spin Energy      =      -1.6331340870624278 [Eh]
	 Correlation Energy        =      -2.1828168867072906 [Eh]
	 Total Energy              =    -505.9066971500062664 [Eh]

	 ================> DF-SCS-MP2 Energies <==================
	-----------------------------------------------------------
	 SCS Same-Spin Scale       =       0.3333333333333333 [-]
	 SCS Opposite-Spin Scale   =       1.2000000000000000 [-]
	 SCS Same-Spin Energy      =      -0.1832275998816209 [Eh]
	 SCS Opposite-Spin Energy  =      -1.9597609044749134 [Eh]
	 SCS Correlation Energy    =      -2.1429885043565342 [Eh]
	 SCS Total Energy          =    -505.8668687676554896 [Eh]
	-----------------------------------------------------------

  Dipole Moment: [D]
     X:    -2.6471      Y:    -1.2279      Z:    -0.7112     Total:     3.0034

*** Psi4 exiting successfully. Buy a developer a beer!
