                               Psi4 1.3.2 release

  ==> Input File <==

--------------------------------------------------------------------------
#psi4
#
memory 32 gb

molecule  {
0 1
  N       -1.7995454    -0.1400318    -0.0002616
  N       -0.2713240    -1.8496560    -0.0082220
  N       -0.2902660     1.7545029     0.0008979
  N        2.0532340     1.0361840    -0.0078740
  N        2.7268170    -1.1967150     0.0786200
  C       -0.5487760     0.4359060     0.0048010
  C        0.3666280    -0.6257540     0.0082110
  C       -1.5569310    -1.5157420    -0.0063070
  C        1.7257650    -0.2653140     0.0014880
  C       -3.0654680     0.5328540     0.0028660
  C        1.0578830     1.9506280    -0.0091420
  H       -2.3786350    -2.2235800    -0.0126570
  H       -3.1454970     1.1693440    -0.8801020
  H       -3.8626160    -0.2117770    -0.0066990
  H       -3.1511970     1.1523310     0.8973960
  H        1.3824760     2.9891980    -0.0128990
  H        3.6364610    -0.8630510    -0.2195510
  H        2.4794860    -2.1327440    -0.2212610
units angstrom
no_reorient  #important for SAPT in psi4, default
symmetry c1  #important for SAPT in psi4, default
}

set PROPERTIES_ORIGIN ["COM"]
properties('MP2/aug-cc-pvtz', properties = ['dipole'])
--------------------------------------------------------------------------

    Molecular point group: c1
  Charge       = 0
  Multiplicity = 1
  Basis Set: AUG-CC-PVTZ
    Blend: AUG-CC-PVTZ
  Basis Set: (AUG-CC-PVTZ AUX)
    Blend: AUG-CC-PVTZ-JKFIT

    Orbital Energies [Eh]
    ---------------------

    Doubly Occupied:

       1A    -15.630978     2A    -15.582097     3A    -15.570350
       4A    -15.562635     5A    -15.554708     6A    -11.335739
       7A    -11.324823     8A    -11.315411     9A    -11.313966
      10A    -11.285602    11A    -11.252665    12A     -1.364322
      13A     -1.294585    14A     -1.240925    15A     -1.199557
      16A     -1.152593    17A     -1.029831    18A     -0.985282
      19A     -0.889214    20A     -0.870628    21A     -0.803121
      22A     -0.752418    23A     -0.724280    24A     -0.679667
      25A     -0.672022    26A     -0.665825    27A     -0.626494
      28A     -0.605576    29A     -0.595887    30A     -0.590278
      31A     -0.570689    32A     -0.534550    33A     -0.495120
      34A     -0.493724    35A     -0.452671    36A     -0.415388
      37A     -0.410294    38A     -0.368007    39A     -0.307284

  @DF-RHF Final Energy:  -503.72152433702649

   => Energetics <=

    Nuclear Repulsion Energy =            593.7226302343460702
    One-Electron Energy =               -1861.8498958939019303
    Two-Electron Energy =                 764.4057413225293658
    Total Energy =                       -503.7215243370264943
  Basis Set: (AUG-CC-PVTZ AUX)
    Blend: AUG-CC-PVTZ-RI
    Molecular point group: c1

    Geometry (in Angstrom), charge = 0, multiplicity = 1:

       Center              X                  Y                   Z               Mass
    ------------   -----------------  -----------------  -----------------  -----------------
         N           -1.830017696969    -0.143308625012    -0.003267586986    14.003074004430
         N           -0.301796296969    -1.852932825012    -0.011227986986    14.003074004430
         N           -0.320738296969     1.751226074988    -0.002108086986    14.003074004430
         N            2.022761703031     1.032907174988    -0.010879986986    14.003074004430
         N            2.696344703031    -1.199991825012     0.075614013014    14.003074004430
         C           -0.579248296969     0.432629174988     0.001795013014    12.000000000000
         C            0.336155703031    -0.629030825012     0.005205013014    12.000000000000
         C           -1.587403296969    -1.519018825012    -0.009312986986    12.000000000000
         C            1.695292703031    -0.268590825012    -0.001517986986    12.000000000000
         C           -3.095940296969     0.529577174988    -0.000139986986    12.000000000000
         C            1.027410703031     1.947351174988    -0.012147986986    12.000000000000
         H           -2.409107296969    -2.226856825012    -0.015662986986     1.007825032230
         H           -3.175969296969     1.166067174988    -0.883107986986     1.007825032230
         H           -3.893088296969    -0.215053825012    -0.009704986986     1.007825032230
         H           -3.181669296969     1.149054174988     0.894390013014     1.007825032230
         H            1.352003703031     2.985921174988    -0.015904986986     1.007825032230
         H            3.605988703031    -0.866327825012    -0.222556986986     1.007825032230
         H            2.449013703031    -2.136020825012    -0.224266986986     1.007825032230

  Basis Set: AUG-CC-PVTZ
    Blend: AUG-CC-PVTZ
  Basis Set: (AUG-CC-PVTZ AUX)
    Blend: AUG-CC-PVTZ-JKFIT
	 Reference Energy          =    -503.7215243370264943 [Eh]
	 Singles Energy            =      -0.0000000000000000 [Eh]
	 Same-Spin Energy          =      -0.5495671734359040 [Eh]
	 Opposite-Spin Energy      =      -1.6342583082387427 [Eh]
	 Correlation Energy        =      -2.1838254816746465 [Eh]
	 Total Energy              =    -505.9053498187011542 [Eh]

	 ================> DF-SCS-MP2 Energies <==================
	-----------------------------------------------------------
	 SCS Same-Spin Scale       =       0.3333333333333333 [-]
	 SCS Opposite-Spin Scale   =       1.2000000000000000 [-]
	 SCS Same-Spin Energy      =      -0.1831890578119680 [Eh]
	 SCS Opposite-Spin Energy  =      -1.9611099698864911 [Eh]
	 SCS Correlation Energy    =      -2.1442990276984593 [Eh]
	 SCS Total Energy          =    -505.8658233647249745 [Eh]
	-----------------------------------------------------------

  Dipole Moment: [D]
     X:    -2.6030      Y:    -1.2315      Z:    -0.7889     Total:     2.9857

*** Psi4 exiting successfully. Buy a developer a beer!
