                               Psi4 1.3.2 release

  ==> Input File <==

--------------------------------------------------------------------------
#psi4
#
memory 32 gb

molecule  {
0 1
  N       -1.7893040    -0.1617730    -0.0001110
  N       -0.2713240    -1.8496560    -0.0082220
  N       -0.2672930     1.7497910     0.0010540
  N        2.0532340     1.0361840    -0.0078740
  N        2.7268170    -1.1967150     0.0786200
  C       -0.5487760     0.4359060     0.0048010
  C        0.3666280    -0.6257540     0.0082110
  C       -1.5569310    -1.5157420    -0.0063070
  C        1.7713868    -0.2759508     0.0013552
  C       -3.0654680     0.5328540     0.0028660
  C        1.0904024     1.9848070    -0.0094915
  H       -2.3786350    -2.2235800    -0.0126570
  H       -3.1454970     1.1693440    -0.8801020
  H       -3.8626160    -0.2117770    -0.0066990
  H       -3.1511970     1.1523310     0.8973960
  H        1.3824760     2.9891980    -0.0128990
  H        3.6364610    -0.8630510    -0.2195510
  H        2.4794860    -2.1327440    -0.2212610
units angstrom
no_reorient  #important for SAPT in psi4, default
symmetry c1  #important for SAPT in psi4, default
}

set PROPERTIES_ORIGIN ["COM"]
properties('MP2/aug-cc-pvtz', properties = ['dipole'])
--------------------------------------------------------------------------

    Molecular point group: c1
  Charge       = 0
  Multiplicity = 1
  Basis Set: AUG-CC-PVTZ
    Blend: AUG-CC-PVTZ
  Basis Set: (AUG-CC-PVTZ AUX)
    Blend: AUG-CC-PVTZ-JKFIT

    Orbital Energies [Eh]
    ---------------------

    Doubly Occupied:

       1A    -15.629433     2A    -15.588344     3A    -15.564264
       4A    -15.557967     5A    -15.551055     6A    -11.338758
       7A    -11.318718     8A    -11.313373     9A    -11.307607
      10A    -11.285843    11A    -11.251903    12A     -1.362842
      13A     -1.296780    14A     -1.242520    15A     -1.196532
      16A     -1.148426    17A     -1.023259    18A     -0.981697
      19A     -0.892331    20A     -0.866767    21A     -0.802311
      22A     -0.753741    23A     -0.731794    24A     -0.682426
      25A     -0.677730    26A     -0.662479    27A     -0.629278
      28A     -0.604574    29A     -0.595205    30A     -0.589712
      31A     -0.570528    32A     -0.539822    33A     -0.492878
      34A     -0.491247    35A     -0.446849    36A     -0.412203
      37A     -0.398714    38A     -0.366738    39A     -0.298556

  @DF-RHF Final Energy:  -503.71641740135522

   => Energetics <=

    Nuclear Repulsion Energy =            592.8557937951628674
    One-Electron Energy =               -1860.2140166801718806
    Two-Electron Energy =                 763.6418054836539113
    Total Energy =                       -503.7164174013552156
  Basis Set: (AUG-CC-PVTZ AUX)
    Blend: AUG-CC-PVTZ-RI
    Molecular point group: c1

    Geometry (in Angstrom), charge = 0, multiplicity = 1:

       Center              X                  Y                   Z               Mass
    ------------   -----------------  -----------------  -----------------  -----------------
         N           -1.829186619196    -0.164460046846    -0.003106972525    14.003074004430
         N           -0.311206619196    -1.852343046846    -0.011217972525    14.003074004430
         N           -0.307175619196     1.747103953154    -0.001941972525    14.003074004430
         N            2.013351380804     1.033496953154    -0.010869972525    14.003074004430
         N            2.686934380804    -1.199402046846     0.075624027475    14.003074004430
         C           -0.588658619196     0.433218953154     0.001805027475    12.000000000000
         C            0.326745380804    -0.628441046846     0.005215027475    12.000000000000
         C           -1.596813619196    -1.518429046846    -0.009302972525    12.000000000000
         C            1.731504180804    -0.278637846846    -0.001640772525    12.000000000000
         C           -3.105350619196     0.530166953154    -0.000129972525    12.000000000000
         C            1.050519780804     1.982119953154    -0.012487472525    12.000000000000
         H           -2.418517619196    -2.226267046846    -0.015652972525     1.007825032230
         H           -3.185379619196     1.166656953154    -0.883097972525     1.007825032230
         H           -3.902498619196    -0.214464046846    -0.009694972525     1.007825032230
         H           -3.191079619196     1.149643953154     0.894400027475     1.007825032230
         H            1.342593380804     2.986510953154    -0.015894972525     1.007825032230
         H            3.596578380804    -0.865738046846    -0.222546972525     1.007825032230
         H            2.439603380804    -2.135431046846    -0.224256972525     1.007825032230

  Basis Set: AUG-CC-PVTZ
    Blend: AUG-CC-PVTZ
  Basis Set: (AUG-CC-PVTZ AUX)
    Blend: AUG-CC-PVTZ-JKFIT
	 Reference Energy          =    -503.7164174013552156 [Eh]
	 Singles Energy            =      -0.0000000000000000 [Eh]
	 Same-Spin Energy          =      -0.5500423190294054 [Eh]
	 Opposite-Spin Energy      =      -1.6343891322340021 [Eh]
	 Correlation Energy        =      -2.1844314512634075 [Eh]
	 Total Energy              =    -505.9008488526186511 [Eh]

	 ================> DF-SCS-MP2 Energies <==================
	-----------------------------------------------------------
	 SCS Same-Spin Scale       =       0.3333333333333333 [-]
	 SCS Opposite-Spin Scale   =       1.2000000000000000 [-]
	 SCS Same-Spin Energy      =      -0.1833474396764684 [Eh]
	 SCS Opposite-Spin Energy  =      -1.9612669586808025 [Eh]
	 SCS Correlation Energy    =      -2.1446143983572710 [Eh]
	 SCS Total Energy          =    -505.8610317997124639 [Eh]
	-----------------------------------------------------------

  Dipole Moment: [D]
     X:    -2.3116      Y:    -1.3020      Z:    -0.7795     Total:     2.7652

*** Psi4 exiting successfully. Buy a developer a beer!
