                               Psi4 1.3.2 release

  ==> Input File <==

--------------------------------------------------------------------------
#psi4
#
memory 32 gb

molecule  {
0 1
  N       -1.7893040    -0.1617730    -0.0001110
  N       -0.2713240    -1.8496560    -0.0082220
  N       -0.2672930     1.7497910     0.0010540
  N        2.0532340     1.0361840    -0.0078740
  N        2.7268170    -1.1967150     0.0786200
  C       -0.5487760     0.4359060     0.0048010
  C        0.3666280    -0.6257540     0.0082110
  C       -1.5569310    -1.5157420    -0.0063070
  C        1.7745647    -0.0713639     0.0000929
  C       -3.0654680     0.5328540     0.0028660
  C        1.0578830     1.9506280    -0.0091420
  H       -2.3786350    -2.2235800    -0.0126570
  H       -3.1454970     1.1693440    -0.8801020
  H       -3.8626160    -0.2117770    -0.0066990
  H       -3.1511970     1.1523310     0.8973960
  H        1.3824760     2.9891980    -0.0128990
  H        3.6364610    -0.8630510    -0.2195510
  H        2.4794860    -2.1327440    -0.2212610
units angstrom
no_reorient  #important for SAPT in psi4, default
symmetry c1  #important for SAPT in psi4, default
}

set PROPERTIES_ORIGIN ["COM"]
properties('MP2/aug-cc-pvtz', properties = ['dipole'])
--------------------------------------------------------------------------

    Molecular point group: c1
  Charge       = 0
  Multiplicity = 1
  Basis Set: AUG-CC-PVTZ
    Blend: AUG-CC-PVTZ
  Basis Set: (AUG-CC-PVTZ AUX)
    Blend: AUG-CC-PVTZ-JKFIT

    Orbital Energies [Eh]
    ---------------------

    Doubly Occupied:

       1A    -15.632575     2A    -15.580310     3A    -15.568809
       4A    -15.558155     5A    -15.553543     6A    -11.327060
       7A    -11.327027     8A    -11.319306     9A    -11.301987
      10A    -11.288511    11A    -11.258991    12A     -1.374910
      13A     -1.343951    14A     -1.238537    15A     -1.194247
      16A     -1.156550    17A     -1.024169    18A     -0.979714
      19A     -0.915318    20A     -0.866485    21A     -0.801506
      22A     -0.751866    23A     -0.719208    24A     -0.682508
      25A     -0.666562    26A     -0.660974    27A     -0.636120
      28A     -0.611415    29A     -0.602835    30A     -0.575391
      31A     -0.570229    32A     -0.551001    33A     -0.500960
      34A     -0.485656    35A     -0.462302    36A     -0.412510
      37A     -0.398145    38A     -0.387483    39A     -0.304138

  @DF-RHF Final Energy:  -503.66195595300286

   => Energetics <=

    Nuclear Repulsion Energy =            595.1372821258323711
    One-Electron Energy =               -1864.4165446953745686
    Two-Electron Energy =                 765.6173066165393948
    Total Energy =                       -503.6619559530028027
  Basis Set: (AUG-CC-PVTZ AUX)
    Blend: AUG-CC-PVTZ-RI
    Molecular point group: c1

    Geometry (in Angstrom), charge = 0, multiplicity = 1:

       Center              X                  Y                   Z               Mass
    ------------   -----------------  -----------------  -----------------  -----------------
         N           -1.826824657319    -0.178177715106    -0.003033493023    14.003074004430
         N           -0.308844657319    -1.866060715106    -0.011144493023    14.003074004430
         N           -0.304813657319     1.733386284894    -0.001868493023    14.003074004430
         N            2.015713342681     1.019779284894    -0.010796493023    14.003074004430
         N            2.689296342681    -1.213119715106     0.075697506977    14.003074004430
         C           -0.586296657319     0.419501284894     0.001878506977    12.000000000000
         C            0.329107342681    -0.642158715106     0.005288506977    12.000000000000
         C           -1.594451657319    -1.532146715106    -0.009229493023    12.000000000000
         C            1.737044042681    -0.087768615106    -0.002829593023    12.000000000000
         C           -3.102988657319     0.516449284894    -0.000056493023    12.000000000000
         C            1.020362342681     1.934223284894    -0.012064493023    12.000000000000
         H           -2.416155657319    -2.239984715106    -0.015579493023     1.007825032230
         H           -3.183017657319     1.152939284894    -0.883024493023     1.007825032230
         H           -3.900136657319    -0.228181715106    -0.009621493023     1.007825032230
         H           -3.188717657319     1.135926284894     0.894473506977     1.007825032230
         H            1.344955342681     2.972793284894    -0.015821493023     1.007825032230
         H            3.598940342681    -0.879455715106    -0.222473493023     1.007825032230
         H            2.441965342681    -2.149148715106    -0.224183493023     1.007825032230

  Basis Set: AUG-CC-PVTZ
    Blend: AUG-CC-PVTZ
  Basis Set: (AUG-CC-PVTZ AUX)
    Blend: AUG-CC-PVTZ-JKFIT
	 Reference Energy          =    -503.6619559530028596 [Eh]
	 Singles Energy            =      -0.0000000000000000 [Eh]
	 Same-Spin Energy          =      -0.5489327591481225 [Eh]
	 Opposite-Spin Energy      =      -1.6337957027798204 [Eh]
	 Correlation Energy        =      -2.1827284619279430 [Eh]
	 Total Energy              =    -505.8446844149307822 [Eh]

	 ================> DF-SCS-MP2 Energies <==================
	-----------------------------------------------------------
	 SCS Same-Spin Scale       =       0.3333333333333333 [-]
	 SCS Opposite-Spin Scale   =       1.2000000000000000 [-]
	 SCS Same-Spin Energy      =      -0.1829775863827075 [Eh]
	 SCS Opposite-Spin Energy  =      -1.9605548433357844 [Eh]
	 SCS Correlation Energy    =      -2.1435324297184919 [Eh]
	 SCS Total Energy          =    -505.8054883827213644 [Eh]
	-----------------------------------------------------------

  Dipole Moment: [D]
     X:    -3.1585      Y:    -0.0586      Z:    -0.8268     Total:     3.2655

*** Psi4 exiting successfully. Buy a developer a beer!
