                               Psi4 1.4a3.dev225

  ==> Input File <==

--------------------------------------------------------------------------
#psi4
#
memory 32 gb

molecule  {
0 1
  N       -1.7889380    -0.1640290    -0.0179520
  N       -0.2703210    -1.8482040    -0.0023970
  N       -0.2671710     1.7490810    -0.0033560
  N        2.0541740     1.0368940    -0.0085470
  N        2.7206340    -1.1973270     0.0732090
  C       -0.5486140     0.4351420     0.0045870
  C        0.3650590    -0.6247560     0.0169900
  C       -1.5569260    -1.5161270    -0.0162740
  C        1.7266360    -0.2641570     0.0048060
  C       -3.0641060     0.5324820     0.0177850
  C        1.0070467     1.9433020    -0.0107983
  H       -2.3762040    -2.2259510    -0.0342240
  H       -2.9284720     1.5041700    -0.4579320
  H       -3.8067760    -0.0485880    -0.5312030
  H       -3.3972360     0.6796990     1.0480130
  H        1.3812150     2.9891510    -0.0228070
  H        3.6427950    -0.8729100    -0.1905990
  H        2.4748820    -2.1409930    -0.1987870
units angstrom
no_reorient  #important for SAPT in psi4, default
symmetry c1  #important for SAPT in psi4, default
}

set PROPERTIES_ORIGIN ["COM"]
properties('MP2/aug-cc-pvtz', properties = ['dipole'])
--------------------------------------------------------------------------

    Molecular point group: c1
  Charge       = 0
  Multiplicity = 1
  Basis Set: AUG-CC-PVTZ
    Blend: AUG-CC-PVTZ
  Basis Set: (AUG-CC-PVTZ AUX)
    Blend: AUG-CC-PVTZ-JKFIT

    Orbital Energies [Eh]
    ---------------------

    Doubly Occupied:

       1A    -15.634182     2A    -15.580452     3A    -15.568331
       4A    -15.560610     5A    -15.549655     6A    -11.333093
       7A    -11.320343     8A    -11.313476     9A    -11.309476
      10A    -11.288336    11A    -11.251763    12A     -1.369525
      13A     -1.297592    14A     -1.250754    15A     -1.197574
      16A     -1.149450    17A     -1.032982    18A     -0.986092
      19A     -0.886918    20A     -0.872479    21A     -0.804498
      22A     -0.755181    23A     -0.723178    24A     -0.681260
      25A     -0.673759    26A     -0.667720    27A     -0.626065
      28A     -0.605903    29A     -0.595215    30A     -0.591622
      31A     -0.570867    32A     -0.536010    33A     -0.502310
      34A     -0.488360    35A     -0.449898    36A     -0.414642
      37A     -0.409088    38A     -0.364718    39A     -0.311446

  @DF-RHF Final Energy:  -503.72269676358826

   => Energetics <=

    Nuclear Repulsion Energy =            595.1865506736145335
    One-Electron Energy =               -1864.7688435866477903
    Two-Electron Energy =                 765.8595961494448829
    Total Energy =                       -503.7226967635882602
  Basis Set: (AUG-CC-PVTZ AUX)
    Blend: AUG-CC-PVTZ-RI
    Molecular point group: c1

    Geometry (in Angstrom), charge = 0, multiplicity = 1:

       Center              X                  Y                   Z               Mass
    ------------   -----------------  -----------------  -----------------  -----------------
         N           -1.818353473517    -0.164182046855    -0.020555477686    14.003074004430
         N           -0.299736473517    -1.848357046855    -0.005000477686    14.003074004430
         N           -0.296586473517     1.748927953145    -0.005959477686    14.003074004430
         N            2.024758526483     1.036740953145    -0.011150477686    14.003074004430
         N            2.691218526483    -1.197480046855     0.070605522314    14.003074004430
         C           -0.578029473517     0.434988953145     0.001983522314    12.000000000000
         C            0.335643526483    -0.624909046855     0.014386522314    12.000000000000
         C           -1.586341473517    -1.516280046855    -0.018877477686    12.000000000000
         C            1.697220526483    -0.264310046855     0.002202522314    12.000000000000
         C           -3.093521473517     0.532328953145     0.015181522314    12.000000000000
         C            0.977631226483     1.943148953145    -0.013401777686    12.000000000000
         H           -2.405619473517    -2.226104046855    -0.036827477686     1.007825032230
         H           -2.957887473517     1.504016953145    -0.460535477686     1.007825032230
         H           -3.836191473517    -0.048741046855    -0.533806477686     1.007825032230
         H           -3.426651473517     0.679545953145     1.045409522314     1.007825032230
         H            1.351799526483     2.988997953145    -0.025410477686     1.007825032230
         H            3.613379526483    -0.873063046855    -0.193202477686     1.007825032230
         H            2.445466526483    -2.141146046855    -0.201390477686     1.007825032230

  Basis Set: AUG-CC-PVTZ
    Blend: AUG-CC-PVTZ
  Basis Set: (AUG-CC-PVTZ AUX)
    Blend: AUG-CC-PVTZ-JKFIT
	 Reference Energy          =    -503.7226967635882602 [Eh]
	 Singles Energy            =      -0.0000000000000000 [Eh]
	 Same-Spin Energy          =      -0.5489973302306229 [Eh]
	 Opposite-Spin Energy      =      -1.6325202009830388 [Eh]
	 Correlation Energy        =      -2.1815175312136619 [Eh]
	 Total Energy              =    -505.9042142948019318 [Eh]

	 ================> DF-SCS-MP2 Energies <==================
	-----------------------------------------------------------
	 SCS Same-Spin Scale       =       0.3333333333333333 [-]
	 SCS Opposite-Spin Scale   =       1.2000000000000000 [-]
	 SCS Same-Spin Energy      =      -0.1829991100768743 [Eh]
	 SCS Opposite-Spin Energy  =      -1.9590242411796466 [Eh]
	 SCS Correlation Energy    =      -2.1420233512565208 [Eh]
	 SCS Total Energy          =    -505.8647201148447721 [Eh]
	-----------------------------------------------------------

  Dipole Moment: [D]
     X:    -2.7999      Y:    -1.1867      Z:    -0.7117     Total:     3.1232

*** Psi4 exiting successfully. Buy a developer a beer!
