                               Psi4 1.3.2 release

  ==> Input File <==

--------------------------------------------------------------------------
#psi4
#
memory 32 gb

molecule  {
0 1
  N       -1.7893040    -0.1617730    -0.0001110
  N       -0.2713240    -1.8496560    -0.0082220
  N       -0.2672930     1.7497910     0.0010540
  N        2.0532340     1.0361840    -0.0078740
  N        2.7268170    -1.1967150     0.0786200
  C       -0.4919587     0.4823578     0.0043290
  C        0.3666280    -0.6257540     0.0082110
  C       -1.5569310    -1.5157420    -0.0063070
  C        1.7050367    -0.1946768     0.0011272
  C       -3.0654680     0.5328540     0.0028660
  C        1.0578830     1.9506280    -0.0091420
  H       -2.3786350    -2.2235800    -0.0126570
  H       -3.1454970     1.1693440    -0.8801020
  H       -3.8626160    -0.2117770    -0.0066990
  H       -3.1511970     1.1523310     0.8973960
  H        1.3824760     2.9891980    -0.0128990
  H        3.6364610    -0.8630510    -0.2195510
  H        2.4794860    -2.1327440    -0.2212610
units angstrom
no_reorient  #important for SAPT in psi4, default
symmetry c1  #important for SAPT in psi4, default
}

set PROPERTIES_ORIGIN ["COM"]
properties('MP2/aug-cc-pvtz', properties = ['dipole'])
--------------------------------------------------------------------------

    Molecular point group: c1
  Charge       = 0
  Multiplicity = 1
  Basis Set: AUG-CC-PVTZ
    Blend: AUG-CC-PVTZ
  Basis Set: (AUG-CC-PVTZ AUX)
    Blend: AUG-CC-PVTZ-JKFIT

    Orbital Energies [Eh]
    ---------------------

    Doubly Occupied:

       1A    -15.627302     2A    -15.570906     3A    -15.567875
       4A    -15.566333     5A    -15.559807     6A    -11.329775
       7A    -11.326630     8A    -11.320607     9A    -11.315398
      10A    -11.285129    11A    -11.256986    12A     -1.362512
      13A     -1.311706    14A     -1.246380    15A     -1.187994
      16A     -1.160799    17A     -1.034317    18A     -0.977655
      19A     -0.898073    20A     -0.879073    21A     -0.801132
      22A     -0.753691    23A     -0.716393    24A     -0.678840
      25A     -0.667428    26A     -0.661115    27A     -0.626995
      28A     -0.603859    29A     -0.599963    30A     -0.590360
      31A     -0.558056    32A     -0.535688    33A     -0.505013
      34A     -0.496856    35A     -0.461138    36A     -0.417960
      37A     -0.405774    38A     -0.381118    39A     -0.308784

  @DF-RHF Final Energy:  -503.70940193582311

   => Energetics <=

    Nuclear Repulsion Energy =            594.9207745772736189
    One-Electron Energy =               -1864.1495124169882729
    Two-Electron Energy =                 765.5193359038914878
    Total Energy =                       -503.7094019358230526
  Basis Set: (AUG-CC-PVTZ AUX)
    Blend: AUG-CC-PVTZ-RI
    Molecular point group: c1

    Geometry (in Angstrom), charge = 0, multiplicity = 1:

       Center              X                  Y                   Z               Mass
    ------------   -----------------  -----------------  -----------------  -----------------
         N           -1.825801458477    -0.171990472191    -0.003078757620    14.003074004430
         N           -0.307821458477    -1.859873472191    -0.011189757620    14.003074004430
         N           -0.303790458477     1.739573527809    -0.001913757620    14.003074004430
         N            2.016736541523     1.025966527809    -0.010841757620    14.003074004430
         N            2.690319541523    -1.206932472191     0.075652242380    14.003074004430
         C           -0.528456158477     0.472140327809     0.001361242380    12.000000000000
         C            0.330130541523    -0.635971472191     0.005243242380    12.000000000000
         C           -1.593428458477    -1.525959472191    -0.009274757620    12.000000000000
         C            1.668539241523    -0.204894272191    -0.001840557620    12.000000000000
         C           -3.101965458477     0.522636527809    -0.000101757620    12.000000000000
         C            1.021385541523     1.940410527809    -0.012109757620    12.000000000000
         H           -2.415132458477    -2.233797472191    -0.015624757620     1.007825032230
         H           -3.181994458477     1.159126527809    -0.883069757620     1.007825032230
         H           -3.899113458477    -0.221994472191    -0.009666757620     1.007825032230
         H           -3.187694458477     1.142113527809     0.894428242380     1.007825032230
         H            1.345978541523     2.978980527809    -0.015866757620     1.007825032230
         H            3.599963541523    -0.873268472191    -0.222518757620     1.007825032230
         H            2.442988541523    -2.142961472191    -0.224228757620     1.007825032230

  Basis Set: AUG-CC-PVTZ
    Blend: AUG-CC-PVTZ
  Basis Set: (AUG-CC-PVTZ AUX)
    Blend: AUG-CC-PVTZ-JKFIT
	 Reference Energy          =    -503.7094019358231094 [Eh]
	 Singles Energy            =      -0.0000000000000000 [Eh]
	 Same-Spin Energy          =      -0.5495246940911878 [Eh]
	 Opposite-Spin Energy      =      -1.6332600763277427 [Eh]
	 Correlation Energy        =      -2.1827847704189303 [Eh]
	 Total Energy              =    -505.8921867062420574 [Eh]

	 ================> DF-SCS-MP2 Energies <==================
	-----------------------------------------------------------
	 SCS Same-Spin Scale       =       0.3333333333333333 [-]
	 SCS Opposite-Spin Scale   =       1.2000000000000000 [-]
	 SCS Same-Spin Energy      =      -0.1831748980303959 [Eh]
	 SCS Opposite-Spin Energy  =      -1.9599120915932913 [Eh]
	 SCS Correlation Energy    =      -2.1430869896236873 [Eh]
	 SCS Total Energy          =    -505.8524889254467780 [Eh]
	-----------------------------------------------------------

  Dipole Moment: [D]
     X:    -2.9283      Y:    -0.5409      Z:    -0.8083     Total:     3.0856

*** Psi4 exiting successfully. Buy a developer a beer!
