                               Psi4 1.3.2 release

  ==> Input File <==

--------------------------------------------------------------------------
#psi4
#
memory 32 gb

molecule  {
0 1
  N       -1.7893040    -0.1617730    -0.0001110
  N       -0.2713240    -1.8496560    -0.0082220
  N       -0.2672930     1.7497910     0.0010540
  N        2.0532340     1.0361840    -0.0078740
  N        2.7268170    -1.1967150     0.0786200
  C       -0.5027518     0.4268821     0.0044668
  C        0.3666280    -0.6257540     0.0082110
  C       -1.5569310    -1.5157420    -0.0063070
  C        1.7257650    -0.2653140     0.0014880
  C       -3.0654680     0.5328540     0.0028660
  C        1.0640851     1.9042563    -0.0091309
  H       -2.3786350    -2.2235800    -0.0126570
  H       -3.1454970     1.1693440    -0.8801020
  H       -3.8626160    -0.2117770    -0.0066990
  H       -3.1511970     1.1523310     0.8973960
  H        1.3824760     2.9891980    -0.0128990
  H        3.6364610    -0.8630510    -0.2195510
  H        2.4794860    -2.1327440    -0.2212610
units angstrom
no_reorient  #important for SAPT in psi4, default
symmetry c1  #important for SAPT in psi4, default
}

set PROPERTIES_ORIGIN ["COM"]
properties('MP2/aug-cc-pvtz', properties = ['dipole'])
--------------------------------------------------------------------------

    Molecular point group: c1
  Charge       = 0
  Multiplicity = 1
  Basis Set: AUG-CC-PVTZ
    Blend: AUG-CC-PVTZ
  Basis Set: (AUG-CC-PVTZ AUX)
    Blend: AUG-CC-PVTZ-JKFIT

    Orbital Energies [Eh]
    ---------------------

    Doubly Occupied:

       1A    -15.628254     2A    -15.584710     3A    -15.564406
       4A    -15.561279     5A    -15.554037     6A    -11.338562
       7A    -11.323187     8A    -11.311801     9A    -11.310655
      10A    -11.286535    11A    -11.250542    12A     -1.363620
      13A     -1.304599    14A     -1.245314    15A     -1.193641
      16A     -1.162106    17A     -1.036311    18A     -0.982075
      19A     -0.891822    20A     -0.867873    21A     -0.806606
      22A     -0.756205    23A     -0.718676    24A     -0.679581
      25A     -0.672312    26A     -0.662566    27A     -0.625116
      28A     -0.610638    29A     -0.598344    30A     -0.586936
      31A     -0.561822    32A     -0.537919    33A     -0.498107
      34A     -0.491033    35A     -0.450801    36A     -0.419692
      37A     -0.410224    38A     -0.375895    39A     -0.310840

  @DF-RHF Final Energy:  -503.72022752952046

   => Energetics <=

    Nuclear Repulsion Energy =            595.5501014676282239
    One-Electron Energy =               -1865.4713837971171415
    Two-Electron Energy =                 766.2010547999683467
    Total Energy =                       -503.7202275295204572
  Basis Set: (AUG-CC-PVTZ AUX)
    Blend: AUG-CC-PVTZ-RI
    Molecular point group: c1

    Geometry (in Angstrom), charge = 0, multiplicity = 1:

       Center              X                  Y                   Z               Mass
    ------------   -----------------  -----------------  -----------------  -----------------
         N           -1.827100495248    -0.158105631624    -0.003119787968    14.003074004430
         N           -0.309120495248    -1.845988631624    -0.011230787968    14.003074004430
         N           -0.305089495248     1.753458368376    -0.001954787968    14.003074004430
         N            2.015437504752     1.039851368376    -0.010882787968    14.003074004430
         N            2.689020504752    -1.193047631624     0.075611212032    14.003074004430
         C           -0.540548295248     0.430549468376     0.001458012032    12.000000000000
         C            0.328831504752    -0.622086631624     0.005202212032    12.000000000000
         C           -1.594727495248    -1.512074631624    -0.009315787968    12.000000000000
         C            1.687968504752    -0.261646631624    -0.001520787968    12.000000000000
         C           -3.103264495248     0.536521368376    -0.000142787968    12.000000000000
         C            1.026288604752     1.907923668376    -0.012139687968    12.000000000000
         H           -2.416431495248    -2.219912631624    -0.015665787968     1.007825032230
         H           -3.183293495248     1.173011368376    -0.883110787968     1.007825032230
         H           -3.900412495248    -0.208109631624    -0.009707787968     1.007825032230
         H           -3.188993495248     1.155998368376     0.894387212032     1.007825032230
         H            1.344679504752     2.992865368376    -0.015907787968     1.007825032230
         H            3.598664504752    -0.859383631624    -0.222559787968     1.007825032230
         H            2.441689504752    -2.129076631624    -0.224269787968     1.007825032230

  Basis Set: AUG-CC-PVTZ
    Blend: AUG-CC-PVTZ
  Basis Set: (AUG-CC-PVTZ AUX)
    Blend: AUG-CC-PVTZ-JKFIT
	 Reference Energy          =    -503.7202275295204572 [Eh]
	 Singles Energy            =      -0.0000000000000000 [Eh]
	 Same-Spin Energy          =      -0.5487406935479395 [Eh]
	 Opposite-Spin Energy      =      -1.6325744182858730 [Eh]
	 Correlation Energy        =      -2.1813151118338125 [Eh]
	 Total Energy              =    -505.9015426413542968 [Eh]

	 ================> DF-SCS-MP2 Energies <==================
	-----------------------------------------------------------
	 SCS Same-Spin Scale       =       0.3333333333333333 [-]
	 SCS Opposite-Spin Scale   =       1.2000000000000000 [-]
	 SCS Same-Spin Energy      =      -0.1829135645159798 [Eh]
	 SCS Opposite-Spin Energy  =      -1.9590893019430475 [Eh]
	 SCS Correlation Energy    =      -2.1420028664590274 [Eh]
	 SCS Total Energy          =    -505.8622303959795090 [Eh]
	-----------------------------------------------------------

  Dipole Moment: [D]
     X:    -2.4869      Y:    -1.2456      Z:    -0.7867     Total:     2.8905

*** Psi4 exiting successfully. Buy a developer a beer!
