                               Psi4 1.3.2 release

  ==> Input File <==

--------------------------------------------------------------------------
#psi4
#
memory 32 gb

molecule  {
0 1
  N       -1.7893040    -0.1617730    -0.0001110
  N       -0.2713240    -1.8496560    -0.0082220
  N       -0.2672930     1.7497910     0.0010540
  N        2.0532340     1.0361840    -0.0078740
  N        2.7268170    -1.1967150     0.0786200
  C       -0.5487760     0.4359060     0.0048010
  C        0.3666280    -0.6257540     0.0082110
  C       -1.5569310    -1.5157420    -0.0063070
  C        1.7257650    -0.2653140     0.0014880
  C       -3.0654680     0.5328540     0.0028660
  C        1.0578830     1.9506280    -0.0091420
  H       -2.3786350    -2.2235800    -0.0126570
  H       -3.1454970     1.1693440    -0.8801020
  H       -3.8812304    -0.1902960     0.0428369
  H       -3.1970254     1.1216772     0.9124071
  H        1.3824760     2.9891980    -0.0128990
  H        3.6364610    -0.8630510    -0.2195510
  H        2.4794860    -2.1327440    -0.2212610
units angstrom
no_reorient  #important for SAPT in psi4, default
symmetry c1  #important for SAPT in psi4, default
}

set PROPERTIES_ORIGIN ["COM"]
properties('MP2/aug-cc-pvtz', properties = ['dipole'])
--------------------------------------------------------------------------

    Molecular point group: c1
  Charge       = 0
  Multiplicity = 1
  Basis Set: AUG-CC-PVTZ
    Blend: AUG-CC-PVTZ
  Basis Set: (AUG-CC-PVTZ AUX)
    Blend: AUG-CC-PVTZ-JKFIT

    Orbital Energies [Eh]
    ---------------------

    Doubly Occupied:

       1A    -15.633801     2A    -15.581028     3A    -15.567532
       4A    -15.560626     5A    -15.552367     6A    -11.334556
       7A    -11.322651     8A    -11.313324     9A    -11.311533
      10A    -11.288544    11A    -11.251989    12A     -1.367894
      13A     -1.296178    14A     -1.242267    15A     -1.196756
      16A     -1.151871    17A     -1.031423    18A     -0.986176
      19A     -0.890677    20A     -0.872026    21A     -0.803580
      22A     -0.754189    23A     -0.724089    24A     -0.682091
      25A     -0.673246    26A     -0.666499    27A     -0.624708
      28A     -0.605166    29A     -0.598548    30A     -0.589409
      31A     -0.569082    32A     -0.537200    33A     -0.495572
      34A     -0.492533    35A     -0.450550    36A     -0.414712
      37A     -0.408518    38A     -0.368578    39A     -0.307845

  @DF-RHF Final Energy:  -503.72397002403540

   => Energetics <=

    Nuclear Repulsion Energy =            594.1990889955058037
    One-Electron Energy =               -1862.8074479081521986
    Two-Electron Energy =                 764.8843888886110562
    Total Energy =                       -503.7239700240354523
  Basis Set: (AUG-CC-PVTZ AUX)
    Blend: AUG-CC-PVTZ-RI
    Molecular point group: c1

    Geometry (in Angstrom), charge = 0, multiplicity = 1:

       Center              X                  Y                   Z               Mass
    ------------   -----------------  -----------------  -----------------  -----------------
         N           -1.822460648242    -0.162502907963    -0.003582182918    14.003074004430
         N           -0.304480648242    -1.850385907963    -0.011693182918    14.003074004430
         N           -0.300449648242     1.749061092037    -0.002417182918    14.003074004430
         N            2.020077351758     1.035454092037    -0.011345182918    14.003074004430
         N            2.693660351758    -1.197444907963     0.075148817082    14.003074004430
         C           -0.581932648242     0.435176092037     0.001329817082    12.000000000000
         C            0.333471351758    -0.626483907963     0.004739817082    12.000000000000
         C           -1.590087648242    -1.516471907963    -0.009778182918    12.000000000000
         C            1.692608351758    -0.266043907963    -0.001983182918    12.000000000000
         C           -3.098624648242     0.532124092037    -0.000605182918    12.000000000000
         C            1.024726351758     1.949898092037    -0.012613182918    12.000000000000
         H           -2.411791648242    -2.224309907963    -0.016128182918     1.007825032230
         H           -3.178653648242     1.168614092037    -0.883573182918     1.007825032230
         H           -3.914387048242    -0.191025907963     0.039365717082     1.007825032230
         H           -3.230182048242     1.120947292037     0.908935917082     1.007825032230
         H            1.349319351758     2.988468092037    -0.016370182918     1.007825032230
         H            3.603304351758    -0.863780907963    -0.223022182918     1.007825032230
         H            2.446329351758    -2.133473907963    -0.224732182918     1.007825032230

  Basis Set: AUG-CC-PVTZ
    Blend: AUG-CC-PVTZ
  Basis Set: (AUG-CC-PVTZ AUX)
    Blend: AUG-CC-PVTZ-JKFIT
	 Reference Energy          =    -503.7239700240353955 [Eh]
	 Singles Energy            =      -0.0000000000000000 [Eh]
	 Same-Spin Energy          =      -0.5492527388519052 [Eh]
	 Opposite-Spin Energy      =      -1.6330793217670720 [Eh]
	 Correlation Energy        =      -2.1823320606189771 [Eh]
	 Total Energy              =    -505.9063020846543850 [Eh]

	 ================> DF-SCS-MP2 Energies <==================
	-----------------------------------------------------------
	 SCS Same-Spin Scale       =       0.3333333333333333 [-]
	 SCS Opposite-Spin Scale   =       1.2000000000000000 [-]
	 SCS Same-Spin Energy      =      -0.1830842462839684 [Eh]
	 SCS Opposite-Spin Energy  =      -1.9596951861204863 [Eh]
	 SCS Correlation Energy    =      -2.1427794324044549 [Eh]
	 SCS Total Energy          =    -505.8667494564398339 [Eh]
	-----------------------------------------------------------

  Dipole Moment: [D]
     X:    -2.7504      Y:    -1.1706      Z:    -0.7554     Total:     3.0831

*** Psi4 exiting successfully. Buy a developer a beer!
