                               Psi4 1.3.2 release

  ==> Input File <==

--------------------------------------------------------------------------
#psi4
#
memory 32 gb

molecule  {
0 1
  N       -1.7893040    -0.1617730    -0.0001110
  N       -0.2713240    -1.8496560    -0.0082220
  N       -0.2672930     1.7497910     0.0010540
  N        2.0532340     1.0361840    -0.0078740
  N        2.7268170    -1.1967150     0.0786200
  C       -0.5286724     0.3922488     0.0045535
  C        0.3666280    -0.6257540     0.0082110
  C       -1.5569310    -1.5157420    -0.0063070
  C        1.7257650    -0.2653140     0.0014880
  C       -3.0889329     0.4878943     0.0025667
  C        1.0578830     1.9506280    -0.0091420
  H       -2.3786350    -2.2235800    -0.0126570
  H       -3.1454970     1.1693440    -0.8801020
  H       -3.8626160    -0.2117770    -0.0066990
  H       -3.1511970     1.1523310     0.8973960
  H        1.3824760     2.9891980    -0.0128990
  H        3.6364610    -0.8630510    -0.2195510
  H        2.4794860    -2.1327440    -0.2212610
units angstrom
no_reorient  #important for SAPT in psi4, default
symmetry c1  #important for SAPT in psi4, default
}

set PROPERTIES_ORIGIN ["COM"]
properties('MP2/aug-cc-pvtz', properties = ['dipole'])
--------------------------------------------------------------------------

    Molecular point group: c1
  Charge       = 0
  Multiplicity = 1
  Basis Set: AUG-CC-PVTZ
    Blend: AUG-CC-PVTZ
  Basis Set: (AUG-CC-PVTZ AUX)
    Blend: AUG-CC-PVTZ-JKFIT

    Orbital Energies [Eh]
    ---------------------

    Doubly Occupied:

       1A    -15.632707     2A    -15.583792     3A    -15.565546
       4A    -15.561334     5A    -15.550896     6A    -11.338012
       7A    -11.321051     8A    -11.309977     9A    -11.309780
      10A    -11.289724    11A    -11.249261    12A     -1.369746
      13A     -1.295474    14A     -1.237461    15A     -1.197192
      16A     -1.147199    17A     -1.038130    18A     -0.987478
      19A     -0.890378    20A     -0.866912    21A     -0.809600
      22A     -0.753885    23A     -0.722941    24A     -0.682317
      25A     -0.670644    26A     -0.662501    27A     -0.623545
      28A     -0.609819    29A     -0.600611    30A     -0.588876
      31A     -0.578562    32A     -0.534062    33A     -0.491491
      34A     -0.490345    35A     -0.449870    36A     -0.412688
      37A     -0.408296    38A     -0.367009    39A     -0.314326

  @DF-RHF Final Energy:  -503.71909807624621

   => Energetics <=

    Nuclear Repulsion Energy =            594.5484851801261357
    One-Electron Energy =               -1863.5082961989533032
    Two-Electron Energy =                 765.2407129425810126
    Total Energy =                       -503.7190980762461550
  Basis Set: (AUG-CC-PVTZ AUX)
    Blend: AUG-CC-PVTZ-RI
    Molecular point group: c1

    Geometry (in Angstrom), charge = 0, multiplicity = 1:

       Center              X                  Y                   Z               Mass
    ------------   -----------------  -----------------  -----------------  -----------------
         N           -1.822625748149    -0.155431349666    -0.003101780338    14.003074004430
         N           -0.304645748149    -1.843314349666    -0.011212780338    14.003074004430
         N           -0.300614748149     1.756132650334    -0.001936780338    14.003074004430
         N            2.019912251851     1.042525650334    -0.010864780338    14.003074004430
         N            2.693495251851    -1.190373349666     0.075629219662    14.003074004430
         C           -0.561994148149     0.398590450334     0.001562719662    12.000000000000
         C            0.333306251851    -0.619412349666     0.005220219662    12.000000000000
         C           -1.590252748149    -1.509400349666    -0.009297780338    12.000000000000
         C            1.692443251851    -0.258972349666    -0.001502780338    12.000000000000
         C           -3.122254648149     0.494235950334    -0.000424080338    12.000000000000
         C            1.024561251851     1.956969650334    -0.012132780338    12.000000000000
         H           -2.411956748149    -2.217238349666    -0.015647780338     1.007825032230
         H           -3.178818748149     1.175685650334    -0.883092780338     1.007825032230
         H           -3.895937748149    -0.205435349666    -0.009689780338     1.007825032230
         H           -3.184518748149     1.158672650334     0.894405219662     1.007825032230
         H            1.349154251851     2.995539650334    -0.015889780338     1.007825032230
         H            3.603139251851    -0.856709349666    -0.222541780338     1.007825032230
         H            2.446164251851    -2.126402349666    -0.224251780338     1.007825032230

  Basis Set: AUG-CC-PVTZ
    Blend: AUG-CC-PVTZ
  Basis Set: (AUG-CC-PVTZ AUX)
    Blend: AUG-CC-PVTZ-JKFIT
	 Reference Energy          =    -503.7190980762462118 [Eh]
	 Singles Energy            =      -0.0000000000000000 [Eh]
	 Same-Spin Energy          =      -0.5486918072820282 [Eh]
	 Opposite-Spin Energy      =      -1.6331882053463103 [Eh]
	 Correlation Energy        =      -2.1818800126283384 [Eh]
	 Total Energy              =    -505.9009780888745240 [Eh]

	 ================> DF-SCS-MP2 Energies <==================
	-----------------------------------------------------------
	 SCS Same-Spin Scale       =       0.3333333333333333 [-]
	 SCS Opposite-Spin Scale   =       1.2000000000000000 [-]
	 SCS Same-Spin Energy      =      -0.1828972690940094 [Eh]
	 SCS Opposite-Spin Energy  =      -1.9598258464155722 [Eh]
	 SCS Correlation Energy    =      -2.1427231155095816 [Eh]
	 SCS Total Energy          =    -505.8618211917557801 [Eh]
	-----------------------------------------------------------

  Dipole Moment: [D]
     X:    -2.6872      Y:    -1.2116      Z:    -0.7876     Total:     3.0511

*** Psi4 exiting successfully. Buy a developer a beer!
