                               Psi4 1.3.2 release

  ==> Input File <==

--------------------------------------------------------------------------
#psi4
#
memory 32 gb

molecule  {
0 1
  N       -1.7893040    -0.1617730    -0.0001110
  N       -0.2713240    -1.8496560    -0.0082220
  N       -0.2672930     1.7497910     0.0010540
  N        2.0532340     1.0361840    -0.0078740
  N        2.7268170    -1.1967150     0.0786200
  C       -0.5487760     0.4359060     0.0048010
  C        0.3666280    -0.6257540     0.0082110
  C       -1.5569310    -1.5157420    -0.0063070
  C        1.7485295    -0.2708314     0.0014230
  C       -3.0654680     0.5328540     0.0028660
  C        1.0739935     1.9678594    -0.0093170
  H       -2.3786350    -2.2235800    -0.0126570
  H       -3.1454970     1.1693440    -0.8801020
  H       -3.8626160    -0.2117770    -0.0066990
  H       -3.1511970     1.1523310     0.8973960
  H        1.3824760     2.9891980    -0.0128990
  H        3.6364610    -0.8630510    -0.2195510
  H        2.4794860    -2.1327440    -0.2212610
units angstrom
no_reorient  #important for SAPT in psi4, default
symmetry c1  #important for SAPT in psi4, default
}

set PROPERTIES_ORIGIN ["COM"]
properties('MP2/aug-cc-pvtz', properties = ['dipole'])
--------------------------------------------------------------------------

    Molecular point group: c1
  Charge       = 0
  Multiplicity = 1
  Basis Set: AUG-CC-PVTZ
    Blend: AUG-CC-PVTZ
  Basis Set: (AUG-CC-PVTZ AUX)
    Blend: AUG-CC-PVTZ-JKFIT

    Orbital Energies [Eh]
    ---------------------

    Doubly Occupied:

       1A    -15.631234     2A    -15.584664     3A    -15.565778
       4A    -15.559340     5A    -15.551654     6A    -11.336600
       7A    -11.320594     8A    -11.312402     9A    -11.310271
      10A    -11.287273    11A    -11.251912    12A     -1.365238
      13A     -1.295503    14A     -1.242579    15A     -1.196799
      16A     -1.150459    17A     -1.027198    18A     -0.983844
      19A     -0.891000    20A     -0.869823    21A     -0.802335
      22A     -0.753229    23A     -0.727947    24A     -0.681328
      25A     -0.675775    26A     -0.664415    27A     -0.626746
      28A     -0.604764    29A     -0.596680    30A     -0.590779
      31A     -0.571340    32A     -0.538052    33A     -0.494352
      34A     -0.492280    35A     -0.448694    36A     -0.413025
      37A     -0.404014    38A     -0.367564    39A     -0.303162

  @DF-RHF Final Energy:  -503.72238364853297

   => Energetics <=

    Nuclear Repulsion Energy =            593.5814035836262974
    One-Electron Energy =               -1861.6262817188071494
    Two-Electron Energy =                 764.3224944866478836
    Total Energy =                       -503.7223836485329684
  Basis Set: (AUG-CC-PVTZ AUX)
    Blend: AUG-CC-PVTZ-RI
    Molecular point group: c1

    Geometry (in Angstrom), charge = 0, multiplicity = 1:

       Center              X                  Y                   Z               Mass
    ------------   -----------------  -----------------  -----------------  -----------------
         N           -1.826025728736    -0.163507888385    -0.003126477436    14.003074004430
         N           -0.308045728736    -1.851390888385    -0.011237477436    14.003074004430
         N           -0.304014728736     1.748056111615    -0.001961477436    14.003074004430
         N            2.016512271264     1.034449111615    -0.010889477436    14.003074004430
         N            2.690095271264    -1.198449888385     0.075604522564    14.003074004430
         C           -0.585497728736     0.434171111615     0.001785522564    12.000000000000
         C            0.329906271264    -0.627488888385     0.005195522564    12.000000000000
         C           -1.593652728736    -1.517476888385    -0.009322477436    12.000000000000
         C            1.711807771264    -0.272566288385    -0.001592477436    12.000000000000
         C           -3.102189728736     0.531119111615    -0.000149477436    12.000000000000
         C            1.037271771264     1.966124511615    -0.012332477436    12.000000000000
         H           -2.415356728736    -2.225314888385    -0.015672477436     1.007825032230
         H           -3.182218728736     1.167609111615    -0.883117477436     1.007825032230
         H           -3.899337728736    -0.213511888385    -0.009714477436     1.007825032230
         H           -3.187918728736     1.150596111615     0.894380522564     1.007825032230
         H            1.345754271264     2.987463111615    -0.015914477436     1.007825032230
         H            3.599739271264    -0.864785888385    -0.222566477436     1.007825032230
         H            2.442764271264    -2.134478888385    -0.224276477436     1.007825032230

  Basis Set: AUG-CC-PVTZ
    Blend: AUG-CC-PVTZ
  Basis Set: (AUG-CC-PVTZ AUX)
    Blend: AUG-CC-PVTZ-JKFIT
	 Reference Energy          =    -503.7223836485329684 [Eh]
	 Singles Energy            =      -0.0000000000000000 [Eh]
	 Same-Spin Energy          =      -0.5496094537771202 [Eh]
	 Opposite-Spin Energy      =      -1.6336488661173836 [Eh]
	 Correlation Energy        =      -2.1832583198945037 [Eh]
	 Total Energy              =    -505.9056419684274601 [Eh]

	 ================> DF-SCS-MP2 Energies <==================
	-----------------------------------------------------------
	 SCS Same-Spin Scale       =       0.3333333333333333 [-]
	 SCS Opposite-Spin Scale   =       1.2000000000000000 [-]
	 SCS Same-Spin Energy      =      -0.1832031512590401 [Eh]
	 SCS Opposite-Spin Energy  =      -1.9603786393408602 [Eh]
	 SCS Correlation Energy    =      -2.1435817905999004 [Eh]
	 SCS Total Energy          =    -505.8659654391328786 [Eh]
	-----------------------------------------------------------

  Dipole Moment: [D]
     X:    -2.5203      Y:    -1.2265      Z:    -0.7843     Total:     2.9106

*** Psi4 exiting successfully. Buy a developer a beer!
