                               Psi4 1.3.2 release

  ==> Input File <==

--------------------------------------------------------------------------
#psi4
#
memory 32 gb

molecule  {
0 1
  N       -1.7893040    -0.1617730    -0.0001110
  N       -0.3136501    -1.8266568    -0.0073770
  N       -0.2672930     1.7497910     0.0010540
  N        2.0532340     1.0361840    -0.0078740
  N        2.7268170    -1.1967150     0.0786200
  C       -0.5487760     0.4359060     0.0048010
  C        0.3666280    -0.6257540     0.0082110
  C       -1.5569310    -1.5157420    -0.0063070
  C        1.7123650    -0.2181085     0.0024970
  C       -3.0654680     0.5328540     0.0028660
  C        1.0578830     1.9506280    -0.0091420
  H       -2.3786350    -2.2235800    -0.0126570
  H       -3.1454970     1.1693440    -0.8801020
  H       -3.8626160    -0.2117770    -0.0066990
  H       -3.1511970     1.1523310     0.8973960
  H        1.3824760     2.9891980    -0.0128990
  H        3.6364610    -0.8630510    -0.2195510
  H        2.4794860    -2.1327440    -0.2212610
units angstrom
no_reorient  #important for SAPT in psi4, default
symmetry c1  #important for SAPT in psi4, default
}

set PROPERTIES_ORIGIN ["COM"]
properties('MP2/aug-cc-pvtz', properties = ['dipole'])
--------------------------------------------------------------------------

    Molecular point group: c1
  Charge       = 0
  Multiplicity = 1
  Basis Set: AUG-CC-PVTZ
    Blend: AUG-CC-PVTZ
  Basis Set: (AUG-CC-PVTZ AUX)
    Blend: AUG-CC-PVTZ-JKFIT

    Orbital Energies [Eh]
    ---------------------

    Doubly Occupied:

       1A    -15.628382     2A    -15.573478     3A    -15.565290
       4A    -15.562364     5A    -15.554586     6A    -11.333774
       7A    -11.316308     8A    -11.316050     9A    -11.313047
      10A    -11.287137    11A    -11.253147    12A     -1.373705
      13A     -1.304920    14A     -1.238262    15A     -1.197770
      16A     -1.156282    17A     -1.037133    18A     -0.982985
      19A     -0.893919    20A     -0.878337    21A     -0.799560
      22A     -0.753727    23A     -0.723662    24A     -0.677575
      25A     -0.673534    26A     -0.667457    27A     -0.628701
      28A     -0.605017    29A     -0.598981    30A     -0.591228
      31A     -0.571991    32A     -0.540843    33A     -0.494327
      34A     -0.492162    35A     -0.453315    36A     -0.415500
      37A     -0.408425    38A     -0.371938    39A     -0.314831

  @DF-RHF Final Energy:  -503.72464454055137

   => Energetics <=

    Nuclear Repulsion Energy =            595.6539171136579398
    One-Electron Energy =               -1865.6578223483454622
    Two-Electron Energy =                 766.2792606941360418
    Total Energy =                       -503.7246445405513668
  Basis Set: (AUG-CC-PVTZ AUX)
    Blend: AUG-CC-PVTZ-RI
    Molecular point group: c1

    Geometry (in Angstrom), charge = 0, multiplicity = 1:

       Center              X                  Y                   Z               Mass
    ------------   -----------------  -----------------  -----------------  -----------------
         N           -1.817841692230    -0.168525375276    -0.003306396745    14.003074004430
         N           -0.342187792230    -1.833409175276    -0.010572396745    14.003074004430
         N           -0.295830692230     1.743038624724    -0.002141396745    14.003074004430
         N            2.024696307770     1.029431624724    -0.011069396745    14.003074004430
         N            2.698279307770    -1.203467375276     0.075424603255    14.003074004430
         C           -0.577313692230     0.429153624724     0.001605603255    12.000000000000
         C            0.338090307770    -0.632506375276     0.005015603255    12.000000000000
         C           -1.585468692230    -1.522494375276    -0.009502396745    12.000000000000
         C            1.683827307770    -0.224860875276    -0.000698396745    12.000000000000
         C           -3.094005692230     0.526101624724    -0.000329396745    12.000000000000
         C            1.029345307770     1.943875624724    -0.012337396745    12.000000000000
         H           -2.407172692230    -2.230332375276    -0.015852396745     1.007825032230
         H           -3.174034692230     1.162591624724    -0.883297396745     1.007825032230
         H           -3.891153692230    -0.218529375276    -0.009894396745     1.007825032230
         H           -3.179734692230     1.145578624724     0.894200603255     1.007825032230
         H            1.353938307770     2.982445624724    -0.016094396745     1.007825032230
         H            3.607923307770    -0.869803375276    -0.222746396745     1.007825032230
         H            2.450948307770    -2.139496375276    -0.224456396745     1.007825032230

  Basis Set: AUG-CC-PVTZ
    Blend: AUG-CC-PVTZ
  Basis Set: (AUG-CC-PVTZ AUX)
    Blend: AUG-CC-PVTZ-JKFIT
	 Reference Energy          =    -503.7246445405513668 [Eh]
	 Singles Energy            =      -0.0000000000000000 [Eh]
	 Same-Spin Energy          =      -0.5477908151061874 [Eh]
	 Opposite-Spin Energy      =      -1.6301350613267394 [Eh]
	 Correlation Energy        =      -2.1779258764329268 [Eh]
	 Total Energy              =    -505.9025704169843038 [Eh]

	 ================> DF-SCS-MP2 Energies <==================
	-----------------------------------------------------------
	 SCS Same-Spin Scale       =       0.3333333333333333 [-]
	 SCS Opposite-Spin Scale   =       1.2000000000000000 [-]
	 SCS Same-Spin Energy      =      -0.1825969383687291 [Eh]
	 SCS Opposite-Spin Energy  =      -1.9561620735920870 [Eh]
	 SCS Correlation Energy    =      -2.1387590119608162 [Eh]
	 SCS Total Energy          =    -505.8634035525121817 [Eh]
	-----------------------------------------------------------

  Dipole Moment: [D]
     X:    -2.8942      Y:    -0.9418      Z:    -0.8033     Total:     3.1478

*** Psi4 exiting successfully. Buy a developer a beer!
