                               Psi4 1.3.2 release

  ==> Input File <==

--------------------------------------------------------------------------
#psi4
#
memory 32 gb

molecule  {
0 1
  N       -1.7893040    -0.1617730    -0.0001110
  N       -0.2713240    -1.8496560    -0.0082220
  N       -0.2672930     1.7497910     0.0010540
  N        2.0532340     1.0361840    -0.0078740
  N        2.7268170    -1.1967150     0.0786200
  C       -0.5487760     0.4359060     0.0048010
  C        0.3666280    -0.6257540     0.0082110
  C       -1.5569310    -1.5157420    -0.0063070
  C        1.7257650    -0.2653140     0.0014880
  C       -3.0654680     0.5328540     0.0028660
  C        1.0578830     1.9506280    -0.0091420
  H       -2.5301625    -2.3541099    -0.0138280
  H       -3.1454970     1.1693440    -0.8801020
  H       -3.8626160    -0.2117770    -0.0066990
  H       -3.1511970     1.1523310     0.8973960
  H        1.3824760     2.9891980    -0.0128990
  H        3.6364610    -0.8630510    -0.2195510
  H        2.4794860    -2.1327440    -0.2212610
units angstrom
no_reorient  #important for SAPT in psi4, default
symmetry c1  #important for SAPT in psi4, default
}

set PROPERTIES_ORIGIN ["COM"]
properties('MP2/aug-cc-pvtz', properties = ['dipole'])
--------------------------------------------------------------------------

    Molecular point group: c1
  Charge       = 0
  Multiplicity = 1
  Basis Set: AUG-CC-PVTZ
    Blend: AUG-CC-PVTZ
  Basis Set: (AUG-CC-PVTZ AUX)
    Blend: AUG-CC-PVTZ-JKFIT

    Orbital Energies [Eh]
    ---------------------

    Doubly Occupied:

       1A    -15.635079     2A    -15.581332     3A    -15.568765
       4A    -15.561335     5A    -15.552900     6A    -11.342125
       7A    -11.335097     8A    -11.314155     9A    -11.312036
      10A    -11.288405    11A    -11.253201    12A     -1.368783
      13A     -1.296619    14A     -1.242827    15A     -1.197940
      16A     -1.152310    17A     -1.028961    18A     -0.985972
      19A     -0.881019    20A     -0.872778    21A     -0.796638
      22A     -0.749956    23A     -0.720467    24A     -0.678153
      25A     -0.669100    26A     -0.666833    27A     -0.618339
      28A     -0.604203    29A     -0.593841    30A     -0.578027
      31A     -0.566171    32A     -0.537406    33A     -0.496162
      34A     -0.492906    35A     -0.449919    36A     -0.415063
      37A     -0.409185    38A     -0.369073    39A     -0.308380

  @DF-RHF Final Energy:  -503.70173190895611

   => Energetics <=

    Nuclear Repulsion Energy =            593.3185622616455248
    One-Electron Energy =               -1861.0576712097586096
    Two-Electron Energy =                 764.0373770391568087
    Total Energy =                       -503.7017319089561624
  Basis Set: (AUG-CC-PVTZ AUX)
    Blend: AUG-CC-PVTZ-RI
    Molecular point group: c1

    Geometry (in Angstrom), charge = 0, multiplicity = 1:

       Center              X                  Y                   Z               Mass
    ------------   -----------------  -----------------  -----------------  -----------------
         N           -1.821871890913    -0.161682443725    -0.003137880369    14.003074004430
         N           -0.303891890913    -1.849565443725    -0.011248880369    14.003074004430
         N           -0.299860890913     1.749881556275    -0.001972880369    14.003074004430
         N            2.020666109087     1.036274556275    -0.010900880369    14.003074004430
         N            2.694249109087    -1.196624443725     0.075593119631    14.003074004430
         C           -0.581343890913     0.435996556275     0.001774119631    12.000000000000
         C            0.334060109087    -0.625663443725     0.005184119631    12.000000000000
         C           -1.589498890913    -1.515651443725    -0.009333880369    12.000000000000
         C            1.693197109087    -0.265223443725    -0.001538880369    12.000000000000
         C           -3.098035890913     0.532944556275    -0.000160880369    12.000000000000
         C            1.025315109087     1.950718556275    -0.012168880369    12.000000000000
         H           -2.562730390913    -2.354019343725    -0.016854880369     1.007825032230
         H           -3.178064890913     1.169434556275    -0.883128880369     1.007825032230
         H           -3.895183890913    -0.211686443725    -0.009725880369     1.007825032230
         H           -3.183764890913     1.152421556275     0.894369119631     1.007825032230
         H            1.349908109087     2.989288556275    -0.015925880369     1.007825032230
         H            3.603893109087    -0.862960443725    -0.222577880369     1.007825032230
         H            2.446918109087    -2.132653443725    -0.224287880369     1.007825032230

  Basis Set: AUG-CC-PVTZ
    Blend: AUG-CC-PVTZ
  Basis Set: (AUG-CC-PVTZ AUX)
    Blend: AUG-CC-PVTZ-JKFIT
	 Reference Energy          =    -503.7017319089561056 [Eh]
	 Singles Energy            =      -0.0000000000000000 [Eh]
	 Same-Spin Energy          =      -0.5499837150912694 [Eh]
	 Opposite-Spin Energy      =      -1.6354045931183723 [Eh]
	 Correlation Energy        =      -2.1853883082096415 [Eh]
	 Total Energy              =    -505.8871202171657728 [Eh]

	 ================> DF-SCS-MP2 Energies <==================
	-----------------------------------------------------------
	 SCS Same-Spin Scale       =       0.3333333333333333 [-]
	 SCS Opposite-Spin Scale   =       1.2000000000000000 [-]
	 SCS Same-Spin Energy      =      -0.1833279050304231 [Eh]
	 SCS Opposite-Spin Energy  =      -1.9624855117420466 [Eh]
	 SCS Correlation Energy    =      -2.1458134167724698 [Eh]
	 SCS Total Energy          =    -505.8475453257285608 [Eh]
	-----------------------------------------------------------

  Dipole Moment: [D]
     X:    -2.6975      Y:    -1.1591      Z:    -0.7890     Total:     3.0402

*** Psi4 exiting successfully. Buy a developer a beer!
