                               Psi4 1.3.2 release

  ==> Input File <==

--------------------------------------------------------------------------
#psi4
#
memory 32 gb

molecule  {
0 1
  N       -1.7893040    -0.1617730    -0.0001110
  N       -0.2713240    -1.8496560    -0.0082220
  N       -0.2672930     1.7497910     0.0010540
  N        2.0758989     1.0302703    -0.0079101
  N        2.7268170    -1.1967150     0.0786200
  C       -0.5487760     0.4359060     0.0048010
  C        0.3731261    -0.6494191     0.0083407
  C       -1.5569310    -1.5157420    -0.0063070
  C        1.7257650    -0.2653140     0.0014880
  C       -3.0654680     0.5328540     0.0028660
  C        1.0578830     1.9506280    -0.0091420
  H       -2.3786350    -2.2235800    -0.0126570
  H       -3.1454970     1.1693440    -0.8801020
  H       -3.8626160    -0.2117770    -0.0066990
  H       -3.1511970     1.1523310     0.8973960
  H        1.3824760     2.9891980    -0.0128990
  H        3.6364610    -0.8630510    -0.2195510
  H        2.4794860    -2.1327440    -0.2212610
units angstrom
no_reorient  #important for SAPT in psi4, default
symmetry c1  #important for SAPT in psi4, default
}

set PROPERTIES_ORIGIN ["COM"]
properties('MP2/aug-cc-pvtz', properties = ['dipole'])
--------------------------------------------------------------------------

    Molecular point group: c1
  Charge       = 0
  Multiplicity = 1
  Basis Set: AUG-CC-PVTZ
    Blend: AUG-CC-PVTZ
  Basis Set: (AUG-CC-PVTZ AUX)
    Blend: AUG-CC-PVTZ-JKFIT

    Orbital Energies [Eh]
    ---------------------

    Doubly Occupied:

       1A    -15.635172     2A    -15.578288     3A    -15.567876
       4A    -15.563274     5A    -15.554994     6A    -11.333074
       7A    -11.322483     8A    -11.315328     9A    -11.314604
      10A    -11.289654    11A    -11.253920    12A     -1.368415
      13A     -1.293601    14A     -1.243264    15A     -1.199932
      16A     -1.149508    17A     -1.028212    18A     -0.987731
      19A     -0.888939    20A     -0.873991    21A     -0.800147
      22A     -0.752157    23A     -0.726443    24A     -0.680125
      25A     -0.672176    26A     -0.666770    27A     -0.624223
      28A     -0.603838    29A     -0.596865    30A     -0.590636
      31A     -0.571542    32A     -0.536352    33A     -0.495892
      34A     -0.494223    35A     -0.453834    36A     -0.415549
      37A     -0.408926    38A     -0.367758    39A     -0.304868

  @DF-RHF Final Energy:  -503.72155071015158

   => Energetics <=

    Nuclear Repulsion Energy =            593.6291071540794064
    One-Electron Energy =               -1861.6521505106682071
    Two-Electron Energy =                 764.3014926464372820
    Total Energy =                       -503.7215507101516323
  Basis Set: (AUG-CC-PVTZ AUX)
    Blend: AUG-CC-PVTZ-RI
    Molecular point group: c1

    Geometry (in Angstrom), charge = 0, multiplicity = 1:

       Center              X                  Y                   Z               Mass
    ------------   -----------------  -----------------  -----------------  -----------------
         N           -1.825548473361    -0.160104395500    -0.003152846828    14.003074004430
         N           -0.307568473361    -1.847987395500    -0.011263846828    14.003074004430
         N           -0.303537473361     1.751459604500    -0.001987846828    14.003074004430
         N            2.039654426639     1.031938904500    -0.010951946828    14.003074004430
         N            2.690572526639    -1.195046395500     0.075578153172    14.003074004430
         C           -0.585020473361     0.437574604500     0.001759153172    12.000000000000
         C            0.336881626639    -0.647750495500     0.005298853172    12.000000000000
         C           -1.593175473361    -1.514073395500    -0.009348846828    12.000000000000
         C            1.689520526639    -0.263645395500    -0.001553846828    12.000000000000
         C           -3.101712473361     0.534522604500    -0.000175846828    12.000000000000
         C            1.021638526639     1.952296604500    -0.012183846828    12.000000000000
         H           -2.414879473361    -2.221911395500    -0.015698846828     1.007825032230
         H           -3.181741473361     1.171012604500    -0.883143846828     1.007825032230
         H           -3.898860473361    -0.210108395500    -0.009740846828     1.007825032230
         H           -3.187441473361     1.153999604500     0.894354153172     1.007825032230
         H            1.346231526639     2.990866604500    -0.015940846828     1.007825032230
         H            3.600216526639    -0.861382395500    -0.222592846828     1.007825032230
         H            2.443241526639    -2.131075395500    -0.224302846828     1.007825032230

  Basis Set: AUG-CC-PVTZ
    Blend: AUG-CC-PVTZ
  Basis Set: (AUG-CC-PVTZ AUX)
    Blend: AUG-CC-PVTZ-JKFIT
	 Reference Energy          =    -503.7215507101515755 [Eh]
	 Singles Energy            =      -0.0000000000000000 [Eh]
	 Same-Spin Energy          =      -0.5499074270190820 [Eh]
	 Opposite-Spin Energy      =      -1.6341735674226698 [Eh]
	 Correlation Energy        =      -2.1840809944417519 [Eh]
	 Total Energy              =    -505.9056317045933042 [Eh]

	 ================> DF-SCS-MP2 Energies <==================
	-----------------------------------------------------------
	 SCS Same-Spin Scale       =       0.3333333333333333 [-]
	 SCS Opposite-Spin Scale   =       1.2000000000000000 [-]
	 SCS Same-Spin Energy      =      -0.1833024756730273 [Eh]
	 SCS Opposite-Spin Energy  =      -1.9610082809072038 [Eh]
	 SCS Correlation Energy    =      -2.1443107565802313 [Eh]
	 SCS Total Energy          =    -505.8658614667318147 [Eh]
	-----------------------------------------------------------

  Dipole Moment: [D]
     X:    -2.8692      Y:    -1.1365      Z:    -0.7887     Total:     3.1853

*** Psi4 exiting successfully. Buy a developer a beer!
