                               Psi4 1.3.2 release

  ==> Input File <==

--------------------------------------------------------------------------
#psi4
#
memory 32 gb

molecule  {
0 1
  N       -1.8094057    -0.1181152    -0.0004107
  N       -0.2713240    -1.8496560    -0.0082220
  N       -0.3133177     1.7588132     0.0007430
  N        2.0532340     1.0361840    -0.0078740
  N        2.7268170    -1.1967150     0.0786200
  C       -0.5487760     0.4359060     0.0048010
  C        0.3666280    -0.6257540     0.0082110
  C       -1.5569310    -1.5157420    -0.0063070
  C        1.7257650    -0.2653140     0.0014880
  C       -3.0654680     0.5328540     0.0028660
  C        1.0578830     1.9506280    -0.0091420
  H       -2.3786350    -2.2235800    -0.0126570
  H       -3.1454970     1.1693440    -0.8801020
  H       -3.8626160    -0.2117770    -0.0066990
  H       -3.1511970     1.1523310     0.8973960
  H        1.3824760     2.9891980    -0.0128990
  H        3.6364610    -0.8630510    -0.2195510
  H        2.4794860    -2.1327440    -0.2212610
units angstrom
no_reorient  #important for SAPT in psi4, default
symmetry c1  #important for SAPT in psi4, default
}

set PROPERTIES_ORIGIN ["COM"]
properties('MP2/aug-cc-pvtz', properties = ['dipole'])
--------------------------------------------------------------------------

    Molecular point group: c1
  Charge       = 0
  Multiplicity = 1
  Basis Set: AUG-CC-PVTZ
    Blend: AUG-CC-PVTZ
  Basis Set: (AUG-CC-PVTZ AUX)
    Blend: AUG-CC-PVTZ-JKFIT

    Orbital Energies [Eh]
    ---------------------

    Doubly Occupied:

       1A    -15.628798     2A    -15.583184     3A    -15.573284
       4A    -15.564456     5A    -15.556991     6A    -11.336944
       7A    -11.326990     8A    -11.319072     9A    -11.314936
      10A    -11.282522    11A    -11.253473    12A     -1.361253
      13A     -1.293450    14A     -1.239696    15A     -1.202111
      16A     -1.153164    17A     -1.028542    18A     -0.984514
      19A     -0.888389    20A     -0.868526    21A     -0.803478
      22A     -0.751301    23A     -0.724521    24A     -0.679017
      25A     -0.670590    26A     -0.665462    27A     -0.628607
      28A     -0.605143    29A     -0.595147    30A     -0.589273
      31A     -0.568406    32A     -0.532523    33A     -0.497084
      34A     -0.492031    35A     -0.454756    36A     -0.416485
      37A     -0.411695    38A     -0.367362    39A     -0.306828

  @DF-RHF Final Energy:  -503.71548071473188

   => Energetics <=

    Nuclear Repulsion Energy =            593.1504187711146869
    One-Electron Energy =               -1860.6917945665411480
    Two-Electron Energy =                 763.8258950806946359
    Total Energy =                       -503.7154807147319389
  Basis Set: (AUG-CC-PVTZ AUX)
    Blend: AUG-CC-PVTZ-RI
    Molecular point group: c1

    Geometry (in Angstrom), charge = 0, multiplicity = 1:

       Center              X                  Y                   Z               Mass
    ------------   -----------------  -----------------  -----------------  -----------------
         N           -1.836786370736    -0.123855678757    -0.003388130400    14.003074004430
         N           -0.298704670736    -1.855396478757    -0.011199430400    14.003074004430
         N           -0.340698370736     1.753072721243    -0.002234430400    14.003074004430
         N            2.025853329264     1.030443521243    -0.010851430400    14.003074004430
         N            2.699436329264    -1.202455478757     0.075642569600    14.003074004430
         C           -0.576156670736     0.430165521243     0.001823569600    12.000000000000
         C            0.339247329264    -0.631494478757     0.005233569600    12.000000000000
         C           -1.584311670736    -1.521482478757    -0.009284430400    12.000000000000
         C            1.698384329264    -0.271054478757    -0.001489430400    12.000000000000
         C           -3.092848670736     0.527113521243    -0.000111430400    12.000000000000
         C            1.030502329264     1.944887521243    -0.012119430400    12.000000000000
         H           -2.406015670736    -2.229320478757    -0.015634430400     1.007825032230
         H           -3.172877670736     1.163603521243    -0.883079430400     1.007825032230
         H           -3.889996670736    -0.217517478757    -0.009676430400     1.007825032230
         H           -3.178577670736     1.146590521243     0.894418569600     1.007825032230
         H            1.355095329264     2.983457521243    -0.015876430400     1.007825032230
         H            3.609080329264    -0.868791478757    -0.222528430400     1.007825032230
         H            2.452105329264    -2.138484478757    -0.224238430400     1.007825032230

  Basis Set: AUG-CC-PVTZ
    Blend: AUG-CC-PVTZ
  Basis Set: (AUG-CC-PVTZ AUX)
    Blend: AUG-CC-PVTZ-JKFIT
	 Reference Energy          =    -503.7154807147318820 [Eh]
	 Singles Energy            =      -0.0000000000000000 [Eh]
	 Same-Spin Energy          =      -0.5499418033123137 [Eh]
	 Opposite-Spin Energy      =      -1.6355642011581524 [Eh]
	 Correlation Energy        =      -2.1855060044704659 [Eh]
	 Total Energy              =    -505.9009867192023648 [Eh]

	 ================> DF-SCS-MP2 Energies <==================
	-----------------------------------------------------------
	 SCS Same-Spin Scale       =       0.3333333333333333 [-]
	 SCS Opposite-Spin Scale   =       1.2000000000000000 [-]
	 SCS Same-Spin Energy      =      -0.1833139344374379 [Eh]
	 SCS Opposite-Spin Energy  =      -1.9626770413897827 [Eh]
	 SCS Correlation Energy    =      -2.1459909758272206 [Eh]
	 SCS Total Energy          =    -505.8614716905590853 [Eh]
	-----------------------------------------------------------

  Dipole Moment: [D]
     X:    -2.4755      Y:    -1.3048      Z:    -0.7889     Total:     2.9074

*** Psi4 exiting successfully. Buy a developer a beer!
