                               Psi4 1.3.2 release

  ==> Input File <==

--------------------------------------------------------------------------
#psi4
#
memory 32 gb

molecule  {
0 1
  N       -1.7893040    -0.1617730    -0.0001110
  N       -0.2713240    -1.8496560    -0.0082220
  N       -0.2672930     1.7497910     0.0010540
  N        2.0532340     1.0361840    -0.0078740
  N        2.7268170    -1.1967150     0.0786200
  C       -0.5258033     0.4311932     0.0046344
  C        0.3666280    -0.6257540     0.0082110
  C       -1.5569310    -1.5157420    -0.0063070
  C        1.7257650    -0.2653140     0.0014880
  C       -3.0654680     0.5328540     0.0028660
  C        1.0611864     1.9274692    -0.0091380
  H       -2.3786350    -2.2235800    -0.0126570
  H       -3.1454970     1.1693440    -0.8801020
  H       -3.8626160    -0.2117770    -0.0066990
  H       -3.1511970     1.1523310     0.8973960
  H        1.3824760     2.9891980    -0.0128990
  H        3.6364610    -0.8630510    -0.2195510
  H        2.4794860    -2.1327440    -0.2212610
units angstrom
no_reorient  #important for SAPT in psi4, default
symmetry c1  #important for SAPT in psi4, default
}

set PROPERTIES_ORIGIN ["COM"]
properties('MP2/aug-cc-pvtz', properties = ['dipole'])
--------------------------------------------------------------------------

    Molecular point group: c1
  Charge       = 0
  Multiplicity = 1
  Basis Set: AUG-CC-PVTZ
    Blend: AUG-CC-PVTZ
  Basis Set: (AUG-CC-PVTZ AUX)
    Blend: AUG-CC-PVTZ-JKFIT

    Orbital Energies [Eh]
    ---------------------

    Doubly Occupied:

       1A    -15.630688     2A    -15.582826     3A    -15.565852
       4A    -15.560895     5A    -15.553188     6A    -11.336498
       7A    -11.322866     8A    -11.312316     9A    -11.311004
      10A    -11.287638    11A    -11.251188    12A     -1.365410
      13A     -1.300387    14A     -1.243706    15A     -1.195227
      16A     -1.156963    17A     -1.033614    18A     -0.984113
      19A     -0.891074    20A     -0.869942    21A     -0.804776
      22A     -0.754866    23A     -0.721193    24A     -0.680247
      25A     -0.672658    26A     -0.664378    27A     -0.624892
      28A     -0.608555    29A     -0.596725    30A     -0.589685
      31A     -0.567023    32A     -0.537357    33A     -0.496767
      34A     -0.491981    35A     -0.450914    36A     -0.415906
      37A     -0.410533    38A     -0.372107    39A     -0.309335

  @DF-RHF Final Energy:  -503.72415047502648

   => Energetics <=

    Nuclear Repulsion Energy =            594.9320015152867427
    One-Electron Energy =               -1864.2617166516251928
    Two-Electron Energy =                 765.6055646613120871
    Total Energy =                       -503.7241504750264767
  Basis Set: (AUG-CC-PVTZ AUX)
    Blend: AUG-CC-PVTZ-RI
    Molecular point group: c1

    Geometry (in Angstrom), charge = 0, multiplicity = 1:

       Center              X                  Y                   Z               Mass
    ------------   -----------------  -----------------  -----------------  -----------------
         N           -1.825011529684    -0.160321286539    -0.003132708060    14.003074004430
         N           -0.307031529684    -1.848204286539    -0.011243708060    14.003074004430
         N           -0.303000529684     1.751242713461    -0.001967708060    14.003074004430
         N            2.017526470316     1.037635713461    -0.010895708060    14.003074004430
         N            2.691109470316    -1.195263286539     0.075598291940    14.003074004430
         C           -0.561510829684     0.432644913461     0.001612691940    12.000000000000
         C            0.330920470316    -0.624302286539     0.005189291940    12.000000000000
         C           -1.592638529684    -1.514290286539    -0.009328708060    12.000000000000
         C            1.690057470316    -0.263862286539    -0.001533708060    12.000000000000
         C           -3.101175529684     0.534305713461    -0.000155708060    12.000000000000
         C            1.025478870316     1.928920913461    -0.012159708060    12.000000000000
         H           -2.414342529684    -2.222128286539    -0.015678708060     1.007825032230
         H           -3.181204529684     1.170795713461    -0.883123708060     1.007825032230
         H           -3.898323529684    -0.210325286539    -0.009720708060     1.007825032230
         H           -3.186904529684     1.153782713461     0.894374291940     1.007825032230
         H            1.346768470316     2.990649713461    -0.015920708060     1.007825032230
         H            3.600753470316    -0.861599286539    -0.222572708060     1.007825032230
         H            2.443778470316    -2.131292286539    -0.224282708060     1.007825032230

  Basis Set: AUG-CC-PVTZ
    Blend: AUG-CC-PVTZ
  Basis Set: (AUG-CC-PVTZ AUX)
    Blend: AUG-CC-PVTZ-JKFIT
	 Reference Energy          =    -503.7241504750264767 [Eh]
	 Singles Energy            =      -0.0000000000000000 [Eh]
	 Same-Spin Energy          =      -0.5489534552860087 [Eh]
	 Opposite-Spin Energy      =      -1.6327415143234441 [Eh]
	 Correlation Energy        =      -2.1816949696094525 [Eh]
	 Total Energy              =    -505.9058454446359292 [Eh]

	 ================> DF-SCS-MP2 Energies <==================
	-----------------------------------------------------------
	 SCS Same-Spin Scale       =       0.3333333333333333 [-]
	 SCS Opposite-Spin Scale   =       1.2000000000000000 [-]
	 SCS Same-Spin Energy      =      -0.1829844850953362 [Eh]
	 SCS Opposite-Spin Energy  =      -1.9592898171881328 [Eh]
	 SCS Correlation Energy    =      -2.1422743022834689 [Eh]
	 SCS Total Energy          =    -505.8664247773099305 [Eh]
	-----------------------------------------------------------

  Dipole Moment: [D]
     X:    -2.6100      Y:    -1.1995      Z:    -0.7879     Total:     2.9786

*** Psi4 exiting successfully. Buy a developer a beer!
