                               Psi4 1.3.2 release

  ==> Input File <==

--------------------------------------------------------------------------
#psi4
#
memory 32 gb

molecule  {
0 1
  N       -1.7893040    -0.1617730    -0.0001110
  N       -0.2713240    -1.8496560    -0.0082220
  N       -0.2672930     1.7497910     0.0010540
  N        2.0532340     1.0361840    -0.0078740
  N        2.7268170    -1.1967150     0.0786200
  C       -0.3685988     0.5227143     0.0055144
  C        0.3666280    -0.6257540     0.0082110
  C       -1.5569310    -1.5157420    -0.0063070
  C        1.7257650    -0.2653140     0.0014880
  C       -3.0654680     0.5328540     0.0028660
  C        1.0578830     1.9506280    -0.0091420
  H       -2.3786350    -2.2235800    -0.0126570
  H       -3.1454970     1.1693440    -0.8801020
  H       -3.8626160    -0.2117770    -0.0066990
  H       -3.1511970     1.1523310     0.8973960
  H        1.3824760     2.9891980    -0.0128990
  H        3.6364610    -0.8630510    -0.2195510
  H        2.4794860    -2.1327440    -0.2212610
units angstrom
no_reorient  #important for SAPT in psi4, default
symmetry c1  #important for SAPT in psi4, default
}

set PROPERTIES_ORIGIN ["COM"]
properties('MP2/aug-cc-pvtz', properties = ['dipole'])
--------------------------------------------------------------------------

    Molecular point group: c1
  Charge       = 0
  Multiplicity = 1
  Basis Set: AUG-CC-PVTZ
    Blend: AUG-CC-PVTZ
  Basis Set: (AUG-CC-PVTZ AUX)
    Blend: AUG-CC-PVTZ-JKFIT

    Orbital Energies [Eh]
    ---------------------

    Doubly Occupied:

       1A    -15.607602     2A    -15.581641     3A    -15.571105
       4A    -15.564166     5A    -15.555870     6A    -11.335306
       7A    -11.323862     8A    -11.323020     9A    -11.319290
      10A    -11.274858    11A    -11.257090    12A     -1.362218
      13A     -1.301570    14A     -1.265844    15A     -1.178398
      16A     -1.167238    17A     -1.041180    18A     -0.961741
      19A     -0.896814    20A     -0.870244    21A     -0.804358
      22A     -0.757594    23A     -0.714923    24A     -0.676080
      25A     -0.670654    26A     -0.650241    27A     -0.634680
      28A     -0.605014    29A     -0.600455    30A     -0.589525
      31A     -0.528040    32A     -0.527131    33A     -0.515413
      34A     -0.505628    35A     -0.455445    36A     -0.421625
      37A     -0.405054    38A     -0.380424    39A     -0.305619

  @DF-RHF Final Energy:  -503.67792611174417

   => Energetics <=

    Nuclear Repulsion Energy =            594.8467499632238287
    One-Electron Energy =               -1864.0354276994316933
    Two-Electron Energy =                 765.5107516244637509
    Total Energy =                       -503.6779261117441138
  Basis Set: (AUG-CC-PVTZ AUX)
    Blend: AUG-CC-PVTZ-RI
    Molecular point group: c1

    Geometry (in Angstrom), charge = 0, multiplicity = 1:

       Center              X                  Y                   Z               Mass
    ------------   -----------------  -----------------  -----------------  -----------------
         N           -1.837400416787    -0.169552905639    -0.003203225198    14.003074004430
         N           -0.319420416787    -1.857435905639    -0.011314225198    14.003074004430
         N           -0.315389416787     1.742011094361    -0.002038225198    14.003074004430
         N            2.005137583213     1.028404094361    -0.010966225198    14.003074004430
         N            2.678720583213    -1.204494905639     0.075527774802    14.003074004430
         C           -0.416695216787     0.514934394361     0.002422174802    12.000000000000
         C            0.318531583213    -0.633533905639     0.005118774802    12.000000000000
         C           -1.605027416787    -1.523521905639    -0.009399225198    12.000000000000
         C            1.677668583213    -0.273093905639    -0.001604225198    12.000000000000
         C           -3.113564416787     0.525074094361    -0.000226225198    12.000000000000
         C            1.009786583213     1.942848094361    -0.012234225198    12.000000000000
         H           -2.426731416787    -2.231359905639    -0.015749225198     1.007825032230
         H           -3.193593416787     1.161564094361    -0.883194225198     1.007825032230
         H           -3.910712416787    -0.219556905639    -0.009791225198     1.007825032230
         H           -3.199293416787     1.144551094361     0.894303774802     1.007825032230
         H            1.334379583213     2.981418094361    -0.015991225198     1.007825032230
         H            3.588364583213    -0.870830905639    -0.222643225198     1.007825032230
         H            2.431389583213    -2.140523905639    -0.224353225198     1.007825032230

  Basis Set: AUG-CC-PVTZ
    Blend: AUG-CC-PVTZ
  Basis Set: (AUG-CC-PVTZ AUX)
    Blend: AUG-CC-PVTZ-JKFIT
	 Reference Energy          =    -503.6779261117441706 [Eh]
	 Singles Energy            =      -0.0000000000000000 [Eh]
	 Same-Spin Energy          =      -0.5504695273619409 [Eh]
	 Opposite-Spin Energy      =      -1.6352564405476269 [Eh]
	 Correlation Energy        =      -2.1857259679095677 [Eh]
	 Total Energy              =    -505.8636520796537184 [Eh]

	 ================> DF-SCS-MP2 Energies <==================
	-----------------------------------------------------------
	 SCS Same-Spin Scale       =       0.3333333333333333 [-]
	 SCS Opposite-Spin Scale   =       1.2000000000000000 [-]
	 SCS Same-Spin Energy      =      -0.1834898424539803 [Eh]
	 SCS Opposite-Spin Energy  =      -1.9623077286571522 [Eh]
	 SCS Correlation Energy    =      -2.1457975711111326 [Eh]
	 SCS Total Energy          =    -505.8237236828553023 [Eh]
	-----------------------------------------------------------

  Dipole Moment: [D]
     X:    -1.9729      Y:    -0.6579      Z:    -0.7879     Total:     2.2239

*** Psi4 exiting successfully. Buy a developer a beer!
