                               Psi4 1.3.2 release

  ==> Input File <==

--------------------------------------------------------------------------
#psi4
#
memory 32 gb

molecule  {
0 1
  N       -1.7893040    -0.1617730    -0.0001110
  N       -0.2713240    -1.8496560    -0.0082220
  N       -0.2672930     1.7497910     0.0010540
  N        2.0532340     1.0361840    -0.0078740
  N        2.7268170    -1.1967150     0.0786200
  C       -0.5487760     0.4359060     0.0048010
  C        0.3666280    -0.6257540     0.0082110
  C       -1.5569310    -1.5157420    -0.0063070
  C        1.7257650    -0.2653140     0.0014880
  C       -3.0654680     0.5328540     0.0028660
  C        1.0578830     1.9506280    -0.0091420
  H       -2.2271075    -2.0930501    -0.0114860
  H       -3.1454970     1.1693440    -0.8801020
  H       -3.8626160    -0.2117770    -0.0066990
  H       -3.1511970     1.1523310     0.8973960
  H        1.3824760     2.9891980    -0.0128990
  H        3.6364610    -0.8630510    -0.2195510
  H        2.4794860    -2.1327440    -0.2212610
units angstrom
no_reorient  #important for SAPT in psi4, default
symmetry c1  #important for SAPT in psi4, default
}

set PROPERTIES_ORIGIN ["COM"]
properties('MP2/aug-cc-pvtz', properties = ['dipole'])
--------------------------------------------------------------------------

    Molecular point group: c1
  Charge       = 0
  Multiplicity = 1
  Basis Set: AUG-CC-PVTZ
    Blend: AUG-CC-PVTZ
  Basis Set: (AUG-CC-PVTZ AUX)
    Blend: AUG-CC-PVTZ-JKFIT

    Orbital Energies [Eh]
    ---------------------

    Doubly Occupied:

       1A    -15.631960     2A    -15.581026     3A    -15.567043
       4A    -15.560436     5A    -15.552237     6A    -11.334447
       7A    -11.312449     8A    -11.311570     9A    -11.300229
      10A    -11.289019    11A    -11.251167    12A     -1.367683
      13A     -1.296313    14A     -1.242219    15A     -1.196270
      16A     -1.151983    17A     -1.038818    18A     -0.987070
      19A     -0.913003    20A     -0.871870    21A     -0.814382
      22A     -0.759818    23A     -0.729372    24A     -0.688533
      25A     -0.675019    26A     -0.666166    27A     -0.635418
      28A     -0.609180    29A     -0.600529    30A     -0.592495
      31A     -0.572305    32A     -0.536648    33A     -0.495423
      34A     -0.492584    35A     -0.451006    36A     -0.413779
      37A     -0.408329    38A     -0.368142    39A     -0.307823

  @DF-RHF Final Energy:  -503.68943458719207

   => Energetics <=

    Nuclear Repulsion Energy =            595.5993184580386242
    One-Electron Energy =               -1865.4299786897965987
    Two-Electron Energy =                 766.1412256445659068
    Total Energy =                       -503.6894345871920677
  Basis Set: (AUG-CC-PVTZ AUX)
    Blend: AUG-CC-PVTZ-RI
    Molecular point group: c1

    Geometry (in Angstrom), charge = 0, multiplicity = 1:

       Center              X                  Y                   Z               Mass
    ------------   -----------------  -----------------  -----------------  -----------------
         N           -1.823920768069    -0.163447402100    -0.003153714031    14.003074004430
         N           -0.305940768069    -1.851330402100    -0.011264714031    14.003074004430
         N           -0.301909768069     1.748116597900    -0.001988714031    14.003074004430
         N            2.018617231931     1.034509597900    -0.010916714031    14.003074004430
         N            2.692200231931    -1.198389402100     0.075577285969    14.003074004430
         C           -0.583392768069     0.434231597900     0.001758285969    12.000000000000
         C            0.332011231931    -0.627428402100     0.005168285969    12.000000000000
         C           -1.591547768069    -1.517416402100    -0.009349714031    12.000000000000
         C            1.691148231931    -0.266988402100    -0.001554714031    12.000000000000
         C           -3.100084768069     0.531179597900    -0.000176714031    12.000000000000
         C            1.023266231931     1.948953597900    -0.012184714031    12.000000000000
         H           -2.261724268069    -2.094724502100    -0.014528714031     1.007825032230
         H           -3.180113768069     1.167669597900    -0.883144714031     1.007825032230
         H           -3.897232768069    -0.213451402100    -0.009741714031     1.007825032230
         H           -3.185813768069     1.150656597900     0.894353285969     1.007825032230
         H            1.347859231931     2.987523597900    -0.015941714031     1.007825032230
         H            3.601844231931    -0.864725402100    -0.222593714031     1.007825032230
         H            2.444869231931    -2.134418402100    -0.224303714031     1.007825032230

  Basis Set: AUG-CC-PVTZ
    Blend: AUG-CC-PVTZ
  Basis Set: (AUG-CC-PVTZ AUX)
    Blend: AUG-CC-PVTZ-JKFIT
	 Reference Energy          =    -503.6894345871920677 [Eh]
	 Singles Energy            =      -0.0000000000000000 [Eh]
	 Same-Spin Energy          =      -0.5489617340817092 [Eh]
	 Opposite-Spin Energy      =      -1.6326407530703873 [Eh]
	 Correlation Energy        =      -2.1816024871520963 [Eh]
	 Total Energy              =    -505.8710370743441445 [Eh]

	 ================> DF-SCS-MP2 Energies <==================
	-----------------------------------------------------------
	 SCS Same-Spin Scale       =       0.3333333333333333 [-]
	 SCS Opposite-Spin Scale   =       1.2000000000000000 [-]
	 SCS Same-Spin Energy      =      -0.1829872446939031 [Eh]
	 SCS Opposite-Spin Energy  =      -1.9591689036844646 [Eh]
	 SCS Correlation Energy    =      -2.1421561483783678 [Eh]
	 SCS Total Energy          =    -505.8315907355704439 [Eh]
	-----------------------------------------------------------

  Dipole Moment: [D]
     X:    -2.7263      Y:    -1.1209      Z:    -0.7888     Total:     3.0514

*** Psi4 exiting successfully. Buy a developer a beer!
