                               Psi4 1.3.2 release

  ==> Input File <==

--------------------------------------------------------------------------
#psi4
#
memory 32 gb

molecule  {
0 1
  N       -1.7893040    -0.1617730    -0.0001110
  N       -0.2713240    -1.8496560    -0.0082220
  N       -0.2672930     1.7497910     0.0010540
  N        2.0532340     1.0361840    -0.0078740
  N        2.7268170    -1.1967150     0.0786200
  C       -0.5487760     0.4359060     0.0048010
  C        0.3666280    -0.6257540     0.0082110
  C       -1.6043259    -1.5230268    -0.0063488
  C        1.7257650    -0.2653140     0.0014880
  C       -3.0889329     0.4878939     0.0026548
  C        1.0578830     1.9506280    -0.0091420
  H       -2.3786350    -2.2235800    -0.0126570
  H       -3.1454970     1.1693440    -0.8801020
  H       -3.8626160    -0.2117770    -0.0066990
  H       -3.1511970     1.1523310     0.8973960
  H        1.3824760     2.9891980    -0.0128990
  H        3.6364610    -0.8630510    -0.2195510
  H        2.4794860    -2.1327440    -0.2212610
units angstrom
no_reorient  #important for SAPT in psi4, default
symmetry c1  #important for SAPT in psi4, default
}

set PROPERTIES_ORIGIN ["COM"]
properties('MP2/aug-cc-pvtz', properties = ['dipole'])
--------------------------------------------------------------------------

    Molecular point group: c1
  Charge       = 0
  Multiplicity = 1
  Basis Set: AUG-CC-PVTZ
    Blend: AUG-CC-PVTZ
  Basis Set: (AUG-CC-PVTZ AUX)
    Blend: AUG-CC-PVTZ-JKFIT

    Orbital Energies [Eh]
    ---------------------

    Doubly Occupied:

       1A    -15.636978     2A    -15.581420     3A    -15.569051
       4A    -15.561360     5A    -15.553109     6A    -11.335451
       7A    -11.323107     8A    -11.313819     9A    -11.311614
      10A    -11.288683    11A    -11.252766    12A     -1.363581
      13A     -1.296285    14A     -1.240577    15A     -1.188217
      16A     -1.152673    17A     -1.030697    18A     -0.985698
      19A     -0.896073    20A     -0.869630    21A     -0.807031
      22A     -0.754663    23A     -0.725787    24A     -0.684654
      25A     -0.673405    26A     -0.661249    27A     -0.624979
      28A     -0.607739    29A     -0.600839    30A     -0.587556
      31A     -0.582217    32A     -0.530218    33A     -0.494325
      34A     -0.489572    35A     -0.449035    36A     -0.411578
      37A     -0.406856    38A     -0.368813    39A     -0.304110

  @DF-RHF Final Energy:  -503.71461235160609

   => Energetics <=

    Nuclear Repulsion Energy =            593.2681898593250480
    One-Electron Energy =               -1860.9347773639831303
    Two-Electron Energy =                 763.9519751530519898
    Total Energy =                       -503.7146123516060925
  Basis Set: (AUG-CC-PVTZ AUX)
    Blend: AUG-CC-PVTZ-RI
    Molecular point group: c1

    Geometry (in Angstrom), charge = 0, multiplicity = 1:

       Center              X                  Y                   Z               Mass
    ------------   -----------------  -----------------  -----------------  -----------------
         N           -1.817192185320    -0.158359259874    -0.003125430949    14.003074004430
         N           -0.299212185320    -1.846242259874    -0.011236430949    14.003074004430
         N           -0.295181185320     1.753204740126    -0.001960430949    14.003074004430
         N            2.025345814680     1.039597740126    -0.010888430949    14.003074004430
         N            2.698928814680    -1.193301259874     0.075605569051    14.003074004430
         C           -0.576664185320     0.439319740126     0.001786569051    12.000000000000
         C            0.338739814680    -0.622340259874     0.005196569051    12.000000000000
         C           -1.632214085320    -1.519613059874    -0.009363230949    12.000000000000
         C            1.697876814680    -0.261900259874    -0.001526430949    12.000000000000
         C           -3.116821085320     0.491307640126    -0.000359630949    12.000000000000
         C            1.029994814680     1.954041740126    -0.012156430949    12.000000000000
         H           -2.406523185320    -2.220166259874    -0.015671430949     1.007825032230
         H           -3.173385185320     1.172757740126    -0.883116430949     1.007825032230
         H           -3.890504185320    -0.208363259874    -0.009713430949     1.007825032230
         H           -3.179085185320     1.155744740126     0.894381569051     1.007825032230
         H            1.354587814680     2.992611740126    -0.015913430949     1.007825032230
         H            3.608572814680    -0.859637259874    -0.222565430949     1.007825032230
         H            2.451597814680    -2.129330259874    -0.224275430949     1.007825032230

  Basis Set: AUG-CC-PVTZ
    Blend: AUG-CC-PVTZ
  Basis Set: (AUG-CC-PVTZ AUX)
    Blend: AUG-CC-PVTZ-JKFIT
	 Reference Energy          =    -503.7146123516060925 [Eh]
	 Singles Energy            =      -0.0000000000000000 [Eh]
	 Same-Spin Energy          =      -0.5505028351397188 [Eh]
	 Opposite-Spin Energy      =      -1.6355720040834945 [Eh]
	 Correlation Energy        =      -2.1860748392232132 [Eh]
	 Total Energy              =    -505.9006871908293306 [Eh]

	 ================> DF-SCS-MP2 Energies <==================
	-----------------------------------------------------------
	 SCS Same-Spin Scale       =       0.3333333333333333 [-]
	 SCS Opposite-Spin Scale   =       1.2000000000000000 [-]
	 SCS Same-Spin Energy      =      -0.1835009450465729 [Eh]
	 SCS Opposite-Spin Energy  =      -1.9626864049001933 [Eh]
	 SCS Correlation Energy    =      -2.1461873499467661 [Eh]
	 SCS Total Energy          =    -505.8607997015528781 [Eh]
	-----------------------------------------------------------

  Dipole Moment: [D]
     X:    -2.7686      Y:    -1.1283      Z:    -0.7880     Total:     3.0918

*** Psi4 exiting successfully. Buy a developer a beer!
