                               Psi4 1.3.2 release

  ==> Input File <==

--------------------------------------------------------------------------
#psi4
#
memory 32 gb

molecule  {
0 1
  N       -1.7893040    -0.1617730    -0.0001110
  N       -0.2713240    -1.8496560    -0.0082220
  N       -0.2672930     1.7497910     0.0010540
  N        2.0532340     1.0361840    -0.0078740
  N        2.7268170    -1.1967150     0.0786200
  C       -0.5906726     0.2403443     0.0053587
  C        0.3666280    -0.6257540     0.0082110
  C       -1.5569310    -1.5157420    -0.0063070
  C        1.7257650    -0.2653140     0.0014880
  C       -3.0654680     0.5328540     0.0028660
  C        1.0578830     1.9506280    -0.0091420
  H       -2.3786350    -2.2235800    -0.0126570
  H       -3.1454970     1.1693440    -0.8801020
  H       -3.8626160    -0.2117770    -0.0066990
  H       -3.1511970     1.1523310     0.8973960
  H        1.3824760     2.9891980    -0.0128990
  H        3.6364610    -0.8630510    -0.2195510
  H        2.4794860    -2.1327440    -0.2212610
units angstrom
no_reorient  #important for SAPT in psi4, default
symmetry c1  #important for SAPT in psi4, default
}

set PROPERTIES_ORIGIN ["COM"]
properties('MP2/aug-cc-pvtz', properties = ['dipole'])
--------------------------------------------------------------------------

    Molecular point group: c1
  Charge       = 0
  Multiplicity = 1
  Basis Set: AUG-CC-PVTZ
    Blend: AUG-CC-PVTZ
  Basis Set: (AUG-CC-PVTZ AUX)
    Blend: AUG-CC-PVTZ-JKFIT

    Orbital Energies [Eh]
    ---------------------

    Doubly Occupied:

       1A    -15.640142     2A    -15.587850     3A    -15.569765
       4A    -15.556331     5A    -15.542022     6A    -11.343033
       7A    -11.318342     8A    -11.301412     9A    -11.299806
      10A    -11.299465    11A    -11.240554    12A     -1.405933
      13A     -1.291298    14A     -1.224006    15A     -1.208578
      16A     -1.121254    17A     -1.044171    18A     -1.006141
      19A     -0.895684    20A     -0.854563    21A     -0.821709
      22A     -0.753763    23A     -0.729946    24A     -0.686312
      25A     -0.684734    26A     -0.656458    27A     -0.632765
      28A     -0.613858    29A     -0.598811    30A     -0.595518
      31A     -0.571982    32A     -0.545942    33A     -0.480880
      34A     -0.476470    35A     -0.436643    36A     -0.419730
      37A     -0.398563    38A     -0.353045    39A     -0.326462

  @DF-RHF Final Energy:  -503.67006054502963

   => Energetics <=

    Nuclear Repulsion Energy =            595.8201011784991579
    One-Electron Energy =               -1865.9124428040709063
    Two-Electron Energy =                 766.4222810805422341
    Total Energy =                       -503.6700605450296280
  Basis Set: (AUG-CC-PVTZ AUX)
    Blend: AUG-CC-PVTZ-RI
    Molecular point group: c1

    Geometry (in Angstrom), charge = 0, multiplicity = 1:

       Center              X                  Y                   Z               Mass
    ------------   -----------------  -----------------  -----------------  -----------------
         N           -1.819523694419    -0.146822398505    -0.003190691501    14.003074004430
         N           -0.301543694419    -1.834705398505    -0.011301691501    14.003074004430
         N           -0.297512694419     1.764741601495    -0.002025691501    14.003074004430
         N            2.023014305581     1.051134601495    -0.010953691501    14.003074004430
         N            2.696597305581    -1.181764398505     0.075540308499    14.003074004430
         C           -0.620892294419     0.255294901495     0.002279008499    12.000000000000
         C            0.336408305581    -0.610803398505     0.005131308499    12.000000000000
         C           -1.587150694419    -1.500791398505    -0.009386691501    12.000000000000
         C            1.695545305581    -0.250363398505    -0.001591691501    12.000000000000
         C           -3.095687694419     0.547804601495    -0.000213691501    12.000000000000
         C            1.027663305581     1.965578601495    -0.012221691501    12.000000000000
         H           -2.408854694419    -2.208629398505    -0.015736691501     1.007825032230
         H           -3.175716694419     1.184294601495    -0.883181691501     1.007825032230
         H           -3.892835694419    -0.196826398505    -0.009778691501     1.007825032230
         H           -3.181416694419     1.167281601495     0.894316308499     1.007825032230
         H            1.352256305581     3.004148601495    -0.015978691501     1.007825032230
         H            3.606241305581    -0.848100398505    -0.222630691501     1.007825032230
         H            2.449266305581    -2.117793398505    -0.224340691501     1.007825032230

  Basis Set: AUG-CC-PVTZ
    Blend: AUG-CC-PVTZ
  Basis Set: (AUG-CC-PVTZ AUX)
    Blend: AUG-CC-PVTZ-JKFIT
	 Reference Energy          =    -503.6700605450296280 [Eh]
	 Singles Energy            =      -0.0000000000000000 [Eh]
	 Same-Spin Energy          =      -0.5485150793433762 [Eh]
	 Opposite-Spin Energy      =      -1.6357370884226756 [Eh]
	 Correlation Energy        =      -2.1842521677660516 [Eh]
	 Total Energy              =    -505.8543127127956609 [Eh]

	 ================> DF-SCS-MP2 Energies <==================
	-----------------------------------------------------------
	 SCS Same-Spin Scale       =       0.3333333333333333 [-]
	 SCS Opposite-Spin Scale   =       1.2000000000000000 [-]
	 SCS Same-Spin Energy      =      -0.1828383597811254 [Eh]
	 SCS Opposite-Spin Energy  =      -1.9628845061072107 [Eh]
	 SCS Correlation Energy    =      -2.1457228658883363 [Eh]
	 SCS Total Energy          =    -505.8157834109179589 [Eh]
	-----------------------------------------------------------

  Dipole Moment: [D]
     X:    -3.0145      Y:    -1.4174      Z:    -0.7838     Total:     3.4221

*** Psi4 exiting successfully. Buy a developer a beer!
