                               Psi4 1.3.2 release

  ==> Input File <==

--------------------------------------------------------------------------
#psi4
#
memory 32 gb

molecule  {
0 1
  N       -1.7893040    -0.1617730    -0.0001110
  N       -0.2498662    -1.8605981    -0.0086370
  N       -0.2672930     1.7497910     0.0010540
  N        2.0532340     1.0361840    -0.0078740
  N        2.7268170    -1.1967150     0.0786200
  C       -0.5487760     0.4359060     0.0048010
  C        0.3666280    -0.6257540     0.0082110
  C       -1.5569310    -1.5157420    -0.0063070
  C        1.7318450    -0.2890850     0.0009865
  C       -3.0654680     0.5328540     0.0028660
  C        1.0578830     1.9506280    -0.0091420
  H       -2.3786350    -2.2235800    -0.0126570
  H       -3.1454970     1.1693440    -0.8801020
  H       -3.8626160    -0.2117770    -0.0066990
  H       -3.1511970     1.1523310     0.8973960
  H        1.3824760     2.9891980    -0.0128990
  H        3.6364610    -0.8630510    -0.2195510
  H        2.4794860    -2.1327440    -0.2212610
units angstrom
no_reorient  #important for SAPT in psi4, default
symmetry c1  #important for SAPT in psi4, default
}

set PROPERTIES_ORIGIN ["COM"]
properties('MP2/aug-cc-pvtz', properties = ['dipole'])
--------------------------------------------------------------------------

    Molecular point group: c1
  Charge       = 0
  Multiplicity = 1
  Basis Set: AUG-CC-PVTZ
    Blend: AUG-CC-PVTZ
  Basis Set: (AUG-CC-PVTZ AUX)
    Blend: AUG-CC-PVTZ-JKFIT

    Orbital Energies [Eh]
    ---------------------

    Doubly Occupied:

       1A    -15.635362     2A    -15.584742     3A    -15.569665
       4A    -15.558375     5A    -15.551230     6A    -11.334929
       7A    -11.325374     8A    -11.313000     9A    -11.309432
      10A    -11.289461    11A    -11.251405    12A     -1.365345
      13A     -1.293836    14A     -1.245341    15A     -1.195713
      16A     -1.148332    17A     -1.028449    18A     -0.987564
      19A     -0.890206    20A     -0.868076    21A     -0.804853
      22A     -0.754021    23A     -0.725306    24A     -0.682431
      25A     -0.672190    26A     -0.665985    27A     -0.624765
      28A     -0.604948    29A     -0.595294    30A     -0.590886
      31A     -0.571504    32A     -0.536045    33A     -0.496848
      34A     -0.492144    35A     -0.448837    36A     -0.413479
      37A     -0.407838    38A     -0.366544    39A     -0.304108

  @DF-RHF Final Energy:  -503.72038513568521

   => Energetics <=

    Nuclear Repulsion Energy =            593.7170479521611242
    One-Electron Energy =               -1861.8671417420373473
    Two-Electron Energy =                 764.4297086541911312
    Total Energy =                       -503.7203851356852056
  Basis Set: (AUG-CC-PVTZ AUX)
    Blend: AUG-CC-PVTZ-RI
    Molecular point group: c1

    Geometry (in Angstrom), charge = 0, multiplicity = 1:

       Center              X                  Y                   Z               Mass
    ------------   -----------------  -----------------  -----------------  -----------------
         N           -1.825401426408    -0.159623522169    -0.003066443446    14.003074004430
         N           -0.285963626408    -1.858448622169    -0.011592443446    14.003074004430
         N           -0.303390426408     1.751940477831    -0.001901443446    14.003074004430
         N            2.017136573592     1.038333477831    -0.010829443446    14.003074004430
         N            2.690719573592    -1.194565522169     0.075664556554    14.003074004430
         C           -0.584873426408     0.438055477831     0.001845556554    12.000000000000
         C            0.330530573592    -0.623604522169     0.005255556554    12.000000000000
         C           -1.593028426408    -1.513592522169    -0.009262443446    12.000000000000
         C            1.695747573592    -0.286935522169    -0.001968943446    12.000000000000
         C           -3.101565426408     0.535003477831    -0.000089443446    12.000000000000
         C            1.021785573592     1.952777477831    -0.012097443446    12.000000000000
         H           -2.414732426408    -2.221430522169    -0.015612443446     1.007825032230
         H           -3.181594426408     1.171493477831    -0.883057443446     1.007825032230
         H           -3.898713426408    -0.209627522169    -0.009654443446     1.007825032230
         H           -3.187294426408     1.154480477831     0.894440556554     1.007825032230
         H            1.346378573592     2.991347477831    -0.015854443446     1.007825032230
         H            3.600363573592    -0.860901522169    -0.222506443446     1.007825032230
         H            2.443388573592    -2.130594522169    -0.224216443446     1.007825032230

  Basis Set: AUG-CC-PVTZ
    Blend: AUG-CC-PVTZ
  Basis Set: (AUG-CC-PVTZ AUX)
    Blend: AUG-CC-PVTZ-JKFIT
	 Reference Energy          =    -503.7203851356852056 [Eh]
	 Singles Energy            =      -0.0000000000000000 [Eh]
	 Same-Spin Energy          =      -0.5501204189735263 [Eh]
	 Opposite-Spin Energy      =      -1.6348595574736813 [Eh]
	 Correlation Energy        =      -2.1849799764472078 [Eh]
	 Total Energy              =    -505.9053651121324151 [Eh]

	 ================> DF-SCS-MP2 Energies <==================
	-----------------------------------------------------------
	 SCS Same-Spin Scale       =       0.3333333333333333 [-]
	 SCS Opposite-Spin Scale   =       1.2000000000000000 [-]
	 SCS Same-Spin Energy      =      -0.1833734729911754 [Eh]
	 SCS Opposite-Spin Energy  =      -1.9618314689684175 [Eh]
	 SCS Correlation Energy    =      -2.1452049419595931 [Eh]
	 SCS Total Energy          =    -505.8655900776448107 [Eh]
	-----------------------------------------------------------

  Dipole Moment: [D]
     X:    -2.6475      Y:    -1.2655      Z:    -0.7816     Total:     3.0367

*** Psi4 exiting successfully. Buy a developer a beer!
