                               Psi4 1.4a3.dev225

  ==> Input File <==

--------------------------------------------------------------------------
#psi4
#
memory 32 gb

molecule  {
0 1
  N       -1.7889380    -0.1640290    -0.0179520
  N       -0.2703210    -1.8482040    -0.0023970
  N       -0.2671710     1.7490810    -0.0033560
  N        2.0541740     1.0368940    -0.0085470
  N        2.7206340    -1.1973270     0.0732090
  C       -0.5486140     0.4351420     0.0045870
  C        0.3650590    -0.6247560     0.0169900
  C       -1.5653821    -1.4668473    -0.0163352
  C        1.7266360    -0.2641570     0.0048060
  C       -3.0641060     0.5324820     0.0177850
  C        1.0564750     1.9508360    -0.0110870
  H       -2.3762040    -2.2259510    -0.0342240
  H       -2.9284720     1.5041700    -0.4579320
  H       -3.8067760    -0.0485880    -0.5312030
  H       -3.3972360     0.6796990     1.0480130
  H        1.3812150     2.9891510    -0.0228070
  H        3.6427950    -0.8729100    -0.1905990
  H        2.4748820    -2.1409930    -0.1987870
units angstrom
no_reorient  #important for SAPT in psi4, default
symmetry c1  #important for SAPT in psi4, default
}

set PROPERTIES_ORIGIN ["COM"]
properties('MP2/aug-cc-pvtz', properties = ['dipole'])
--------------------------------------------------------------------------

    Molecular point group: c1
  Charge       = 0
  Multiplicity = 1
  Basis Set: AUG-CC-PVTZ
    Blend: AUG-CC-PVTZ
  Basis Set: (AUG-CC-PVTZ AUX)
    Blend: AUG-CC-PVTZ-JKFIT

    Orbital Energies [Eh]
    ---------------------

    Doubly Occupied:

       1A    -15.637219     2A    -15.580827     3A    -15.563539
       4A    -15.560770     5A    -15.551963     6A    -11.333706
       7A    -11.320601     8A    -11.311239     9A    -11.309840
      10A    -11.290942    11A    -11.251142    12A     -1.378355
      13A     -1.297793    14A     -1.241525    15A     -1.196085
      16A     -1.152447    17A     -1.028451    18A     -0.993336
      19A     -0.893140    20A     -0.872427    21A     -0.801801
      22A     -0.754395    23A     -0.725082    24A     -0.685604
      25A     -0.673248    26A     -0.672437    27A     -0.620566
      28A     -0.607251    29A     -0.595417    30A     -0.587372
      31A     -0.571084    32A     -0.539719    33A     -0.494702
      34A     -0.492908    35A     -0.449640    36A     -0.413666
      37A     -0.408211    38A     -0.371097    39A     -0.302348

  @DF-RHF Final Energy:  -503.72049597212754

   => Energetics <=

    Nuclear Repulsion Energy =            595.4187408998488991
    One-Electron Energy =               -1865.2146805950139878
    Two-Electron Energy =                 766.0754437230375515
    Total Energy =                       -503.7204959721275372
  Basis Set: (AUG-CC-PVTZ AUX)
    Blend: AUG-CC-PVTZ-RI
    Molecular point group: c1

    Geometry (in Angstrom), charge = 0, multiplicity = 1:

       Center              X                  Y                   Z               Mass
    ------------   -----------------  -----------------  -----------------  -----------------
         N           -1.821651695298    -0.168755493798    -0.020527311081    14.003074004430
         N           -0.303034695298    -1.852930493798    -0.004972311081    14.003074004430
         N           -0.299884695298     1.744354506202    -0.005931311081    14.003074004430
         N            2.021460304702     1.032167506202    -0.011122311081    14.003074004430
         N            2.687920304702    -1.202053493798     0.070633688919    14.003074004430
         C           -0.581327695298     0.430415506202     0.002011688919    12.000000000000
         C            0.332345304702    -0.629482493798     0.014414688919    12.000000000000
         C           -1.598095795298    -1.471573793798    -0.018910511081    12.000000000000
         C            1.693922304702    -0.268883493798     0.002230688919    12.000000000000
         C           -3.096819695298     0.527755506202     0.015209688919    12.000000000000
         C            1.023761304702     1.946109506202    -0.013662311081    12.000000000000
         H           -2.408917695298    -2.230677493798    -0.036799311081     1.007825032230
         H           -2.961185695298     1.499443506202    -0.460507311081     1.007825032230
         H           -3.839489695298    -0.053314493798    -0.533778311081     1.007825032230
         H           -3.429949695298     0.674972506202     1.045437688919     1.007825032230
         H            1.348501304702     2.984424506202    -0.025382311081     1.007825032230
         H            3.610081304702    -0.877636493798    -0.193174311081     1.007825032230
         H            2.442168304702    -2.145719493798    -0.201362311081     1.007825032230

  Basis Set: AUG-CC-PVTZ
    Blend: AUG-CC-PVTZ
  Basis Set: (AUG-CC-PVTZ AUX)
    Blend: AUG-CC-PVTZ-JKFIT
	 Reference Energy          =    -503.7204959721275372 [Eh]
	 Singles Energy            =      -0.0000000000000000 [Eh]
	 Same-Spin Energy          =      -0.5502169163800266 [Eh]
	 Opposite-Spin Energy      =      -1.6338398658596818 [Eh]
	 Correlation Energy        =      -2.1840567822397086 [Eh]
	 Total Energy              =    -505.9045527543672733 [Eh]

	 ================> DF-SCS-MP2 Energies <==================
	-----------------------------------------------------------
	 SCS Same-Spin Scale       =       0.3333333333333333 [-]
	 SCS Opposite-Spin Scale   =       1.2000000000000000 [-]
	 SCS Same-Spin Energy      =      -0.1834056387933422 [Eh]
	 SCS Opposite-Spin Energy  =      -1.9606078390316179 [Eh]
	 SCS Correlation Energy    =      -2.1440134778249602 [Eh]
	 SCS Total Energy          =    -505.8645094499524930 [Eh]
	-----------------------------------------------------------

  Dipole Moment: [D]
     X:    -2.7490      Y:    -1.0597      Z:    -0.7123     Total:     3.0311

*** Psi4 exiting successfully. Buy a developer a beer!
