                               Psi4 1.3.2 release

  ==> Input File <==

--------------------------------------------------------------------------
#psi4
#
memory 32 gb

molecule  {
0 1
  N       -1.7893040    -0.1617730    -0.0001110
  N       -0.2819801    -1.8440411    -0.0083100
  N       -0.2672930     1.7497910     0.0010540
  N        2.0532340     1.0361840    -0.0078740
  N        2.7268170    -1.1967150     0.0786200
  C       -0.5580046     0.4278777     0.0046325
  C        0.3666280    -0.6257540     0.0082110
  C       -1.5569310    -1.5157420    -0.0063070
  C        1.7257650    -0.2653140     0.0014880
  C       -3.0654680     0.5328540     0.0028660
  C        1.0578830     1.9506280    -0.0091420
  H       -2.3786350    -2.2235800    -0.0126570
  H       -3.1454970     1.1693440    -0.8801020
  H       -3.8626160    -0.2117770    -0.0066990
  H       -3.1511970     1.1523310     0.8973960
  H        1.3824760     2.9891980    -0.0128990
  H        3.6364610    -0.8630510    -0.2195510
  H        2.4794860    -2.1327440    -0.2212610
units angstrom
no_reorient  #important for SAPT in psi4, default
symmetry c1  #important for SAPT in psi4, default
}

set PROPERTIES_ORIGIN ["COM"]
properties('MP2/aug-cc-pvtz', properties = ['dipole'])
--------------------------------------------------------------------------

    Molecular point group: c1
  Charge       = 0
  Multiplicity = 1
  Basis Set: AUG-CC-PVTZ
    Blend: AUG-CC-PVTZ
  Basis Set: (AUG-CC-PVTZ AUX)
    Blend: AUG-CC-PVTZ-JKFIT

    Orbital Energies [Eh]
    ---------------------

    Doubly Occupied:

       1A    -15.632787     2A    -15.581294     3A    -15.566340
       4A    -15.560136     5A    -15.551630     6A    -11.335132
       7A    -11.320326     8A    -11.312697     9A    -11.311192
      10A    -11.288979    11A    -11.251445    12A     -1.371141
      13A     -1.295648    14A     -1.241008    15A     -1.199120
      16A     -1.150312    17A     -1.032480    18A     -0.986772
      19A     -0.891322    20A     -0.871594    21A     -0.802599
      22A     -0.753606    23A     -0.725198    24A     -0.680576
      25A     -0.673876    26A     -0.667731    27A     -0.625003
      28A     -0.606672    29A     -0.597063    30A     -0.591367
      31A     -0.573968    32A     -0.538026    33A     -0.494562
      34A     -0.491133    35A     -0.449268    36A     -0.414988
      37A     -0.407840    38A     -0.366828    39A     -0.309402

  @DF-RHF Final Energy:  -503.72585611679597

   => Energetics <=

    Nuclear Repulsion Energy =            594.5743725499868333
    One-Electron Energy =               -1863.5583313064330468
    Two-Electron Energy =                 765.2581026396501329
    Total Energy =                       -503.7258561167959670
  Basis Set: (AUG-CC-PVTZ AUX)
    Blend: AUG-CC-PVTZ-RI
    Molecular point group: c1

    Geometry (in Angstrom), charge = 0, multiplicity = 1:

       Center              X                  Y                   Z               Mass
    ------------   -----------------  -----------------  -----------------  -----------------
         N           -1.821152443373    -0.162446094694    -0.003123966736    14.003074004430
         N           -0.313828543373    -1.844714194694    -0.011322966736    14.003074004430
         N           -0.299141443373     1.749117905306    -0.001958966736    14.003074004430
         N            2.021385556627     1.035510905306    -0.010886966736    14.003074004430
         N            2.694968556627    -1.197388094694     0.075607033264    14.003074004430
         C           -0.589853043373     0.427204605306     0.001619533264    12.000000000000
         C            0.334779556627    -0.626427094694     0.005198033264    12.000000000000
         C           -1.588779443373    -1.516415094694    -0.009319966736    12.000000000000
         C            1.693916556627    -0.265987094694    -0.001524966736    12.000000000000
         C           -3.097316443373     0.532180905306    -0.000146966736    12.000000000000
         C            1.026034556627     1.949954905306    -0.012154966736    12.000000000000
         H           -2.410483443373    -2.224253094694    -0.015669966736     1.007825032230
         H           -3.177345443373     1.168670905306    -0.883114966736     1.007825032230
         H           -3.894464443373    -0.212450094694    -0.009711966736     1.007825032230
         H           -3.183045443373     1.151657905306     0.894383033264     1.007825032230
         H            1.350627556627     2.988524905306    -0.015911966736     1.007825032230
         H            3.604612556627    -0.863724094694    -0.222563966736     1.007825032230
         H            2.447637556627    -2.133417094694    -0.224273966736     1.007825032230

  Basis Set: AUG-CC-PVTZ
    Blend: AUG-CC-PVTZ
  Basis Set: (AUG-CC-PVTZ AUX)
    Blend: AUG-CC-PVTZ-JKFIT
	 Reference Energy          =    -503.7258561167959670 [Eh]
	 Singles Energy            =      -0.0000000000000000 [Eh]
	 Same-Spin Energy          =      -0.5488870167727754 [Eh]
	 Opposite-Spin Energy      =      -1.6324098815555110 [Eh]
	 Correlation Energy        =      -2.1812968983282865 [Eh]
	 Total Energy              =    -505.9071530151242655 [Eh]

	 ================> DF-SCS-MP2 Energies <==================
	-----------------------------------------------------------
	 SCS Same-Spin Scale       =       0.3333333333333333 [-]
	 SCS Opposite-Spin Scale   =       1.2000000000000000 [-]
	 SCS Same-Spin Energy      =      -0.1829623389242584 [Eh]
	 SCS Opposite-Spin Energy  =      -1.9588918578666132 [Eh]
	 SCS Correlation Energy    =      -2.1418541967908715 [Eh]
	 SCS Total Energy          =    -505.8677103135868265 [Eh]
	-----------------------------------------------------------

  Dipole Moment: [D]
     X:    -2.7457      Y:    -1.2049      Z:    -0.7892     Total:     3.1006

*** Psi4 exiting successfully. Buy a developer a beer!
