                               Psi4 1.3.2 release

  ==> Input File <==

--------------------------------------------------------------------------
#psi4
#
memory 32 gb

molecule  {
0 1
  N       -1.7656383    -0.1579238    -0.0001010
  N       -0.2656921    -1.8271684    -0.0081221
  N       -0.2672930     1.7497910     0.0010540
  N        2.0532340     1.0361840    -0.0078740
  N        2.7268170    -1.1967150     0.0786200
  C       -0.5487760     0.4359060     0.0048010
  C        0.3666280    -0.6257540     0.0082110
  C       -1.5569310    -1.5157420    -0.0063070
  C        1.7257650    -0.2653140     0.0014880
  C       -3.0654680     0.5328540     0.0028660
  C        1.0578830     1.9506280    -0.0091420
  H       -2.3786350    -2.2235800    -0.0126570
  H       -3.1454970     1.1693440    -0.8801020
  H       -3.8626160    -0.2117770    -0.0066990
  H       -3.1511970     1.1523310     0.8973960
  H        1.3824760     2.9891980    -0.0128990
  H        3.6364610    -0.8630510    -0.2195510
  H        2.4794860    -2.1327440    -0.2212610
units angstrom
no_reorient  #important for SAPT in psi4, default
symmetry c1  #important for SAPT in psi4, default
}

set PROPERTIES_ORIGIN ["COM"]
properties('MP2/aug-cc-pvtz', properties = ['dipole'])
--------------------------------------------------------------------------

    Molecular point group: c1
  Charge       = 0
  Multiplicity = 1
  Basis Set: AUG-CC-PVTZ
    Blend: AUG-CC-PVTZ
  Basis Set: (AUG-CC-PVTZ AUX)
    Blend: AUG-CC-PVTZ-JKFIT

    Orbital Energies [Eh]
    ---------------------

    Doubly Occupied:

       1A    -15.633152     2A    -15.580692     3A    -15.564959
       4A    -15.558848     5A    -15.551042     6A    -11.333853
       7A    -11.320200     8A    -11.310616     9A    -11.309045
      10A    -11.290451    11A    -11.248676    12A     -1.373035
      13A     -1.295436    14A     -1.242488    15A     -1.197284
      16A     -1.150594    17A     -1.031495    18A     -0.986058
      19A     -0.892554    20A     -0.871075    21A     -0.803125
      22A     -0.754034    23A     -0.726220    24A     -0.679104
      25A     -0.673994    26A     -0.666926    27A     -0.625131
      28A     -0.604341    29A     -0.597244    30A     -0.591899
      31A     -0.575873    32A     -0.538109    33A     -0.495305
      34A     -0.489721    35A     -0.450193    36A     -0.415987
      37A     -0.406930    38A     -0.366799    39A     -0.305757

  @DF-RHF Final Energy:  -503.72466606991810

   => Energetics <=

    Nuclear Repulsion Energy =            595.4114628296805449
    One-Electron Energy =               -1865.2557675642331105
    Two-Electron Energy =                 766.1196386646346355
    Total Energy =                       -503.7246660699180438
  Basis Set: (AUG-CC-PVTZ AUX)
    Blend: AUG-CC-PVTZ-RI
    Molecular point group: c1

    Geometry (in Angstrom), charge = 0, multiplicity = 1:

       Center              X                  Y                   Z               Mass
    ------------   -----------------  -----------------  -----------------  -----------------
         N           -1.801982732940    -0.161189700239    -0.003146120782    14.003074004430
         N           -0.302036532940    -1.830434300239    -0.011167220782    14.003074004430
         N           -0.303637432940     1.746525099761    -0.001991120782    14.003074004430
         N            2.016889567060     1.032918099761    -0.010919120782    14.003074004430
         N            2.690472567060    -1.199980900239     0.075574879218    14.003074004430
         C           -0.585120432940     0.432640099761     0.001755879218    12.000000000000
         C            0.330283567060    -0.629019900239     0.005165879218    12.000000000000
         C           -1.593275432940    -1.519007900239    -0.009352120782    12.000000000000
         C            1.689420567060    -0.268579900239    -0.001557120782    12.000000000000
         C           -3.101812432940     0.529588099761    -0.000179120782    12.000000000000
         C            1.021538567060     1.947362099761    -0.012187120782    12.000000000000
         H           -2.414979432940    -2.226845900239    -0.015702120782     1.007825032230
         H           -3.181841432940     1.166078099761    -0.883147120782     1.007825032230
         H           -3.898960432940    -0.215042900239    -0.009744120782     1.007825032230
         H           -3.187541432940     1.149065099761     0.894350879218     1.007825032230
         H            1.346131567060     2.985932099761    -0.015944120782     1.007825032230
         H            3.600116567060    -0.866316900239    -0.222596120782     1.007825032230
         H            2.443141567060    -2.136009900239    -0.224306120782     1.007825032230

  Basis Set: AUG-CC-PVTZ
    Blend: AUG-CC-PVTZ
  Basis Set: (AUG-CC-PVTZ AUX)
    Blend: AUG-CC-PVTZ-JKFIT
	 Reference Energy          =    -503.7246660699181007 [Eh]
	 Singles Energy            =      -0.0000000000000000 [Eh]
	 Same-Spin Energy          =      -0.5494180657484470 [Eh]
	 Opposite-Spin Energy      =      -1.6327323421292355 [Eh]
	 Correlation Energy        =      -2.1821504078776823 [Eh]
	 Total Energy              =    -505.9068164777957577 [Eh]

	 ================> DF-SCS-MP2 Energies <==================
	-----------------------------------------------------------
	 SCS Same-Spin Scale       =       0.3333333333333333 [-]
	 SCS Opposite-Spin Scale   =       1.2000000000000000 [-]
	 SCS Same-Spin Energy      =      -0.1831393552494823 [Eh]
	 SCS Opposite-Spin Energy  =      -1.9592788105550825 [Eh]
	 SCS Correlation Energy    =      -2.1424181658045649 [Eh]
	 SCS Total Energy          =    -505.8670842357226434 [Eh]
	-----------------------------------------------------------

  Dipole Moment: [D]
     X:    -2.8366      Y:    -1.2201      Z:    -0.7885     Total:     3.1869

*** Psi4 exiting successfully. Buy a developer a beer!
