                               Psi4 1.4a3.dev225

  ==> Input File <==

--------------------------------------------------------------------------
#psi4
#
memory 32 gb

molecule  {
0 1
  N       -1.7889380    -0.1640290    -0.0179520
  N       -0.2703210    -1.8482040    -0.0023970
  N       -0.2671710     1.7490810    -0.0033560
  N        2.0541740     1.0368940    -0.0085470
  N        2.7206340    -1.1973270     0.0732090
  C       -0.5486140     0.4351420     0.0045870
  C        0.3650590    -0.6247560     0.0169900
  C       -1.5569260    -1.5161270    -0.0162740
  C        1.7266360    -0.2641570     0.0048060
  C       -3.0641060     0.5324820     0.0177850
  C        1.0367037     1.9478224    -0.0109715
  H       -2.3762040    -2.2259510    -0.0342240
  H       -2.9284720     1.5041700    -0.4579320
  H       -3.8067760    -0.0485880    -0.5312030
  H       -3.3972360     0.6796990     1.0480130
  H        1.3812150     2.9891510    -0.0228070
  H        3.6427950    -0.8729100    -0.1905990
  H        2.4748820    -2.1409930    -0.1987870
units angstrom
no_reorient  #important for SAPT in psi4, default
symmetry c1  #important for SAPT in psi4, default
}

set PROPERTIES_ORIGIN ["COM"]
properties('MP2/aug-cc-pvtz', properties = ['dipole'])
--------------------------------------------------------------------------

    Molecular point group: c1
  Charge       = 0
  Multiplicity = 1
  Basis Set: AUG-CC-PVTZ
    Blend: AUG-CC-PVTZ
  Basis Set: (AUG-CC-PVTZ AUX)
    Blend: AUG-CC-PVTZ-JKFIT

    Orbital Energies [Eh]
    ---------------------

    Doubly Occupied:

       1A    -15.632924     2A    -15.581031     3A    -15.567703
       4A    -15.560250     5A    -15.550808     6A    -11.334143
       7A    -11.320639     8A    -11.312884     9A    -11.310726
      10A    -11.287553    11A    -11.251132    12A     -1.368320
      13A     -1.296251    14A     -1.245974    15A     -1.196925
      16A     -1.151009    17A     -1.031634    18A     -0.985602
      19A     -0.888798    20A     -0.872376    21A     -0.803506
      22A     -0.754385    23A     -0.724105    24A     -0.681350
      25A     -0.673840    26A     -0.666794    27A     -0.625238
      28A     -0.605799    29A     -0.594811    30A     -0.592429
      31A     -0.571196    32A     -0.536417    33A     -0.498110
      34A     -0.490253    35A     -0.450180    36A     -0.414281
      37A     -0.408713    38A     -0.366385    39A     -0.308714

  @DF-RHF Final Energy:  -503.72488596688549

   => Energetics <=

    Nuclear Repulsion Energy =            594.8314627698466666
    One-Electron Energy =               -1864.0863187319546341
    Two-Electron Energy =                 765.5299699952224728
    Total Energy =                       -503.7248859668854948
  Basis Set: (AUG-CC-PVTZ AUX)
    Blend: AUG-CC-PVTZ-RI
    Molecular point group: c1

    Geometry (in Angstrom), charge = 0, multiplicity = 1:

       Center              X                  Y                   Z               Mass
    ------------   -----------------  -----------------  -----------------  -----------------
         N           -1.820740832833    -0.164545934607    -0.020541535257    14.003074004430
         N           -0.302123832833    -1.848720934607    -0.004986535257    14.003074004430
         N           -0.298973832833     1.748564065393    -0.005945535257    14.003074004430
         N            2.022371167167     1.036377065393    -0.011136535257    14.003074004430
         N            2.688831167167    -1.197843934607     0.070619464743    14.003074004430
         C           -0.580416832833     0.434625065393     0.001997464743    12.000000000000
         C            0.333256167167    -0.625272934607     0.014400464743    12.000000000000
         C           -1.588728832833    -1.516643934607    -0.018863535257    12.000000000000
         C            1.694833167167    -0.264673934607     0.002216464743    12.000000000000
         C           -3.095908832833     0.531965065393     0.015195464743    12.000000000000
         C            1.004900867167     1.947305465393    -0.013561035257    12.000000000000
         H           -2.408006832833    -2.226467934607    -0.036813535257     1.007825032230
         H           -2.960274832833     1.503653065393    -0.460521535257     1.007825032230
         H           -3.838578832833    -0.049104934607    -0.533792535257     1.007825032230
         H           -3.429038832833     0.679182065393     1.045423464743     1.007825032230
         H            1.349412167167     2.988634065393    -0.025396535257     1.007825032230
         H            3.610992167167    -0.873426934607    -0.193188535257     1.007825032230
         H            2.443079167167    -2.141509934607    -0.201376535257     1.007825032230

  Basis Set: AUG-CC-PVTZ
    Blend: AUG-CC-PVTZ
  Basis Set: (AUG-CC-PVTZ AUX)
    Blend: AUG-CC-PVTZ-JKFIT
	 Reference Energy          =    -503.7248859668854948 [Eh]
	 Singles Energy            =      -0.0000000000000000 [Eh]
	 Same-Spin Energy          =      -0.5491916027099506 [Eh]
	 Opposite-Spin Energy      =      -1.6327178892490744 [Eh]
	 Correlation Energy        =      -2.1819094919590247 [Eh]
	 Total Energy              =    -505.9067954588444991 [Eh]

	 ================> DF-SCS-MP2 Energies <==================
	-----------------------------------------------------------
	 SCS Same-Spin Scale       =       0.3333333333333333 [-]
	 SCS Opposite-Spin Scale   =       1.2000000000000000 [-]
	 SCS Same-Spin Energy      =      -0.1830638675699835 [Eh]
	 SCS Opposite-Spin Energy  =      -1.9592614670988890 [Eh]
	 SCS Correlation Energy    =      -2.1423253346688726 [Eh]
	 SCS Total Energy          =    -505.8672113015543914 [Eh]
	-----------------------------------------------------------

  Dipole Moment: [D]
     X:    -2.7024      Y:    -1.1982      Z:    -0.7124     Total:     3.0407

*** Psi4 exiting successfully. Buy a developer a beer!
