                               Psi4 1.3.2 release

  ==> Input File <==

--------------------------------------------------------------------------
#psi4
#
memory 32 gb

molecule  {
0 1
  N       -1.7893040    -0.1617730    -0.0001110
  N       -0.2713240    -1.8496560    -0.0082220
  N       -0.2672930     1.7497910     0.0010540
  N        2.0532340     1.0361840    -0.0078740
  N        2.7268170    -1.1967150     0.0786200
  C       -0.5487760     0.4359060     0.0048010
  C        0.3666280    -0.6257540     0.0082110
  C       -1.5569310    -1.5157420    -0.0063070
  C        1.7257650    -0.2653140     0.0014880
  C       -3.0654680     0.5328540     0.0028660
  C        1.0578830     1.9506280    -0.0091420
  H       -2.3786350    -2.2235800    -0.0126570
  H       -3.1454970     1.1693440    -0.8801020
  H       -3.7164678    -0.0752573    -0.0049454
  H       -3.1511970     1.1523310     0.8973960
  H        1.3824760     2.9891980    -0.0128990
  H        3.6364610    -0.8630510    -0.2195510
  H        2.4794860    -2.1327440    -0.2212610
units angstrom
no_reorient  #important for SAPT in psi4, default
symmetry c1  #important for SAPT in psi4, default
}

set PROPERTIES_ORIGIN ["COM"]
properties('MP2/aug-cc-pvtz', properties = ['dipole'])
--------------------------------------------------------------------------

    Molecular point group: c1
  Charge       = 0
  Multiplicity = 1
  Basis Set: AUG-CC-PVTZ
    Blend: AUG-CC-PVTZ
  Basis Set: (AUG-CC-PVTZ AUX)
    Blend: AUG-CC-PVTZ-JKFIT

    Orbital Energies [Eh]
    ---------------------

    Doubly Occupied:

       1A    -15.631925     2A    -15.580684     3A    -15.567156
       4A    -15.560106     5A    -15.551945     6A    -11.334120
       7A    -11.322411     8A    -11.312096     9A    -11.311101
      10A    -11.264885    11A    -11.251350    12A     -1.367529
      13A     -1.295891    14A     -1.241825    15A     -1.198411
      16A     -1.151875    17A     -1.033961    18A     -1.006390
      19A     -0.890394    20A     -0.871572    21A     -0.809678
      22A     -0.757105    23A     -0.723701    24A     -0.689485
      25A     -0.673301    26A     -0.665490    27A     -0.624496
      28A     -0.619990    29A     -0.602810    30A     -0.592171
      31A     -0.581562    32A     -0.536254    33A     -0.495129
      34A     -0.492378    35A     -0.450172    36A     -0.413689
      37A     -0.408099    38A     -0.367861    39A     -0.307393

  @DF-RHF Final Energy:  -503.69024986922398

   => Energetics <=

    Nuclear Repulsion Energy =            595.4004368722910385
    One-Electron Energy =               -1865.0685944896836190
    Two-Electron Energy =                 765.9779077481686045
    Total Energy =                       -503.6902498692239760
  Basis Set: (AUG-CC-PVTZ AUX)
    Blend: AUG-CC-PVTZ-RI
    Molecular point group: c1

    Geometry (in Angstrom), charge = 0, multiplicity = 1:

       Center              X                  Y                   Z               Mass
    ------------   -----------------  -----------------  -----------------  -----------------
         N           -1.823884400000    -0.163487897602    -0.003157652840    14.003074004430
         N           -0.305904400000    -1.851370897602    -0.011268652840    14.003074004430
         N           -0.301873400000     1.748076102398    -0.001992652840    14.003074004430
         N            2.018653600000     1.034469102398    -0.010920652840    14.003074004430
         N            2.692236600000    -1.198429897602     0.075573347160    14.003074004430
         C           -0.583356400000     0.434191102398     0.001754347160    12.000000000000
         C            0.332047600000    -0.627468897602     0.005164347160    12.000000000000
         C           -1.591511400000    -1.517456897602    -0.009353652840    12.000000000000
         C            1.691184600000    -0.267028897602    -0.001558652840    12.000000000000
         C           -3.100048400000     0.531139102398    -0.000180652840    12.000000000000
         C            1.023302600000     1.948913102398    -0.012188652840    12.000000000000
         H           -2.413215400000    -2.225294897602    -0.015703652840     1.007825032230
         H           -3.180077400000     1.167629102398    -0.883148652840     1.007825032230
         H           -3.751048200000    -0.076972197602    -0.007992052840     1.007825032230
         H           -3.185777400000     1.150616102398     0.894349347160     1.007825032230
         H            1.347895600000     2.987483102398    -0.015945652840     1.007825032230
         H            3.601880600000    -0.864765897602    -0.222597652840     1.007825032230
         H            2.444905600000    -2.134458897602    -0.224307652840     1.007825032230

  Basis Set: AUG-CC-PVTZ
    Blend: AUG-CC-PVTZ
  Basis Set: (AUG-CC-PVTZ AUX)
    Blend: AUG-CC-PVTZ-JKFIT
	 Reference Energy          =    -503.6902498692239760 [Eh]
	 Singles Energy            =      -0.0000000000000000 [Eh]
	 Same-Spin Energy          =      -0.5493051361520910 [Eh]
	 Opposite-Spin Energy      =      -1.6323778996270306 [Eh]
	 Correlation Energy        =      -2.1816830357791215 [Eh]
	 Total Energy              =    -505.8719329050031206 [Eh]

	 ================> DF-SCS-MP2 Energies <==================
	-----------------------------------------------------------
	 SCS Same-Spin Scale       =       0.3333333333333333 [-]
	 SCS Opposite-Spin Scale   =       1.2000000000000000 [-]
	 SCS Same-Spin Energy      =      -0.1831017120506970 [Eh]
	 SCS Opposite-Spin Energy  =      -1.9588534795524366 [Eh]
	 SCS Correlation Energy    =      -2.1419551916031336 [Eh]
	 SCS Total Energy          =    -505.8322050608271070 [Eh]
	-----------------------------------------------------------

  Dipole Moment: [D]
     X:    -2.7901      Y:    -1.1650      Z:    -0.7893     Total:     3.1249

*** Psi4 exiting successfully. Buy a developer a beer!
