                               Psi4 1.3.2 release

  ==> Input File <==

--------------------------------------------------------------------------
#psi4
#
memory 32 gb

molecule  {
0 1
  N       -1.8364158    -0.1707075    -0.0001366
  N       -0.2837608    -1.8943192    -0.0084201
  N       -0.2672930     1.7497910     0.0010540
  N        2.0532340     1.0361840    -0.0078740
  N        2.7268170    -1.1967150     0.0786200
  C       -0.5487760     0.4359060     0.0048010
  C        0.3666280    -0.6257540     0.0082110
  C       -1.5569310    -1.5157420    -0.0063070
  C        1.7257650    -0.2653140     0.0014880
  C       -3.0654680     0.5328540     0.0028660
  C        1.0578830     1.9506280    -0.0091420
  H       -2.3786350    -2.2235800    -0.0126570
  H       -3.1454970     1.1693440    -0.8801020
  H       -3.8626160    -0.2117770    -0.0066990
  H       -3.1511970     1.1523310     0.8973960
  H        1.3824760     2.9891980    -0.0128990
  H        3.6364610    -0.8630510    -0.2195510
  H        2.4794860    -2.1327440    -0.2212610
units angstrom
no_reorient  #important for SAPT in psi4, default
symmetry c1  #important for SAPT in psi4, default
}

set PROPERTIES_ORIGIN ["COM"]
properties('MP2/aug-cc-pvtz', properties = ['dipole'])
--------------------------------------------------------------------------

    Molecular point group: c1
  Charge       = 0
  Multiplicity = 1
  Basis Set: AUG-CC-PVTZ
    Blend: AUG-CC-PVTZ
  Basis Set: (AUG-CC-PVTZ AUX)
    Blend: AUG-CC-PVTZ-JKFIT

    Orbital Energies [Eh]
    ---------------------

    Doubly Occupied:

       1A    -15.632754     2A    -15.581873     3A    -15.571969
       4A    -15.564429     5A    -15.555157     6A    -11.336156
       7A    -11.326779     8A    -11.320478     9A    -11.313750
      10A    -11.285273    11A    -11.258063    12A     -1.358876
      13A     -1.297824    14A     -1.242374    15A     -1.196546
      16A     -1.154578    17A     -1.031689    18A     -0.986201
      19A     -0.887446    20A     -0.873957    21A     -0.801916
      22A     -0.752753    23A     -0.720726    24A     -0.683817
      25A     -0.672086    26A     -0.666064    27A     -0.625991
      28A     -0.609513    29A     -0.594971    30A     -0.589648
      31A     -0.561638    32A     -0.533973    33A     -0.498304
      34A     -0.496433    35A     -0.450736    36A     -0.414652
      37A     -0.407850    38A     -0.371551    39A     -0.311930

  @DF-RHF Final Energy:  -503.71777600584414

   => Energetics <=

    Nuclear Repulsion Energy =            592.2449666711487453
    One-Electron Energy =               -1858.8440435424290627
    Two-Electron Energy =                 762.8813008654362875
    Total Energy =                       -503.7177760058441436
  Basis Set: (AUG-CC-PVTZ AUX)
    Blend: AUG-CC-PVTZ-RI
    Molecular point group: c1

    Geometry (in Angstrom), charge = 0, multiplicity = 1:

       Center              X                  Y                   Z               Mass
    ------------   -----------------  -----------------  -----------------  -----------------
         N           -1.864414363876    -0.166464661872    -0.003150383686    14.003074004430
         N           -0.311759363876    -1.890076361872    -0.011433883686    14.003074004430
         N           -0.295291563876     1.754033838128    -0.001959783686    14.003074004430
         N            2.025235436124     1.040426838128    -0.010887783686    14.003074004430
         N            2.698818436124    -1.192472161872     0.075606216314    14.003074004430
         C           -0.576774563876     0.440148838128     0.001787216314    12.000000000000
         C            0.338629436124    -0.621511161872     0.005197216314    12.000000000000
         C           -1.584929563876    -1.511499161872    -0.009320783686    12.000000000000
         C            1.697766436124    -0.261071161872    -0.001525783686    12.000000000000
         C           -3.093466563876     0.537096838128    -0.000147783686    12.000000000000
         C            1.029884436124     1.954870838128    -0.012155783686    12.000000000000
         H           -2.406633563876    -2.219337161872    -0.015670783686     1.007825032230
         H           -3.173495563876     1.173586838128    -0.883115783686     1.007825032230
         H           -3.890614563876    -0.207534161872    -0.009712783686     1.007825032230
         H           -3.179195563876     1.156573838128     0.894382216314     1.007825032230
         H            1.354477436124     2.993440838128    -0.015912783686     1.007825032230
         H            3.608462436124    -0.858808161872    -0.222564783686     1.007825032230
         H            2.451487436124    -2.128501161872    -0.224274783686     1.007825032230

  Basis Set: AUG-CC-PVTZ
    Blend: AUG-CC-PVTZ
  Basis Set: (AUG-CC-PVTZ AUX)
    Blend: AUG-CC-PVTZ-JKFIT
	 Reference Energy          =    -503.7177760058441436 [Eh]
	 Singles Energy            =      -0.0000000000000000 [Eh]
	 Same-Spin Energy          =      -0.5492024764141947 [Eh]
	 Opposite-Spin Energy      =      -1.6343863408053463 [Eh]
	 Correlation Energy        =      -2.1835888172195412 [Eh]
	 Total Energy              =    -505.9013648230636591 [Eh]

	 ================> DF-SCS-MP2 Energies <==================
	-----------------------------------------------------------
	 SCS Same-Spin Scale       =       0.3333333333333333 [-]
	 SCS Opposite-Spin Scale   =       1.2000000000000000 [-]
	 SCS Same-Spin Energy      =      -0.1830674921380649 [Eh]
	 SCS Opposite-Spin Energy  =      -1.9612636089664155 [Eh]
	 SCS Correlation Energy    =      -2.1443311011044806 [Eh]
	 SCS Total Energy          =    -505.8621071069485993 [Eh]
	-----------------------------------------------------------

  Dipole Moment: [D]
     X:    -2.5119      Y:    -1.0312      Z:    -0.7898     Total:     2.8279

*** Psi4 exiting successfully. Buy a developer a beer!
