                               Psi4 1.4a3.dev225

  ==> Input File <==

--------------------------------------------------------------------------
#psi4
#
memory 32 gb

molecule  {
0 1
  N       -1.7889380    -0.1640290    -0.0179520
  N       -0.2703210    -1.8482040    -0.0023970
  N       -0.2671710     1.7490810    -0.0033560
  N        2.0541740     1.0368940    -0.0085470
  N        2.7206340    -1.1973270     0.0732090
  C       -0.5486140     0.4351420     0.0045870
  C        0.3650590    -0.6247560     0.0169900
  C       -1.5569260    -1.5161270    -0.0162740
  C        1.7315184    -0.2447631     0.0046070
  C       -3.0641060     0.5324820     0.0177850
  C        1.0564750     1.9508360    -0.0110870
  H       -2.3762040    -2.2259510    -0.0342240
  H       -2.9284720     1.5041700    -0.4579320
  H       -3.8067760    -0.0485880    -0.5312030
  H       -3.3972360     0.6796990     1.0480130
  H        1.3812150     2.9891510    -0.0228070
  H        3.6427950    -0.8729100    -0.1905990
  H        2.4748820    -2.1409930    -0.1987870
units angstrom
no_reorient  #important for SAPT in psi4, default
symmetry c1  #important for SAPT in psi4, default
}

set PROPERTIES_ORIGIN ["COM"]
properties('MP2/aug-cc-pvtz', properties = ['dipole'])
--------------------------------------------------------------------------

    Molecular point group: c1
  Charge       = 0
  Multiplicity = 1
  Basis Set: AUG-CC-PVTZ
    Blend: AUG-CC-PVTZ
  Basis Set: (AUG-CC-PVTZ AUX)
    Blend: AUG-CC-PVTZ-JKFIT

    Orbital Energies [Eh]
    ---------------------

    Doubly Occupied:

       1A    -15.632056     2A    -15.579371     3A    -15.567530
       4A    -15.561634     5A    -15.551841     6A    -11.334573
       7A    -11.320620     8A    -11.312857     9A    -11.311423
      10A    -11.287033    11A    -11.251573    12A     -1.367585
      13A     -1.299001    14A     -1.241026    15A     -1.195680
      16A     -1.155167    17A     -1.029891    18A     -0.984670
      19A     -0.890904    20A     -0.873181    21A     -0.802216
      22A     -0.753738    23A     -0.724158    24A     -0.679617
      25A     -0.674945    26A     -0.666137    27A     -0.625436
      28A     -0.605318    29A     -0.595524    30A     -0.591791
      31A     -0.571399    32A     -0.537573    33A     -0.494406
      34A     -0.492033    35A     -0.452080    36A     -0.414081
      37A     -0.407894    38A     -0.369537    39A     -0.306636

  @DF-RHF Final Energy:  -503.72481727760271

   => Energetics <=

    Nuclear Repulsion Energy =            594.6485647491512054
    One-Electron Energy =               -1863.7224981270501303
    Two-Electron Energy =                 765.3491161002961007
    Total Energy =                       -503.7248172776027104
  Basis Set: (AUG-CC-PVTZ AUX)
    Blend: AUG-CC-PVTZ-RI
    Molecular point group: c1

    Geometry (in Angstrom), charge = 0, multiplicity = 1:

       Center              X                  Y                   Z               Mass
    ------------   -----------------  -----------------  -----------------  -----------------
         N           -1.822725431422    -0.166349716307    -0.020516218316    14.003074004430
         N           -0.304108431422    -1.850524716307    -0.004961218316    14.003074004430
         N           -0.300958431422     1.746760283693    -0.005920218316    14.003074004430
         N            2.020386568578     1.034573283693    -0.011111218316    14.003074004430
         N            2.686846568578    -1.199647716307     0.070644781684    14.003074004430
         C           -0.582401431422     0.432821283693     0.002022781684    12.000000000000
         C            0.331271568578    -0.627076716307     0.014425781684    12.000000000000
         C           -1.590713431422    -1.518447716307    -0.018838218316    12.000000000000
         C            1.697730968578    -0.247083816307     0.002042781684    12.000000000000
         C           -3.097893431422     0.530161283693     0.015220781684    12.000000000000
         C            1.022687568578     1.948515283693    -0.013651218316    12.000000000000
         H           -2.409991431422    -2.228271716307    -0.036788218316     1.007825032230
         H           -2.962259431422     1.501849283693    -0.460496218316     1.007825032230
         H           -3.840563431422    -0.050908716307    -0.533767218316     1.007825032230
         H           -3.431023431422     0.677378283693     1.045448781684     1.007825032230
         H            1.347427568578     2.986830283693    -0.025371218316     1.007825032230
         H            3.609007568578    -0.875230716307    -0.193163218316     1.007825032230
         H            2.441094568578    -2.143313716307    -0.201351218316     1.007825032230

  Basis Set: AUG-CC-PVTZ
    Blend: AUG-CC-PVTZ
  Basis Set: (AUG-CC-PVTZ AUX)
    Blend: AUG-CC-PVTZ-JKFIT
	 Reference Energy          =    -503.7248172776027104 [Eh]
	 Singles Energy            =      -0.0000000000000000 [Eh]
	 Same-Spin Energy          =      -0.5492701184616995 [Eh]
	 Opposite-Spin Energy      =      -1.6327605825315614 [Eh]
	 Correlation Energy        =      -2.1820307009932609 [Eh]
	 Total Energy              =    -505.9068479785959767 [Eh]

	 ================> DF-SCS-MP2 Energies <==================
	-----------------------------------------------------------
	 SCS Same-Spin Scale       =       0.3333333333333333 [-]
	 SCS Opposite-Spin Scale   =       1.2000000000000000 [-]
	 SCS Same-Spin Energy      =      -0.1830900394872332 [Eh]
	 SCS Opposite-Spin Energy  =      -1.9593126990378735 [Eh]
	 SCS Correlation Energy    =      -2.1424027385251065 [Eh]
	 SCS Total Energy          =    -505.8672200161278170 [Eh]
	-----------------------------------------------------------

  Dipole Moment: [D]
     X:    -2.6865      Y:    -1.1095      Z:    -0.7162     Total:     2.9935

*** Psi4 exiting successfully. Buy a developer a beer!
