                               Psi4 1.3.2 release

  ==> Input File <==

--------------------------------------------------------------------------
#psi4
#
memory 32 gb

molecule  {
0 1
  N       -1.7658395    -0.1168150     0.0003939
  N       -0.2713240    -1.8496560    -0.0082220
  N       -0.2672930     1.7497910     0.0010540
  N        2.0532340     1.0361840    -0.0078740
  N        2.7268170    -1.1967150     0.0786200
  C       -0.5487760     0.4359060     0.0048010
  C        0.3666280    -0.6257540     0.0082110
  C       -1.5569310    -1.5157420    -0.0063070
  C        1.7257650    -0.2653140     0.0014880
  C       -3.0654680     0.5328540     0.0028660
  C        1.0578830     1.9506280    -0.0091420
  H       -2.3786350    -2.2235800    -0.0126570
  H       -3.1454970     1.1693440    -0.8801020
  H       -3.8881195    -0.1835038    -0.0065000
  H       -3.1511970     1.1523310     0.8973960
  H        1.3824760     2.9891980    -0.0128990
  H        3.6364610    -0.8630510    -0.2195510
  H        2.4794860    -2.1327440    -0.2212610
units angstrom
no_reorient  #important for SAPT in psi4, default
symmetry c1  #important for SAPT in psi4, default
}

set PROPERTIES_ORIGIN ["COM"]
properties('MP2/aug-cc-pvtz', properties = ['dipole'])
--------------------------------------------------------------------------

    Molecular point group: c1
  Charge       = 0
  Multiplicity = 1
  Basis Set: AUG-CC-PVTZ
    Blend: AUG-CC-PVTZ
  Basis Set: (AUG-CC-PVTZ AUX)
    Blend: AUG-CC-PVTZ-JKFIT

    Orbital Energies [Eh]
    ---------------------

    Doubly Occupied:

       1A    -15.632570     2A    -15.580882     3A    -15.573368
       4A    -15.557387     5A    -15.550231     6A    -11.334344
       7A    -11.324252     8A    -11.311237     9A    -11.310995
      10A    -11.288137    11A    -11.250249    12A     -1.368965
      13A     -1.294267    14A     -1.242785    15A     -1.199068
      16A     -1.150011    17A     -1.033141    18A     -0.984812
      19A     -0.888297    20A     -0.870537    21A     -0.805111
      22A     -0.754576    23A     -0.725631    24A     -0.677749
      25A     -0.672204    26A     -0.667127    27A     -0.626688
      28A     -0.599925    29A     -0.595612    30A     -0.590919
      31A     -0.579390    32A     -0.535242    33A     -0.495168
      34A     -0.491002    35A     -0.451671    36A     -0.417283
      37A     -0.408329    38A     -0.363181    39A     -0.309340

  @DF-RHF Final Energy:  -503.72196980329181

   => Energetics <=

    Nuclear Repulsion Energy =            594.6395534895474384
    One-Electron Energy =               -1863.6996776373800913
    Two-Electron Energy =                 765.3381543445407260
    Total Energy =                       -503.7219698032918132
  Basis Set: (AUG-CC-PVTZ AUX)
    Blend: AUG-CC-PVTZ-RI
    Molecular point group: c1

    Geometry (in Angstrom), charge = 0, multiplicity = 1:

       Center              X                  Y                   Z               Mass
    ------------   -----------------  -----------------  -----------------  -----------------
         N           -1.801463571419    -0.122021251742    -0.002689670945    14.003074004430
         N           -0.306948071419    -1.854862251742    -0.011305570945    14.003074004430
         N           -0.302917071419     1.744584748258    -0.002029570945    14.003074004430
         N            2.017609928581     1.030977748258    -0.010957570945    14.003074004430
         N            2.691192928581    -1.201921251742     0.075536429055    14.003074004430
         C           -0.584400071419     0.430699748258     0.001717429055    12.000000000000
         C            0.331003928581    -0.630960251742     0.005127429055    12.000000000000
         C           -1.592555071419    -1.520948251742    -0.009390570945    12.000000000000
         C            1.690140928581    -0.270520251742    -0.001595570945    12.000000000000
         C           -3.101092071419     0.527647748258    -0.000217570945    12.000000000000
         C            1.022258928581     1.945421748258    -0.012225570945    12.000000000000
         H           -2.414259071419    -2.228786251742    -0.015740570945     1.007825032230
         H           -3.181121071419     1.164137748258    -0.883185570945     1.007825032230
         H           -3.923743571419    -0.188710051742    -0.009583570945     1.007825032230
         H           -3.186821071419     1.147124748258     0.894312429055     1.007825032230
         H            1.346851928581     2.983991748258    -0.015982570945     1.007825032230
         H            3.600836928581    -0.868257251742    -0.222634570945     1.007825032230
         H            2.443861928581    -2.137950251742    -0.224344570945     1.007825032230

  Basis Set: AUG-CC-PVTZ
    Blend: AUG-CC-PVTZ
  Basis Set: (AUG-CC-PVTZ AUX)
    Blend: AUG-CC-PVTZ-JKFIT
	 Reference Energy          =    -503.7219698032918132 [Eh]
	 Singles Energy            =      -0.0000000000000000 [Eh]
	 Same-Spin Energy          =      -0.5490221423496633 [Eh]
	 Opposite-Spin Energy      =      -1.6331021383404192 [Eh]
	 Correlation Energy        =      -2.1821242806900827 [Eh]
	 Total Energy              =    -505.9040940839818745 [Eh]

	 ================> DF-SCS-MP2 Energies <==================
	-----------------------------------------------------------
	 SCS Same-Spin Scale       =       0.3333333333333333 [-]
	 SCS Opposite-Spin Scale   =       1.2000000000000000 [-]
	 SCS Same-Spin Energy      =      -0.1830073807832211 [Eh]
	 SCS Opposite-Spin Energy  =      -1.9597225660085029 [Eh]
	 SCS Correlation Energy    =      -2.1427299467917242 [Eh]
	 SCS Total Energy          =    -505.8646997500835596 [Eh]
	-----------------------------------------------------------

  Dipole Moment: [D]
     X:    -2.8021      Y:    -1.2769      Z:    -0.7895     Total:     3.1790

*** Psi4 exiting successfully. Buy a developer a beer!
