                               Psi4 1.3.2 release

  ==> Input File <==

--------------------------------------------------------------------------
#psi4
#
memory 32 gb

molecule  {
0 1
  N       -1.7893040    -0.1617730    -0.0001110
  N       -0.2713240    -1.8496560    -0.0082220
  N       -0.2672930     1.7497910     0.0010540
  N        2.0984571     1.0239619    -0.0079434
  N        2.7268170    -1.1967150     0.0786200
  C       -0.5487760     0.4359060     0.0048010
  C        0.3800363    -0.6729672     0.0084683
  C       -1.5569310    -1.5157420    -0.0063070
  C        1.7257650    -0.2653140     0.0014880
  C       -3.0654680     0.5328540     0.0028660
  C        1.0578830     1.9506280    -0.0091420
  H       -2.3786350    -2.2235800    -0.0126570
  H       -3.1454970     1.1693440    -0.8801020
  H       -3.8626160    -0.2117770    -0.0066990
  H       -3.1511970     1.1523310     0.8973960
  H        1.3824760     2.9891980    -0.0128990
  H        3.6364610    -0.8630510    -0.2195510
  H        2.4794860    -2.1327440    -0.2212610
units angstrom
no_reorient  #important for SAPT in psi4, default
symmetry c1  #important for SAPT in psi4, default
}

set PROPERTIES_ORIGIN ["COM"]
properties('MP2/aug-cc-pvtz', properties = ['dipole'])
--------------------------------------------------------------------------

    Molecular point group: c1
  Charge       = 0
  Multiplicity = 1
  Basis Set: AUG-CC-PVTZ
    Blend: AUG-CC-PVTZ
  Basis Set: (AUG-CC-PVTZ AUX)
    Blend: AUG-CC-PVTZ-JKFIT

    Orbital Energies [Eh]
    ---------------------

    Doubly Occupied:

       1A    -15.637247     2A    -15.575642     3A    -15.568369
       4A    -15.565772     5A    -15.557582     6A    -11.331834
       7A    -11.322341     8A    -11.317521     9A    -11.317407
      10A    -11.290554    11A    -11.256026    12A     -1.369104
      13A     -1.291240    14A     -1.244614    15A     -1.202936
      16A     -1.146891    17A     -1.025192    18A     -0.989456
      19A     -0.887615    20A     -0.875593    21A     -0.797459
      22A     -0.750806    23A     -0.729195    24A     -0.679454
      25A     -0.671085    26A     -0.667123    27A     -0.624079
      28A     -0.601466    29A     -0.596659    30A     -0.589773
      31A     -0.571051    32A     -0.535883    33A     -0.496505
      34A     -0.495789    35A     -0.456900    36A     -0.416844
      37A     -0.408630    38A     -0.367155    39A     -0.301881

  @DF-RHF Final Energy:  -503.71571374796707

   => Energetics <=

    Nuclear Repulsion Energy =            592.9480834811332670
    One-Electron Energy =               -1860.2662481827187548
    Two-Electron Energy =                 763.6024509536183587
    Total Energy =                       -503.7157137479670155
  Basis Set: (AUG-CC-PVTZ AUX)
    Blend: AUG-CC-PVTZ-RI
    Molecular point group: c1

    Geometry (in Angstrom), charge = 0, multiplicity = 1:

       Center              X                  Y                   Z               Mass
    ------------   -----------------  -----------------  -----------------  -----------------
         N           -1.828223767890    -0.157616209878    -0.003159990429    14.003074004430
         N           -0.310243767890    -1.845499209878    -0.011270990429    14.003074004430
         N           -0.306212767890     1.753947790122    -0.001994990429    14.003074004430
         N            2.059537332110     1.028118690122    -0.010992390429    14.003074004430
         N            2.687897232110    -1.192558209878     0.075571009571    14.003074004430
         C           -0.587695767890     0.440062790122     0.001752009571    12.000000000000
         C            0.341116532110    -0.668810409878     0.005419309571    12.000000000000
         C           -1.595850767890    -1.511585209878    -0.009355990429    12.000000000000
         C            1.686845232110    -0.261157209878    -0.001560990429    12.000000000000
         C           -3.104387767890     0.537010790122    -0.000182990429    12.000000000000
         C            1.018963232110     1.954784790122    -0.012190990429    12.000000000000
         H           -2.417554767890    -2.219423209878    -0.015705990429     1.007825032230
         H           -3.184416767890     1.173500790122    -0.883150990429     1.007825032230
         H           -3.901535767890    -0.207620209878    -0.009747990429     1.007825032230
         H           -3.190116767890     1.156487790122     0.894347009571     1.007825032230
         H            1.343556232110     2.993354790122    -0.015947990429     1.007825032230
         H            3.597541232110    -0.858894209878    -0.222599990429     1.007825032230
         H            2.440566232110    -2.128587209878    -0.224309990429     1.007825032230

  Basis Set: AUG-CC-PVTZ
    Blend: AUG-CC-PVTZ
  Basis Set: (AUG-CC-PVTZ AUX)
    Blend: AUG-CC-PVTZ-JKFIT
	 Reference Energy          =    -503.7157137479670723 [Eh]
	 Singles Energy            =      -0.0000000000000000 [Eh]
	 Same-Spin Energy          =      -0.5506393573941026 [Eh]
	 Opposite-Spin Energy      =      -1.6354156203304986 [Eh]
	 Correlation Energy        =      -2.1860549777246012 [Eh]
	 Total Energy              =    -505.9017687256916815 [Eh]

	 ================> DF-SCS-MP2 Energies <==================
	-----------------------------------------------------------
	 SCS Same-Spin Scale       =       0.3333333333333333 [-]
	 SCS Opposite-Spin Scale   =       1.2000000000000000 [-]
	 SCS Same-Spin Energy      =      -0.1835464524647009 [Eh]
	 SCS Opposite-Spin Energy  =      -1.9624987443965982 [Eh]
	 SCS Correlation Energy    =      -2.1460451968612992 [Eh]
	 SCS Total Energy          =    -505.8617589448283525 [Eh]
	-----------------------------------------------------------

  Dipole Moment: [D]
     X:    -3.0001      Y:    -1.1165      Z:    -0.7884     Total:     3.2968

*** Psi4 exiting successfully. Buy a developer a beer!
