                               Psi4 1.3.2 release

  ==> Input File <==

--------------------------------------------------------------------------
#psi4
#
memory 32 gb

molecule  {
0 1
  N       -1.7893040    -0.1617730    -0.0001110
  N       -0.2713240    -1.8496560    -0.0082220
  N       -0.2672930     1.7497910     0.0010540
  N        2.0532340     1.0361840    -0.0078740
  N        2.7268170    -1.1967150     0.0786200
  C       -0.5540390     0.4467087     0.0048449
  C        0.3666280    -0.6257540     0.0082110
  C       -1.5687554    -1.5177181    -0.0063358
  C        1.7257650    -0.2653140     0.0014880
  C       -3.0654680     0.5328540     0.0028660
  C        1.0578830     1.9506280    -0.0091420
  H       -2.3786350    -2.2235800    -0.0126570
  H       -3.1454970     1.1693440    -0.8801020
  H       -3.8626160    -0.2117770    -0.0066990
  H       -3.1511970     1.1523310     0.8973960
  H        1.3824760     2.9891980    -0.0128990
  H        3.6364610    -0.8630510    -0.2195510
  H        2.4794860    -2.1327440    -0.2212610
units angstrom
no_reorient  #important for SAPT in psi4, default
symmetry c1  #important for SAPT in psi4, default
}

set PROPERTIES_ORIGIN ["COM"]
properties('MP2/aug-cc-pvtz', properties = ['dipole'])
--------------------------------------------------------------------------

    Molecular point group: c1
  Charge       = 0
  Multiplicity = 1
  Basis Set: AUG-CC-PVTZ
    Blend: AUG-CC-PVTZ
  Basis Set: (AUG-CC-PVTZ AUX)
    Blend: AUG-CC-PVTZ-JKFIT

    Orbital Energies [Eh]
    ---------------------

    Doubly Occupied:

       1A    -15.634077     2A    -15.580398     3A    -15.568223
       4A    -15.560679     5A    -15.552955     6A    -11.333858
       7A    -11.323041     8A    -11.313898     9A    -11.312035
      10A    -11.288452    11A    -11.252615    12A     -1.366225
      13A     -1.296440    14A     -1.242974    15A     -1.194618
      16A     -1.153170    17A     -1.029561    18A     -0.985595
      19A     -0.892174    20A     -0.872794    21A     -0.802160
      22A     -0.753552    23A     -0.724737    24A     -0.681306
      25A     -0.673825    26A     -0.666177    27A     -0.624835
      28A     -0.606120    29A     -0.597162    30A     -0.591588
      31A     -0.571760    32A     -0.535871    33A     -0.496324
      34A     -0.492428    35A     -0.450264    36A     -0.413840
      37A     -0.408046    38A     -0.368896    39A     -0.305257

  @DF-RHF Final Energy:  -503.72334270475335

   => Energetics <=

    Nuclear Repulsion Energy =            594.0077590197295194
    One-Electron Energy =               -1862.4263463691768266
    Two-Electron Energy =                 764.6952446446939575
    Total Energy =                       -503.7233427047533496
  Basis Set: (AUG-CC-PVTZ AUX)
    Blend: AUG-CC-PVTZ-RI
    Molecular point group: c1

    Geometry (in Angstrom), charge = 0, multiplicity = 1:

       Center              X                  Y                   Z               Mass
    ------------   -----------------  -----------------  -----------------  -----------------
         N           -1.821520810606    -0.163275455527    -0.003147012735    14.003074004430
         N           -0.303540810606    -1.851158455527    -0.011258012735    14.003074004430
         N           -0.299509810606     1.748288544473    -0.001982012735    14.003074004430
         N            2.021017189394     1.034681544473    -0.010910012735    14.003074004430
         N            2.694600189394    -1.198217455527     0.075583987265    14.003074004430
         C           -0.586255810606     0.445206244473     0.001808887265    12.000000000000
         C            0.334411189394    -0.627256455527     0.005174987265    12.000000000000
         C           -1.600972210606    -1.519220555527    -0.009371812735    12.000000000000
         C            1.693548189394    -0.266816455527    -0.001548012735    12.000000000000
         C           -3.097684810606     0.531351544473    -0.000170012735    12.000000000000
         C            1.025666189394     1.949125544473    -0.012178012735    12.000000000000
         H           -2.410851810606    -2.225082455527    -0.015693012735     1.007825032230
         H           -3.177713810606     1.167841544473    -0.883138012735     1.007825032230
         H           -3.894832810606    -0.213279455527    -0.009735012735     1.007825032230
         H           -3.183413810606     1.150828544473     0.894359987265     1.007825032230
         H            1.350259189394     2.987695544473    -0.015935012735     1.007825032230
         H            3.604244189394    -0.864553455527    -0.222587012735     1.007825032230
         H            2.447269189394    -2.134246455527    -0.224297012735     1.007825032230

  Basis Set: AUG-CC-PVTZ
    Blend: AUG-CC-PVTZ
  Basis Set: (AUG-CC-PVTZ AUX)
    Blend: AUG-CC-PVTZ-JKFIT
	 Reference Energy          =    -503.7233427047533496 [Eh]
	 Singles Energy            =      -0.0000000000000000 [Eh]
	 Same-Spin Energy          =      -0.5497178666609592 [Eh]
	 Opposite-Spin Energy      =      -1.6337310446705899 [Eh]
	 Correlation Energy        =      -2.1834489113315492 [Eh]
	 Total Energy              =    -505.9067916160848881 [Eh]

	 ================> DF-SCS-MP2 Energies <==================
	-----------------------------------------------------------
	 SCS Same-Spin Scale       =       0.3333333333333333 [-]
	 SCS Opposite-Spin Scale   =       1.2000000000000000 [-]
	 SCS Same-Spin Energy      =      -0.1832392888869864 [Eh]
	 SCS Opposite-Spin Energy  =      -1.9604772536047079 [Eh]
	 SCS Correlation Energy    =      -2.1437165424916942 [Eh]
	 SCS Total Energy          =    -505.8670592472450380 [Eh]
	-----------------------------------------------------------

  Dipole Moment: [D]
     X:    -2.7562      Y:    -1.1377      Z:    -0.7891     Total:     3.0844

*** Psi4 exiting successfully. Buy a developer a beer!
