                               Psi4 1.3.2 release

  ==> Input File <==

--------------------------------------------------------------------------
#psi4
#
memory 32 gb

molecule  {
0 1
  N       -1.7944721    -0.1509248    -0.0001865
  N       -0.2713240    -1.8496560    -0.0082220
  N       -0.2787692     1.7521971     0.0009758
  N        2.0532340     1.0361840    -0.0078740
  N        2.7268170    -1.1967150     0.0786200
  C       -0.5487760     0.4359060     0.0048010
  C        0.3666280    -0.6257540     0.0082110
  C       -1.5569310    -1.5157420    -0.0063070
  C        1.7257650    -0.2653140     0.0014880
  C       -3.0654680     0.5328540     0.0028660
  C        1.0578830     1.9506280    -0.0091420
  H       -2.3786350    -2.2235800    -0.0126570
  H       -3.1454970     1.1693440    -0.8801020
  H       -3.8626160    -0.2117770    -0.0066990
  H       -3.1511970     1.1523310     0.8973960
  H        1.3824760     2.9891980    -0.0128990
  H        3.6364610    -0.8630510    -0.2195510
  H        2.4794860    -2.1327440    -0.2212610
units angstrom
no_reorient  #important for SAPT in psi4, default
symmetry c1  #important for SAPT in psi4, default
}

set PROPERTIES_ORIGIN ["COM"]
properties('MP2/aug-cc-pvtz', properties = ['dipole'])
--------------------------------------------------------------------------

    Molecular point group: c1
  Charge       = 0
  Multiplicity = 1
  Basis Set: AUG-CC-PVTZ
    Blend: AUG-CC-PVTZ
  Basis Set: (AUG-CC-PVTZ AUX)
    Blend: AUG-CC-PVTZ-JKFIT

    Orbital Energies [Eh]
    ---------------------

    Doubly Occupied:

       1A    -15.632039     2A    -15.581551     3A    -15.568856
       4A    -15.561684     5A    -15.553549     6A    -11.335133
       7A    -11.323689     8A    -11.313518     9A    -11.313491
      10A    -11.287161    11A    -11.252270    12A     -1.366004
      13A     -1.295320    14A     -1.241588    15A     -1.198216
      16A     -1.152263    17A     -1.030568    18A     -0.985667
      19A     -0.889893    20A     -0.871443    21A     -0.802955
      22A     -0.752959    23A     -0.724184    24A     -0.680107
      25A     -0.672686    26A     -0.666083    27A     -0.625517
      28A     -0.605941    29A     -0.596307    30A     -0.590832
      31A     -0.571408    32A     -0.535645    33A     -0.494734
      34A     -0.493844    35A     -0.451601    36A     -0.414808
      37A     -0.409476    38A     -0.368232    39A     -0.307527

  @DF-RHF Final Energy:  -503.72354491855225

   => Energetics <=

    Nuclear Repulsion Energy =            594.0211935668313572
    One-Electron Energy =               -1862.4519804837555057
    Two-Electron Energy =                 764.7072419983719556
    Total Energy =                       -503.7235449185523066
  Basis Set: (AUG-CC-PVTZ AUX)
    Blend: AUG-CC-PVTZ-RI
    Molecular point group: c1

    Geometry (in Angstrom), charge = 0, multiplicity = 1:

       Center              X                  Y                   Z               Mass
    ------------   -----------------  -----------------  -----------------  -----------------
         N           -1.826500928199    -0.152961780690    -0.003206859215    14.003074004430
         N           -0.303352828199    -1.851692980690    -0.011242359215    14.003074004430
         N           -0.310798028199     1.750160119310    -0.002044559215    14.003074004430
         N            2.021205171801     1.034147019310    -0.010894359215    14.003074004430
         N            2.694788171801    -1.198751980690     0.075599640785    14.003074004430
         C           -0.580804828199     0.433869019310     0.001780640785    12.000000000000
         C            0.334599171801    -0.627790980690     0.005190640785    12.000000000000
         C           -1.588959828199    -1.517778980690    -0.009327359215    12.000000000000
         C            1.693736171801    -0.267350980690    -0.001532359215    12.000000000000
         C           -3.097496828199     0.530817019310    -0.000154359215    12.000000000000
         C            1.025854171801     1.948591019310    -0.012162359215    12.000000000000
         H           -2.410663828199    -2.225616980690    -0.015677359215     1.007825032230
         H           -3.177525828199     1.167307019310    -0.883122359215     1.007825032230
         H           -3.894644828199    -0.213813980690    -0.009719359215     1.007825032230
         H           -3.183225828199     1.150294019310     0.894375640785     1.007825032230
         H            1.350447171801     2.987161019310    -0.015919359215     1.007825032230
         H            3.604432171801    -0.865087980690    -0.222571359215     1.007825032230
         H            2.447457171801    -2.134780980690    -0.224281359215     1.007825032230

  Basis Set: AUG-CC-PVTZ
    Blend: AUG-CC-PVTZ
  Basis Set: (AUG-CC-PVTZ AUX)
    Blend: AUG-CC-PVTZ-JKFIT
	 Reference Energy          =    -503.7235449185522498 [Eh]
	 Singles Energy            =      -0.0000000000000000 [Eh]
	 Same-Spin Energy          =      -0.5494094917979379 [Eh]
	 Opposite-Spin Energy      =      -1.6336699694371917 [Eh]
	 Correlation Energy        =      -2.1830794612351294 [Eh]
	 Total Energy              =    -505.9066243797873881 [Eh]

	 ================> DF-SCS-MP2 Energies <==================
	-----------------------------------------------------------
	 SCS Same-Spin Scale       =       0.3333333333333333 [-]
	 SCS Opposite-Spin Scale   =       1.2000000000000000 [-]
	 SCS Same-Spin Energy      =      -0.1831364972659793 [Eh]
	 SCS Opposite-Spin Energy  =      -1.9604039633246300 [Eh]
	 SCS Correlation Energy    =      -2.1435404605906094 [Eh]
	 SCS Total Energy          =    -505.8670853791428499 [Eh]
	-----------------------------------------------------------

  Dipole Moment: [D]
     X:    -2.6680      Y:    -1.1947      Z:    -0.7890     Total:     3.0279

*** Psi4 exiting successfully. Buy a developer a beer!
