                               Psi4 1.3.2 release

  ==> Input File <==

--------------------------------------------------------------------------
#psi4
#
memory 32 gb

molecule  {
0 1
  N       -1.7774796    -0.1597967    -0.0001058
  N       -0.2684590    -1.8384245    -0.0081721
  N       -0.2672930     1.7497910     0.0010540
  N        2.0532340     1.0361840    -0.0078740
  N        2.7268170    -1.1967150     0.0786200
  C       -0.5487760     0.4359060     0.0048010
  C        0.3666280    -0.6257540     0.0082110
  C       -1.5569310    -1.5157420    -0.0063070
  C        1.7257650    -0.2653140     0.0014880
  C       -3.0654680     0.5328540     0.0028660
  C        1.0578830     1.9506280    -0.0091420
  H       -2.3786350    -2.2235800    -0.0126570
  H       -3.1454970     1.1693440    -0.8801020
  H       -3.8626160    -0.2117770    -0.0066990
  H       -3.1511970     1.1523310     0.8973960
  H        1.3824760     2.9891980    -0.0128990
  H        3.6364610    -0.8630510    -0.2195510
  H        2.4794860    -2.1327440    -0.2212610
units angstrom
no_reorient  #important for SAPT in psi4, default
symmetry c1  #important for SAPT in psi4, default
}

set PROPERTIES_ORIGIN ["COM"]
properties('MP2/aug-cc-pvtz', properties = ['dipole'])
--------------------------------------------------------------------------

    Molecular point group: c1
  Charge       = 0
  Multiplicity = 1
  Basis Set: AUG-CC-PVTZ
    Blend: AUG-CC-PVTZ
  Basis Set: (AUG-CC-PVTZ AUX)
    Blend: AUG-CC-PVTZ-JKFIT

    Orbital Energies [Eh]
    ---------------------

    Doubly Occupied:

       1A    -15.633124     2A    -15.580836     3A    -15.566161
       4A    -15.559775     5A    -15.551706     6A    -11.334175
       7A    -11.321380     8A    -11.311091     9A    -11.311052
      10A    -11.289592    11A    -11.250286    12A     -1.370345
      13A     -1.295800    14A     -1.242349    15A     -1.197038
      16A     -1.151243    17A     -1.031411    18A     -0.986051
      19A     -0.891638    20A     -0.871592    21A     -0.802971
      22A     -0.753742    23A     -0.725136    24A     -0.679849
      25A     -0.673642    26A     -0.666629    27A     -0.624762
      28A     -0.605415    29A     -0.597063    30A     -0.591670
      31A     -0.573942    32A     -0.537462    33A     -0.495428
      34A     -0.491195    35A     -0.450371    36A     -0.415014
      37A     -0.407838    38A     -0.367596    39A     -0.306762

  @DF-RHF Final Energy:  -503.72510035298347

   => Energetics <=

    Nuclear Repulsion Energy =            594.8662398596505909
    One-Electron Energy =               -1864.1564166144764840
    Two-Electron Energy =                 765.5650764018425889
    Total Energy =                       -503.7251003529834179
  Basis Set: (AUG-CC-PVTZ AUX)
    Blend: AUG-CC-PVTZ-RI
    Molecular point group: c1

    Geometry (in Angstrom), charge = 0, multiplicity = 1:

       Center              X                  Y                   Z               Mass
    ------------   -----------------  -----------------  -----------------  -----------------
         N           -1.812451795023    -0.161829312660    -0.003145773081    14.003074004430
         N           -0.303431195023    -1.840457112660    -0.011212073081    14.003074004430
         N           -0.302265195023     1.747758387340    -0.001985973081    14.003074004430
         N            2.018261804977     1.034151387340    -0.010913973081    14.003074004430
         N            2.691844804977    -1.198747612660     0.075580026919    14.003074004430
         C           -0.583748195023     0.433873387340     0.001761026919    12.000000000000
         C            0.331655804977    -0.627786612660     0.005171026919    12.000000000000
         C           -1.591903195023    -1.517774612660    -0.009346973081    12.000000000000
         C            1.690792804977    -0.267346612660    -0.001551973081    12.000000000000
         C           -3.100440195023     0.530821387340    -0.000173973081    12.000000000000
         C            1.022910804977     1.948595387340    -0.012181973081    12.000000000000
         H           -2.413607195023    -2.225612612660    -0.015696973081     1.007825032230
         H           -3.180469195023     1.167311387340    -0.883141973081     1.007825032230
         H           -3.897588195023    -0.213809612660    -0.009738973081     1.007825032230
         H           -3.186169195023     1.150298387340     0.894356026919     1.007825032230
         H            1.347503804977     2.987165387340    -0.015938973081     1.007825032230
         H            3.601488804977    -0.865083612660    -0.222590973081     1.007825032230
         H            2.444513804977    -2.134776612660    -0.224300973081     1.007825032230

  Basis Set: AUG-CC-PVTZ
    Blend: AUG-CC-PVTZ
  Basis Set: (AUG-CC-PVTZ AUX)
    Blend: AUG-CC-PVTZ-JKFIT
	 Reference Energy          =    -503.7251003529834747 [Eh]
	 Singles Energy            =      -0.0000000000000000 [Eh]
	 Same-Spin Energy          =      -0.5493360953384880 [Eh]
	 Opposite-Spin Energy      =      -1.6329091550819270 [Eh]
	 Correlation Energy        =      -2.1822452504204151 [Eh]
	 Total Energy              =    -505.9073456034038827 [Eh]

	 ================> DF-SCS-MP2 Energies <==================
	-----------------------------------------------------------
	 SCS Same-Spin Scale       =       0.3333333333333333 [-]
	 SCS Opposite-Spin Scale   =       1.2000000000000000 [-]
	 SCS Same-Spin Energy      =      -0.1831120317794960 [Eh]
	 SCS Opposite-Spin Energy  =      -1.9594909860983123 [Eh]
	 SCS Correlation Energy    =      -2.1426030178778084 [Eh]
	 SCS Total Energy          =    -505.8677033708613067 [Eh]
	-----------------------------------------------------------

  Dipole Moment: [D]
     X:    -2.7860      Y:    -1.1891      Z:    -0.7887     Total:     3.1302

*** Psi4 exiting successfully. Buy a developer a beer!
