                               Psi4 1.3.2 release

  ==> Input File <==

--------------------------------------------------------------------------
#psi4
#
memory 32 gb

molecule  {
0 1
  N       -1.7893040    -0.1617730    -0.0001110
  N       -0.2713240    -1.8496560    -0.0082220
  N       -0.2672930     1.7497910     0.0010540
  N        2.0532340     1.0361840    -0.0078740
  N        2.7268170    -1.1967150     0.0786200
  C       -0.5111671     0.4672052     0.0044852
  C        0.3666280    -0.6257540     0.0082110
  C       -1.5569310    -1.5157420    -0.0063070
  C        1.7123568    -0.2181007     0.0012454
  C       -3.0654680     0.5328540     0.0028660
  C        1.0578830     1.9506280    -0.0091420
  H       -2.3786350    -2.2235800    -0.0126570
  H       -3.1454970     1.1693440    -0.8801020
  H       -3.8626160    -0.2117770    -0.0066990
  H       -3.1511970     1.1523310     0.8973960
  H        1.3824760     2.9891980    -0.0128990
  H        3.6364610    -0.8630510    -0.2195510
  H        2.4794860    -2.1327440    -0.2212610
units angstrom
no_reorient  #important for SAPT in psi4, default
symmetry c1  #important for SAPT in psi4, default
}

set PROPERTIES_ORIGIN ["COM"]
properties('MP2/aug-cc-pvtz', properties = ['dipole'])
--------------------------------------------------------------------------

    Molecular point group: c1
  Charge       = 0
  Multiplicity = 1
  Basis Set: AUG-CC-PVTZ
    Blend: AUG-CC-PVTZ
  Basis Set: (AUG-CC-PVTZ AUX)
    Blend: AUG-CC-PVTZ-JKFIT

    Orbital Energies [Eh]
    ---------------------

    Doubly Occupied:

       1A    -15.629366     2A    -15.572279     3A    -15.567532
       4A    -15.566615     5A    -15.557415     6A    -11.331293
       7A    -11.325319     8A    -11.317553     9A    -11.314509
      10A    -11.286309    11A    -11.255079    12A     -1.362601
      13A     -1.306515    14A     -1.243343    15A     -1.190199
      16A     -1.160529    17A     -1.033174    18A     -0.980354
      19A     -0.893464    20A     -0.878731    21A     -0.801062
      22A     -0.753349    23A     -0.718628    24A     -0.678641
      25A     -0.670448    26A     -0.662568    27A     -0.625871
      28A     -0.604671    29A     -0.598798    30A     -0.591519
      31A     -0.562813    32A     -0.535583    33A     -0.500614
      34A     -0.496325    35A     -0.457926    36A     -0.416466
      37A     -0.407535    38A     -0.377448    39A     -0.308459

  @DF-RHF Final Energy:  -503.71818626405343

   => Energetics <=

    Nuclear Repulsion Energy =            594.6888077138254403
    One-Electron Energy =               -1863.7321836623373201
    Two-Electron Energy =                 765.3251896844583371
    Total Energy =                       -503.7181862640534291
  Basis Set: (AUG-CC-PVTZ AUX)
    Blend: AUG-CC-PVTZ-RI
    Molecular point group: c1

    Geometry (in Angstrom), charge = 0, multiplicity = 1:

       Center              X                  Y                   Z               Mass
    ------------   -----------------  -----------------  -----------------  -----------------
         N           -1.824844462026    -0.168885101902    -0.003100846550    14.003074004430
         N           -0.306864462026    -1.856768101902    -0.011211846550    14.003074004430
         N           -0.302833462026     1.742678898098    -0.001935846550    14.003074004430
         N            2.017693537974     1.029071898098    -0.010863846550    14.003074004430
         N            2.691276537974    -1.203827101902     0.075630153450    14.003074004430
         C           -0.546707562026     0.460093098098     0.001495353450    12.000000000000
         C            0.331087537974    -0.632866101902     0.005221153450    12.000000000000
         C           -1.592471462026    -1.522854101902    -0.009296846550    12.000000000000
         C            1.676816337974    -0.225212801902    -0.001744446550    12.000000000000
         C           -3.101008462026     0.525741898098    -0.000123846550    12.000000000000
         C            1.022342537974     1.943515898098    -0.012131846550    12.000000000000
         H           -2.414175462026    -2.230692101902    -0.015646846550     1.007825032230
         H           -3.181037462026     1.162231898098    -0.883091846550     1.007825032230
         H           -3.898156462026    -0.218889101902    -0.009688846550     1.007825032230
         H           -3.186737462026     1.145218898098     0.894406153450     1.007825032230
         H            1.346935537974     2.982085898098    -0.015888846550     1.007825032230
         H            3.600920537974    -0.870163101902    -0.222540846550     1.007825032230
         H            2.443945537974    -2.139856101902    -0.224250846550     1.007825032230

  Basis Set: AUG-CC-PVTZ
    Blend: AUG-CC-PVTZ
  Basis Set: (AUG-CC-PVTZ AUX)
    Blend: AUG-CC-PVTZ-JKFIT
	 Reference Energy          =    -503.7181862640534291 [Eh]
	 Singles Energy            =      -0.0000000000000000 [Eh]
	 Same-Spin Energy          =      -0.5493573070229992 [Eh]
	 Opposite-Spin Energy      =      -1.6330475145448506 [Eh]
	 Correlation Energy        =      -2.1824048215678498 [Eh]
	 Total Energy              =    -505.9005910856212722 [Eh]

	 ================> DF-SCS-MP2 Energies <==================
	-----------------------------------------------------------
	 SCS Same-Spin Scale       =       0.3333333333333333 [-]
	 SCS Opposite-Spin Scale   =       1.2000000000000000 [-]
	 SCS Same-Spin Energy      =      -0.1831191023409997 [Eh]
	 SCS Opposite-Spin Energy  =      -1.9596570174538206 [Eh]
	 SCS Correlation Energy    =      -2.1427761197948203 [Eh]
	 SCS Total Energy          =    -505.8609623838482321 [Eh]
	-----------------------------------------------------------

  Dipole Moment: [D]
     X:    -2.8614      Y:    -0.7492      Z:    -0.8021     Total:     3.0647

*** Psi4 exiting successfully. Buy a developer a beer!
