                               Psi4 1.3.2 release

  ==> Input File <==

--------------------------------------------------------------------------
#psi4
#
memory 32 gb

molecule  {
0 1
  N       -1.7893040    -0.1617730    -0.0001110
  N       -0.2713240    -1.8496560    -0.0082220
  N       -0.2672930     1.7497910     0.0010540
  N        2.0532340     1.0361840    -0.0078740
  N        2.7268170    -1.1967150     0.0786200
  C       -0.5487760     0.4359060     0.0048010
  C        0.3666280    -0.6257540     0.0082110
  C       -1.5231012    -1.7128580    -0.0072090
  C        1.7257650    -0.2653140     0.0014880
  C       -3.0654680     0.5328540     0.0028660
  C        1.0578830     1.9506280    -0.0091420
  H       -2.3786350    -2.2235800    -0.0126570
  H       -3.1454970     1.1693440    -0.8801020
  H       -3.8626160    -0.2117770    -0.0066990
  H       -3.1511970     1.1523310     0.8973960
  H        1.3824760     2.9891980    -0.0128990
  H        3.6364610    -0.8630510    -0.2195510
  H        2.4794860    -2.1327440    -0.2212610
units angstrom
no_reorient  #important for SAPT in psi4, default
symmetry c1  #important for SAPT in psi4, default
}

set PROPERTIES_ORIGIN ["COM"]
properties('MP2/aug-cc-pvtz', properties = ['dipole'])
--------------------------------------------------------------------------

    Molecular point group: c1
  Charge       = 0
  Multiplicity = 1
  Basis Set: AUG-CC-PVTZ
    Blend: AUG-CC-PVTZ
  Basis Set: (AUG-CC-PVTZ AUX)
    Blend: AUG-CC-PVTZ-JKFIT

    Orbital Energies [Eh]
    ---------------------

    Doubly Occupied:

       1A    -15.608460     2A    -15.583102     3A    -15.582423
       4A    -15.557070     5A    -15.550676     6A    -11.338411
       7A    -11.328400     8A    -11.316093     9A    -11.315584
      10A    -11.273286    11A    -11.252504    12A     -1.345674
      13A     -1.291223    14A     -1.246815    15A     -1.194054
      16A     -1.147889    17A     -1.040234    18A     -0.961891
      19A     -0.897810    20A     -0.863365    21A     -0.808324
      22A     -0.750844    23A     -0.718800    24A     -0.697373
      25A     -0.665155    26A     -0.649318    27A     -0.644933
      28A     -0.601594    29A     -0.590241    30A     -0.585697
      31A     -0.563257    32A     -0.531585    33A     -0.499238
      34A     -0.480250    35A     -0.448420    36A     -0.417242
      37A     -0.405832    38A     -0.354470    39A     -0.321325

  @DF-RHF Final Energy:  -503.69266765405592

   => Energetics <=

    Nuclear Repulsion Energy =            591.3588048762817380
    One-Electron Energy =               -1857.2452190408066599
    Two-Electron Energy =                 762.1937465104689409
    Total Energy =                       -503.6926676540559811
  Basis Set: (AUG-CC-PVTZ AUX)
    Blend: AUG-CC-PVTZ-RI
    Molecular point group: c1

    Geometry (in Angstrom), charge = 0, multiplicity = 1:

       Center              X                  Y                   Z               Mass
    ------------   -----------------  -----------------  -----------------  -----------------
         N           -1.825619595101    -0.146697278884    -0.003073187088    14.003074004430
         N           -0.307639595101    -1.834580278884    -0.011184187088    14.003074004430
         N           -0.303608595101     1.764866721116    -0.001908187088    14.003074004430
         N            2.016918404899     1.051259721116    -0.010836187088    14.003074004430
         N            2.690501404899    -1.181639278884     0.075657812912    14.003074004430
         C           -0.585091595101     0.450981721116     0.001838812912    12.000000000000
         C            0.330312404899    -0.610678278884     0.005248812912    12.000000000000
         C           -1.559416795101    -1.697782278884    -0.010171187088    12.000000000000
         C            1.689449404899    -0.250238278884    -0.001474187088    12.000000000000
         C           -3.101783595101     0.547929721116    -0.000096187088    12.000000000000
         C            1.021567404899     1.965703721116    -0.012104187088    12.000000000000
         H           -2.414950595101    -2.208504278884    -0.015619187088     1.007825032230
         H           -3.181812595101     1.184419721116    -0.883064187088     1.007825032230
         H           -3.898931595101    -0.196701278884    -0.009661187088     1.007825032230
         H           -3.187512595101     1.167406721116     0.894433812912     1.007825032230
         H            1.346160404899     3.004273721116    -0.015861187088     1.007825032230
         H            3.600145404899    -0.847975278884    -0.222513187088     1.007825032230
         H            2.443170404899    -2.117668278884    -0.224223187088     1.007825032230

  Basis Set: AUG-CC-PVTZ
    Blend: AUG-CC-PVTZ
  Basis Set: (AUG-CC-PVTZ AUX)
    Blend: AUG-CC-PVTZ-JKFIT
	 Reference Energy          =    -503.6926676540559242 [Eh]
	 Singles Energy            =      -0.0000000000000000 [Eh]
	 Same-Spin Energy          =      -0.5471986302729228 [Eh]
	 Opposite-Spin Energy      =      -1.6322425308057218 [Eh]
	 Correlation Energy        =      -2.1794411610786444 [Eh]
	 Total Energy              =    -505.8721088151345953 [Eh]

	 ================> DF-SCS-MP2 Energies <==================
	-----------------------------------------------------------
	 SCS Same-Spin Scale       =       0.3333333333333333 [-]
	 SCS Opposite-Spin Scale   =       1.2000000000000000 [-]
	 SCS Same-Spin Energy      =      -0.1823995434243076 [Eh]
	 SCS Opposite-Spin Energy  =      -1.9586910369668660 [Eh]
	 SCS Correlation Energy    =      -2.1410905803911735 [Eh]
	 SCS Total Energy          =    -505.8337582344470889 [Eh]
	-----------------------------------------------------------

  Dipole Moment: [D]
     X:    -2.2953      Y:    -1.8585      Z:    -0.7921     Total:     3.0577

*** Psi4 exiting successfully. Buy a developer a beer!
