                               Psi4 1.3.2 release

  ==> Input File <==

--------------------------------------------------------------------------
#psi4
#
memory 32 gb

molecule  {
0 1
  N       -1.7893040    -0.1617730    -0.0001110
  N       -0.2713240    -1.8496560    -0.0082220
  N       -0.2672930     1.7497910     0.0010540
  N        2.0532340     1.0361840    -0.0078740
  N        2.7268170    -1.1967150     0.0786200
  C       -0.5487760     0.4359060     0.0048010
  C        0.3666280    -0.6257540     0.0082110
  C       -1.5569310    -1.5157420    -0.0063070
  C        1.7257650    -0.2653140     0.0014880
  C       -3.0654680     0.5328540     0.0028660
  C        1.1567511     1.9656120    -0.0099027
  H       -2.3786350    -2.2235800    -0.0126570
  H       -3.1454970     1.1693440    -0.8801020
  H       -3.8626160    -0.2117770    -0.0066990
  H       -3.1511970     1.1523310     0.8973960
  H        1.3824760     2.9891980    -0.0128990
  H        3.6364610    -0.8630510    -0.2195510
  H        2.4794860    -2.1327440    -0.2212610
units angstrom
no_reorient  #important for SAPT in psi4, default
symmetry c1  #important for SAPT in psi4, default
}

set PROPERTIES_ORIGIN ["COM"]
properties('MP2/aug-cc-pvtz', properties = ['dipole'])
--------------------------------------------------------------------------

    Molecular point group: c1
  Charge       = 0
  Multiplicity = 1
  Basis Set: AUG-CC-PVTZ
    Blend: AUG-CC-PVTZ
  Basis Set: (AUG-CC-PVTZ AUX)
    Blend: AUG-CC-PVTZ-JKFIT

    Orbital Energies [Eh]
    ---------------------

    Doubly Occupied:

       1A    -15.629107     2A    -15.582404     3A    -15.565428
       4A    -15.557435     5A    -15.556028     6A    -11.337271
       7A    -11.323909     8A    -11.313548     9A    -11.311106
      10A    -11.286343    11A    -11.250429    12A     -1.365207
      13A     -1.300328    14A     -1.230246    15A     -1.195644
      16A     -1.151490    17A     -1.027311    18A     -0.984453
      19A     -0.900200    20A     -0.868982    21A     -0.800328
      22A     -0.752479    23A     -0.726771    24A     -0.682624
      25A     -0.672630    26A     -0.663719    27A     -0.626279
      28A     -0.609455    29A     -0.595862    30A     -0.589669
      31A     -0.571814    32A     -0.538713    33A     -0.494735
      34A     -0.486031    35A     -0.450942    36A     -0.415492
      37A     -0.399637    38A     -0.374119    39A     -0.298445

  @DF-RHF Final Energy:  -503.71215218794521

   => Energetics <=

    Nuclear Repulsion Energy =            593.3123751150616272
    One-Electron Energy =               -1861.0758235913974659
    Two-Electron Energy =                 764.0512962883905175
    Total Energy =                       -503.7121521879452075
  Basis Set: (AUG-CC-PVTZ AUX)
    Blend: AUG-CC-PVTZ-RI
    Molecular point group: c1

    Geometry (in Angstrom), charge = 0, multiplicity = 1:

       Center              X                  Y                   Z               Mass
    ------------   -----------------  -----------------  -----------------  -----------------
         N           -1.830855114250    -0.163771120167    -0.003084561599    14.003074004430
         N           -0.312875114250    -1.851654120167    -0.011195561599    14.003074004430
         N           -0.308844114250     1.747792879833    -0.001919561599    14.003074004430
         N            2.011682885750     1.034185879833    -0.010847561599    14.003074004430
         N            2.685265885750    -1.198713120167     0.075646438401    14.003074004430
         C           -0.590327114250     0.433907879833     0.001827438401    12.000000000000
         C            0.325076885750    -0.627752120167     0.005237438401    12.000000000000
         C           -1.598482114250    -1.517740120167    -0.009280561599    12.000000000000
         C            1.684213885750    -0.267312120167    -0.001485561599    12.000000000000
         C           -3.107019114250     0.530855879833    -0.000107561599    12.000000000000
         C            1.115199985750     1.963613879833    -0.012876261599    12.000000000000
         H           -2.420186114250    -2.225578120167    -0.015630561599     1.007825032230
         H           -3.187048114250     1.167345879833    -0.883075561599     1.007825032230
         H           -3.904167114250    -0.213775120167    -0.009672561599     1.007825032230
         H           -3.192748114250     1.150332879833     0.894422438401     1.007825032230
         H            1.340924885750     2.987199879833    -0.015872561599     1.007825032230
         H            3.594909885750    -0.865049120167    -0.222524561599     1.007825032230
         H            2.437934885750    -2.134742120167    -0.224234561599     1.007825032230

  Basis Set: AUG-CC-PVTZ
    Blend: AUG-CC-PVTZ
  Basis Set: (AUG-CC-PVTZ AUX)
    Blend: AUG-CC-PVTZ-JKFIT
	 Reference Energy          =    -503.7121521879452075 [Eh]
	 Singles Energy            =      -0.0000000000000000 [Eh]
	 Same-Spin Energy          =      -0.5497810877725984 [Eh]
	 Opposite-Spin Energy      =      -1.6346361049277232 [Eh]
	 Correlation Energy        =      -2.1844171927003213 [Eh]
	 Total Energy              =    -505.8965693806455306 [Eh]

	 ================> DF-SCS-MP2 Energies <==================
	-----------------------------------------------------------
	 SCS Same-Spin Scale       =       0.3333333333333333 [-]
	 SCS Opposite-Spin Scale   =       1.2000000000000000 [-]
	 SCS Same-Spin Energy      =      -0.1832603625908661 [Eh]
	 SCS Opposite-Spin Energy  =      -1.9615633259132677 [Eh]
	 SCS Correlation Energy    =      -2.1448236885041339 [Eh]
	 SCS Total Energy          =    -505.8569758764493258 [Eh]
	-----------------------------------------------------------

  Dipole Moment: [D]
     X:    -2.4205      Y:    -1.1594      Z:    -0.7907     Total:     2.7979

*** Psi4 exiting successfully. Buy a developer a beer!
