                               Psi4 1.3.2 release

  ==> Input File <==

--------------------------------------------------------------------------
#psi4
#
memory 32 gb

molecule  {
0 1
  N       -1.7893040    -0.1617730    -0.0001110
  N       -0.2713240    -1.8496560    -0.0082220
  N       -0.2672930     1.7497910     0.0010540
  N        2.0645793     1.0332766    -0.0078924
  N        2.7268170    -1.1967150     0.0786200
  C       -0.5487760     0.4359060     0.0048010
  C        0.3698254    -0.6376007     0.0082761
  C       -1.5569310    -1.5157420    -0.0063070
  C        1.7257650    -0.2653140     0.0014880
  C       -3.0654680     0.5328540     0.0028660
  C        1.0578830     1.9506280    -0.0091420
  H       -2.3786350    -2.2235800    -0.0126570
  H       -3.1454970     1.1693440    -0.8801020
  H       -3.8626160    -0.2117770    -0.0066990
  H       -3.1511970     1.1523310     0.8973960
  H        1.3824760     2.9891980    -0.0128990
  H        3.6364610    -0.8630510    -0.2195510
  H        2.4794860    -2.1327440    -0.2212610
units angstrom
no_reorient  #important for SAPT in psi4, default
symmetry c1  #important for SAPT in psi4, default
}

set PROPERTIES_ORIGIN ["COM"]
properties('MP2/aug-cc-pvtz', properties = ['dipole'])
--------------------------------------------------------------------------

    Molecular point group: c1
  Charge       = 0
  Multiplicity = 1
  Basis Set: AUG-CC-PVTZ
    Blend: AUG-CC-PVTZ
  Basis Set: (AUG-CC-PVTZ AUX)
    Blend: AUG-CC-PVTZ-JKFIT

    Orbital Energies [Eh]
    ---------------------

    Doubly Occupied:

       1A    -15.634127     2A    -15.579638     3A    -15.567616
       4A    -15.561998     5A    -15.553691     6A    -11.333773
       7A    -11.322516     8A    -11.314202     9A    -11.313106
      10A    -11.289194    11A    -11.252892    12A     -1.368092
      13A     -1.294863    14A     -1.242718    15A     -1.198396
      16A     -1.150735    17A     -1.029776    18A     -0.986884
      19A     -0.889790    20A     -0.873072    21A     -0.801481
      22A     -0.752823    23A     -0.725215    24A     -0.680401
      25A     -0.672737    26A     -0.666583    27A     -0.624383
      28A     -0.605106    29A     -0.596846    30A     -0.591041
      31A     -0.571704    32A     -0.536578    33A     -0.495706
      34A     -0.493431    35A     -0.452202    36A     -0.414891
      37A     -0.408825    38A     -0.368072    39A     -0.306335

  @DF-RHF Final Energy:  -503.72353529554874

   => Energetics <=

    Nuclear Repulsion Energy =            593.9763509385508087
    One-Electron Energy =               -1862.3568904520850538
    Two-Electron Energy =                 764.6570042179853317
    Total Energy =                       -503.7235352955487997
  Basis Set: (AUG-CC-PVTZ AUX)
    Blend: AUG-CC-PVTZ-RI
    Molecular point group: c1

    Geometry (in Angstrom), charge = 0, multiplicity = 1:

       Center              X                  Y                   Z               Mass
    ------------   -----------------  -----------------  -----------------  -----------------
         N           -1.824219450731    -0.161338165287    -0.003149309261    14.003074004430
         N           -0.306239450731    -1.849221165287    -0.011260309261    14.003074004430
         N           -0.302208450731     1.750225834713    -0.001984309261    14.003074004430
         N            2.029663849269     1.033711434713    -0.010930709261    14.003074004430
         N            2.691901549269    -1.196280165287     0.075581690739    14.003074004430
         C           -0.583691450731     0.436340834713     0.001762690739    12.000000000000
         C            0.334909949269    -0.637165865287     0.005237790739    12.000000000000
         C           -1.591846450731    -1.515307165287    -0.009345309261    12.000000000000
         C            1.690849549269    -0.264879165287    -0.001550309261    12.000000000000
         C           -3.100383450731     0.533288834713    -0.000172309261    12.000000000000
         C            1.022967549269     1.951062834713    -0.012180309261    12.000000000000
         H           -2.413550450731    -2.223145165287    -0.015695309261     1.007825032230
         H           -3.180412450731     1.169778834713    -0.883140309261     1.007825032230
         H           -3.897531450731    -0.211342165287    -0.009737309261     1.007825032230
         H           -3.186112450731     1.152765834713     0.894357690739     1.007825032230
         H            1.347560549269     2.989632834713    -0.015937309261     1.007825032230
         H            3.601545549269    -0.862616165287    -0.222589309261     1.007825032230
         H            2.444570549269    -2.132309165287    -0.224299309261     1.007825032230

  Basis Set: AUG-CC-PVTZ
    Blend: AUG-CC-PVTZ
  Basis Set: (AUG-CC-PVTZ AUX)
    Blend: AUG-CC-PVTZ-JKFIT
	 Reference Energy          =    -503.7235352955487429 [Eh]
	 Singles Energy            =      -0.0000000000000000 [Eh]
	 Same-Spin Energy          =      -0.5495768738443663 [Eh]
	 Opposite-Spin Energy      =      -1.6336245313738333 [Eh]
	 Correlation Energy        =      -2.1832014052181998 [Eh]
	 Total Energy              =    -505.9067367007669418 [Eh]

	 ================> DF-SCS-MP2 Energies <==================
	-----------------------------------------------------------
	 SCS Same-Spin Scale       =       0.3333333333333333 [-]
	 SCS Opposite-Spin Scale   =       1.2000000000000000 [-]
	 SCS Same-Spin Energy      =      -0.1831922912814554 [Eh]
	 SCS Opposite-Spin Energy  =      -1.9603494376485999 [Eh]
	 SCS Correlation Energy    =      -2.1435417289300553 [Eh]
	 SCS Total Energy          =    -505.8670770244788173 [Eh]
	-----------------------------------------------------------

  Dipole Moment: [D]
     X:    -2.8021      Y:    -1.1471      Z:    -0.7889     Total:     3.1288

*** Psi4 exiting successfully. Buy a developer a beer!
