                               Psi4 1.3.2 release

  ==> Input File <==

--------------------------------------------------------------------------
#psi4
#
memory 32 gb

molecule  {
0 1
  N       -1.7893040    -0.1617730    -0.0001110
  N       -0.2713240    -1.8496560    -0.0082220
  N       -0.2689952     1.7613632     0.0010520
  N        2.0532340     1.0361840    -0.0078740
  N        2.7268170    -1.1967150     0.0786200
  C       -0.5487760     0.4359060     0.0048010
  C        0.3666280    -0.6257540     0.0082110
  C       -1.5569310    -1.5157420    -0.0063070
  C        1.7257650    -0.2653140     0.0014880
  C       -3.0654680     0.5328540     0.0028660
  C        1.0578830     1.9506280    -0.0091420
  H       -2.3786350    -2.2235800    -0.0126570
  H       -3.1454970     1.1693440    -0.8801020
  H       -3.8626160    -0.2117770    -0.0066990
  H       -3.1511970     1.1523310     0.8973960
  H        1.3734007     2.9919912    -0.0128345
  H        3.6364610    -0.8630510    -0.2195510
  H        2.4794860    -2.1327440    -0.2212610
units angstrom
no_reorient  #important for SAPT in psi4, default
symmetry c1  #important for SAPT in psi4, default
}

set PROPERTIES_ORIGIN ["COM"]
properties('MP2/aug-cc-pvtz', properties = ['dipole'])
--------------------------------------------------------------------------

    Molecular point group: c1
  Charge       = 0
  Multiplicity = 1
  Basis Set: AUG-CC-PVTZ
    Blend: AUG-CC-PVTZ
  Basis Set: (AUG-CC-PVTZ AUX)
    Blend: AUG-CC-PVTZ-JKFIT

    Orbital Energies [Eh]
    ---------------------

    Doubly Occupied:

       1A    -15.633614     2A    -15.581573     3A    -15.567705
       4A    -15.561851     5A    -15.552346     6A    -11.335281
       7A    -11.322543     8A    -11.313892     9A    -11.311311
      10A    -11.288867    11A    -11.252375    12A     -1.367573
      13A     -1.295783    14A     -1.241299    15A     -1.197098
      16A     -1.151114    17A     -1.031755    18A     -0.986261
      19A     -0.890714    20A     -0.870905    21A     -0.802996
      22A     -0.753193    23A     -0.724133    24A     -0.680742
      25A     -0.672521    26A     -0.666261    27A     -0.624532
      28A     -0.606740    29A     -0.596250    30A     -0.590941
      31A     -0.571527    32A     -0.537076    33A     -0.494898
      34A     -0.492587    35A     -0.450542    36A     -0.414488
      37A     -0.409357    38A     -0.367903    39A     -0.308723

  @DF-RHF Final Energy:  -503.72421223273216

   => Energetics <=

    Nuclear Repulsion Energy =            594.0062682418792974
    One-Electron Energy =               -1862.4224162427210558
    Two-Electron Energy =                 764.6919357681096017
    Total Energy =                       -503.7242122327321567
  Basis Set: (AUG-CC-PVTZ AUX)
    Blend: AUG-CC-PVTZ-RI
    Molecular point group: c1

    Geometry (in Angstrom), charge = 0, multiplicity = 1:

       Center              X                  Y                   Z               Mass
    ------------   -----------------  -----------------  -----------------  -----------------
         N           -1.822675075617    -0.163670854818    -0.003146045396    14.003074004430
         N           -0.304695075617    -1.851553854818    -0.011257045396    14.003074004430
         N           -0.302366275617     1.759465345182    -0.001983045396    14.003074004430
         N            2.019862924383     1.034286145182    -0.010909045396    14.003074004430
         N            2.693445924383    -1.198612854818     0.075584954604    14.003074004430
         C           -0.582147075617     0.434008145182     0.001765954604    12.000000000000
         C            0.333256924383    -0.627651854818     0.005175954604    12.000000000000
         C           -1.590302075617    -1.517639854818    -0.009342045396    12.000000000000
         C            1.692393924383    -0.267211854818    -0.001547045396    12.000000000000
         C           -3.098839075617     0.530956145182    -0.000169045396    12.000000000000
         C            1.024511924383     1.948730145182    -0.012177045396    12.000000000000
         H           -2.412006075617    -2.225477854818    -0.015692045396     1.007825032230
         H           -3.178868075617     1.167446145182    -0.883137045396     1.007825032230
         H           -3.895987075617    -0.213674854818    -0.009734045396     1.007825032230
         H           -3.184568075617     1.150433145182     0.894360954604     1.007825032230
         H            1.340029624383     2.990093345182    -0.015869545396     1.007825032230
         H            3.603089924383    -0.864948854818    -0.222586045396     1.007825032230
         H            2.446114924383    -2.134641854818    -0.224296045396     1.007825032230

  Basis Set: AUG-CC-PVTZ
    Blend: AUG-CC-PVTZ
  Basis Set: (AUG-CC-PVTZ AUX)
    Blend: AUG-CC-PVTZ-JKFIT
	 Reference Energy          =    -503.7242122327321567 [Eh]
	 Singles Energy            =      -0.0000000000000000 [Eh]
	 Same-Spin Energy          =      -0.5492725971844883 [Eh]
	 Opposite-Spin Energy      =      -1.6333775364030205 [Eh]
	 Correlation Energy        =      -2.1826501335875088 [Eh]
	 Total Energy              =    -505.9068623663196718 [Eh]

	 ================> DF-SCS-MP2 Energies <==================
	-----------------------------------------------------------
	 SCS Same-Spin Scale       =       0.3333333333333333 [-]
	 SCS Opposite-Spin Scale   =       1.2000000000000000 [-]
	 SCS Same-Spin Energy      =      -0.1830908657281627 [Eh]
	 SCS Opposite-Spin Energy  =      -1.9600530436836245 [Eh]
	 SCS Correlation Energy    =      -2.1431439094117875 [Eh]
	 SCS Total Energy          =    -505.8673561421439331 [Eh]
	-----------------------------------------------------------

  Dipole Moment: [D]
     X:    -2.7307      Y:    -1.1909      Z:    -0.7887     Total:     3.0817

*** Psi4 exiting successfully. Buy a developer a beer!
