                               Psi4 1.3.2 release

  ==> Input File <==

--------------------------------------------------------------------------
#psi4
#
memory 32 gb

molecule  {
0 1
  N       -1.7893040    -0.1617730    -0.0001110
  N       -0.2713240    -1.8496560    -0.0082220
  N       -0.2672930     1.7497910     0.0010540
  N        2.0532340     1.0361840    -0.0078740
  N        2.7268170    -1.1967150     0.0786200
  C       -0.5487760     0.4359060     0.0048010
  C        0.3666280    -0.6257540     0.0082110
  C       -1.5569310    -1.5157420    -0.0063070
  C        1.7257650    -0.2653140     0.0014880
  C       -2.9776363     0.4850465     0.0026611
  C        1.0578830     1.9506280    -0.0091420
  H       -2.3786350    -2.2235800    -0.0126570
  H       -3.1454970     1.1693440    -0.8801020
  H       -3.8626160    -0.2117770    -0.0066990
  H       -3.1511970     1.1523310     0.8973960
  H        1.3824760     2.9891980    -0.0128990
  H        3.6364610    -0.8630510    -0.2195510
  H        2.4794860    -2.1327440    -0.2212610
units angstrom
no_reorient  #important for SAPT in psi4, default
symmetry c1  #important for SAPT in psi4, default
}

set PROPERTIES_ORIGIN ["COM"]
properties('MP2/aug-cc-pvtz', properties = ['dipole'])
--------------------------------------------------------------------------

    Molecular point group: c1
  Charge       = 0
  Multiplicity = 1
  Basis Set: AUG-CC-PVTZ
    Blend: AUG-CC-PVTZ
  Basis Set: (AUG-CC-PVTZ AUX)
    Blend: AUG-CC-PVTZ-JKFIT

    Orbital Energies [Eh]
    ---------------------

    Doubly Occupied:

       1A    -15.635041     2A    -15.582944     3A    -15.571196
       4A    -15.563164     5A    -15.554794     6A    -11.336907
       7A    -11.325922     8A    -11.316232     9A    -11.313810
      10A    -11.287396    11A    -11.255022    12A     -1.380206
      13A     -1.300616    14A     -1.245414    15A     -1.211808
      16A     -1.155312    17A     -1.035164    18A     -0.985215
      19A     -0.895129    20A     -0.875703    21A     -0.806105
      22A     -0.758078    23A     -0.731814    24A     -0.691547
      25A     -0.676116    26A     -0.672530    27A     -0.632648
      28A     -0.610347    29A     -0.595068    30A     -0.587080
      31A     -0.554732    32A     -0.527990    33A     -0.497623
      34A     -0.494496    35A     -0.453158    36A     -0.414115
      37A     -0.409463    38A     -0.369755    39A     -0.310506

  @DF-RHF Final Energy:  -503.71393070953735

   => Energetics <=

    Nuclear Repulsion Energy =            596.5085200511765606
    One-Electron Energy =               -1867.2045652269025595
    Two-Electron Energy =                 766.9821144661884773
    Total Energy =                       -503.7139307095374079
  Basis Set: (AUG-CC-PVTZ AUX)
    Blend: AUG-CC-PVTZ-RI
    Molecular point group: c1

    Geometry (in Angstrom), charge = 0, multiplicity = 1:

       Center              X                  Y                   Z               Mass
    ------------   -----------------  -----------------  -----------------  -----------------
         N           -1.829966694910    -0.158716466207    -0.003129302952    14.003074004430
         N           -0.311986694910    -1.846599466207    -0.011240302952    14.003074004430
         N           -0.307955694910     1.752847533793    -0.001964302952    14.003074004430
         N            2.012571305090     1.039240533793    -0.010892302952    14.003074004430
         N            2.686154305090    -1.193658466207     0.075601697048    14.003074004430
         C           -0.589438694910     0.438962533793     0.001782697048    12.000000000000
         C            0.325965305090    -0.622697466207     0.005192697048    12.000000000000
         C           -1.597593694910    -1.512685466207    -0.009325302952    12.000000000000
         C            1.685102305090    -0.262257466207    -0.001530302952    12.000000000000
         C           -3.018298994910     0.488103033793    -0.000357202952    12.000000000000
         C            1.017220305090     1.953684533793    -0.012160302952    12.000000000000
         H           -2.419297694910    -2.220523466207    -0.015675302952     1.007825032230
         H           -3.186159694910     1.172400533793    -0.883120302952     1.007825032230
         H           -3.903278694910    -0.208720466207    -0.009717302952     1.007825032230
         H           -3.191859694910     1.155387533793     0.894377697048     1.007825032230
         H            1.341813305090     2.992254533793    -0.015917302952     1.007825032230
         H            3.595798305090    -0.859994466207    -0.222569302952     1.007825032230
         H            2.438823305090    -2.129687466207    -0.224279302952     1.007825032230

  Basis Set: AUG-CC-PVTZ
    Blend: AUG-CC-PVTZ
  Basis Set: (AUG-CC-PVTZ AUX)
    Blend: AUG-CC-PVTZ-JKFIT
	 Reference Energy          =    -503.7139307095373510 [Eh]
	 Singles Energy            =      -0.0000000000000000 [Eh]
	 Same-Spin Energy          =      -0.5501874199806920 [Eh]
	 Opposite-Spin Energy      =      -1.6338256511061160 [Eh]
	 Correlation Energy        =      -2.1840130710868078 [Eh]
	 Total Energy              =    -505.8979437806241322 [Eh]

	 ================> DF-SCS-MP2 Energies <==================
	-----------------------------------------------------------
	 SCS Same-Spin Scale       =       0.3333333333333333 [-]
	 SCS Opposite-Spin Scale   =       1.2000000000000000 [-]
	 SCS Same-Spin Energy      =      -0.1833958066602306 [Eh]
	 SCS Opposite-Spin Energy  =      -1.9605907813273391 [Eh]
	 SCS Correlation Energy    =      -2.1439865879875697 [Eh]
	 SCS Total Energy          =    -505.8579172975249207 [Eh]
	-----------------------------------------------------------

  Dipole Moment: [D]
     X:    -2.3985      Y:    -1.2845      Z:    -0.7902     Total:     2.8332

*** Psi4 exiting successfully. Buy a developer a beer!
