                               Psi4 1.3.2 release

  ==> Input File <==

--------------------------------------------------------------------------
#psi4
#
memory 32 gb

molecule  {
0 1
  N       -1.7893040    -0.1617730    -0.0001110
  N       -0.2713240    -1.8496560    -0.0082220
  N       -0.2672930     1.7497910     0.0010540
  N        2.0207141     1.0020041    -0.0077156
  N        2.7268170    -1.1967150     0.0786200
  C       -0.5487760     0.4359060     0.0048010
  C        0.3666280    -0.6257540     0.0082110
  C       -1.5569310    -1.5157420    -0.0063070
  C        1.7257650    -0.2653140     0.0014880
  C       -3.0654680     0.5328540     0.0028660
  C        1.0578830     1.9506280    -0.0091420
  H       -2.3786350    -2.2235800    -0.0126570
  H       -3.1454970     1.1693440    -0.8801020
  H       -3.8626160    -0.2117770    -0.0066990
  H       -3.1511970     1.1523310     0.8973960
  H        1.3460325     2.9998936    -0.0128743
  H        3.6364610    -0.8630510    -0.2195510
  H        2.4794860    -2.1327440    -0.2212610
units angstrom
no_reorient  #important for SAPT in psi4, default
symmetry c1  #important for SAPT in psi4, default
}

set PROPERTIES_ORIGIN ["COM"]
properties('MP2/aug-cc-pvtz', properties = ['dipole'])
--------------------------------------------------------------------------

    Molecular point group: c1
  Charge       = 0
  Multiplicity = 1
  Basis Set: AUG-CC-PVTZ
    Blend: AUG-CC-PVTZ
  Basis Set: (AUG-CC-PVTZ AUX)
    Blend: AUG-CC-PVTZ-JKFIT

    Orbital Energies [Eh]
    ---------------------

    Doubly Occupied:

       1A    -15.632246     2A    -15.577960     3A    -15.566040
       4A    -15.561755     5A    -15.547583     6A    -11.329137
       7A    -11.321094     8A    -11.313398     9A    -11.310270
      10A    -11.288183    11A    -11.250685    12A     -1.367304
      13A     -1.302768    14A     -1.242137    15A     -1.195732
      16A     -1.155176    17A     -1.031054    18A     -0.984989
      19A     -0.891541    20A     -0.874304    21A     -0.803225
      22A     -0.754879    23A     -0.723672    24A     -0.680660
      25A     -0.674144    26A     -0.665846    27A     -0.627112
      28A     -0.607150    29A     -0.597808    30A     -0.592811
      31A     -0.571595    32A     -0.538660    33A     -0.494490
      34A     -0.493550    35A     -0.448728    36A     -0.413179
      37A     -0.404954    38A     -0.368816    39A     -0.307516

  @DF-RHF Final Energy:  -503.72418143317401

   => Energetics <=

    Nuclear Repulsion Energy =            595.6236227820362501
    One-Electron Energy =               -1865.6713131214119130
    Two-Electron Energy =                 766.3235089062015959
    Total Energy =                       -503.7241814331739533
  Basis Set: (AUG-CC-PVTZ AUX)
    Blend: AUG-CC-PVTZ-RI
    Molecular point group: c1

    Geometry (in Angstrom), charge = 0, multiplicity = 1:

       Center              X                  Y                   Z               Mass
    ------------   -----------------  -----------------  -----------------  -----------------
         N           -1.819595150458    -0.159426505257    -0.003160843675    14.003074004430
         N           -0.301615150458    -1.847309505257    -0.011271843675    14.003074004430
         N           -0.297584150458     1.752137494743    -0.001995843675    14.003074004430
         N            1.990422949542     1.004350594743    -0.010765443675    14.003074004430
         N            2.696525849542    -1.194368505257     0.075570156325    14.003074004430
         C           -0.579067150458     0.438252494743     0.001751156325    12.000000000000
         C            0.336336849542    -0.623407505257     0.005161156325    12.000000000000
         C           -1.587222150458    -1.513395505257    -0.009356843675    12.000000000000
         C            1.695473849542    -0.262967505257    -0.001561843675    12.000000000000
         C           -3.095759150458     0.535200494743    -0.000183843675    12.000000000000
         C            1.027591849542     1.952974494743    -0.012191843675    12.000000000000
         H           -2.408926150458    -2.221233505257    -0.015706843675     1.007825032230
         H           -3.175788150458     1.171690494743    -0.883151843675     1.007825032230
         H           -3.892907150458    -0.209430505257    -0.009748843675     1.007825032230
         H           -3.181488150458     1.154677494743     0.894346156325     1.007825032230
         H            1.315741349542     3.002240094743    -0.015924143675     1.007825032230
         H            3.606169849542    -0.860704505257    -0.222600843675     1.007825032230
         H            2.449194849542    -2.130397505257    -0.224310843675     1.007825032230

  Basis Set: AUG-CC-PVTZ
    Blend: AUG-CC-PVTZ
  Basis Set: (AUG-CC-PVTZ AUX)
    Blend: AUG-CC-PVTZ-JKFIT
	 Reference Energy          =    -503.7241814331740102 [Eh]
	 Singles Energy            =      -0.0000000000000000 [Eh]
	 Same-Spin Energy          =      -0.5493964706738513 [Eh]
	 Opposite-Spin Energy      =      -1.6326149439614974 [Eh]
	 Correlation Energy        =      -2.1820114146353489 [Eh]
	 Total Energy              =    -505.9061928478093364 [Eh]

	 ================> DF-SCS-MP2 Energies <==================
	-----------------------------------------------------------
	 SCS Same-Spin Scale       =       0.3333333333333333 [-]
	 SCS Opposite-Spin Scale   =       1.2000000000000000 [-]
	 SCS Same-Spin Energy      =      -0.1831321568912838 [Eh]
	 SCS Opposite-Spin Energy  =      -1.9591379327537968 [Eh]
	 SCS Correlation Energy    =      -2.1422700896450806 [Eh]
	 SCS Total Energy          =    -505.8664515228190908 [Eh]
	-----------------------------------------------------------

  Dipole Moment: [D]
     X:    -2.7100      Y:    -0.9890      Z:    -0.7948     Total:     2.9924

*** Psi4 exiting successfully. Buy a developer a beer!
