                               Psi4 1.4a3.dev225

  ==> Input File <==

--------------------------------------------------------------------------
#psi4
#
memory 32 gb

molecule  {
0 1
  N       -1.7889380    -0.1640290    -0.0179520
  N       -0.2703210    -1.8482040    -0.0023970
  N       -0.2671710     1.7490810    -0.0033560
  N        2.0541740     1.0368940    -0.0085470
  N        2.7206340    -1.1973270     0.0732090
  C       -0.5486140     0.4351420     0.0045870
  C        0.3650590    -0.6247560     0.0169900
  C       -1.5569260    -1.5161270    -0.0162740
  C        1.7266360    -0.2641570     0.0048060
  C       -3.0641060     0.5324820     0.0177850
  C        1.0564750     1.9508360    -0.0110870
  H       -2.3762040    -2.2259510    -0.0342240
  H       -2.9284720     1.5041700    -0.4579320
  H       -3.8067760    -0.0485880    -0.5312030
  H       -3.3972360     0.6796990     1.0480130
  H        1.3871846     3.0082381    -0.0230224
  H        3.6427950    -0.8729100    -0.1905990
  H        2.4748820    -2.1409930    -0.1987870
units angstrom
no_reorient  #important for SAPT in psi4, default
symmetry c1  #important for SAPT in psi4, default
}

set PROPERTIES_ORIGIN ["COM"]
properties('MP2/aug-cc-pvtz', properties = ['dipole'])
--------------------------------------------------------------------------

    Molecular point group: c1
  Charge       = 0
  Multiplicity = 1
  Basis Set: AUG-CC-PVTZ
    Blend: AUG-CC-PVTZ
  Basis Set: (AUG-CC-PVTZ AUX)
    Blend: AUG-CC-PVTZ-JKFIT

    Orbital Energies [Eh]
    ---------------------

    Doubly Occupied:

       1A    -15.632166     2A    -15.581488     3A    -15.567350
       4A    -15.560055     5A    -15.551770     6A    -11.334975
       7A    -11.320911     8A    -11.313678     9A    -11.312647
      10A    -11.287080    11A    -11.250805    12A     -1.367698
      13A     -1.296131    14A     -1.242841    15A     -1.196590
      16A     -1.151903    17A     -1.030465    18A     -0.985318
      19A     -0.890018    20A     -0.870895    21A     -0.802791
      22A     -0.753926    23A     -0.723601    24A     -0.681311
      25A     -0.673563    26A     -0.666264    27A     -0.624526
      28A     -0.605968    29A     -0.594613    30A     -0.591384
      31A     -0.570932    32A     -0.536818    33A     -0.495661
      34A     -0.490572    35A     -0.450058    36A     -0.414198
      37A     -0.408181    38A     -0.367649    39A     -0.306913

  @DF-RHF Final Energy:  -503.72434262946581

   => Energetics <=

    Nuclear Repulsion Energy =            594.4942932755276388
    One-Electron Energy =               -1863.4298470955961875
    Two-Electron Energy =                 765.2112111906026257
    Total Energy =                       -503.7243426294658093
  Basis Set: (AUG-CC-PVTZ AUX)
    Blend: AUG-CC-PVTZ-RI
    Molecular point group: c1

    Geometry (in Angstrom), charge = 0, multiplicity = 1:

       Center              X                  Y                   Z               Mass
    ------------   -----------------  -----------------  -----------------  -----------------
         N           -1.822372761962    -0.164917569431    -0.020530781356    14.003074004430
         N           -0.303755761962    -1.849092569431    -0.004975781356    14.003074004430
         N           -0.300605761962     1.748192430569    -0.005934781356    14.003074004430
         N            2.020739238038     1.036005430569    -0.011125781356    14.003074004430
         N            2.687199238038    -1.198215569431     0.070630218644    14.003074004430
         C           -0.582048761962     0.434253430569     0.002008218644    12.000000000000
         C            0.331624238038    -0.625644569431     0.014411218644    12.000000000000
         C           -1.590360761962    -1.517015569431    -0.018852781356    12.000000000000
         C            1.693201238038    -0.265045569431     0.002227218644    12.000000000000
         C           -3.097540761962     0.531593430569     0.015206218644    12.000000000000
         C            1.023040238038     1.949947430569    -0.013665781356    12.000000000000
         H           -2.409638761962    -2.226839569431    -0.036802781356     1.007825032230
         H           -2.961906761962     1.503281430569    -0.460510781356     1.007825032230
         H           -3.840210761962    -0.049476569431    -0.533781781356     1.007825032230
         H           -3.430670761962     0.678810430569     1.045434218644     1.007825032230
         H            1.353749838038     3.007349530569    -0.025601181356     1.007825032230
         H            3.609360238038    -0.873798569431    -0.193177781356     1.007825032230
         H            2.441447238038    -2.141881569431    -0.201365781356     1.007825032230

  Basis Set: AUG-CC-PVTZ
    Blend: AUG-CC-PVTZ
  Basis Set: (AUG-CC-PVTZ AUX)
    Blend: AUG-CC-PVTZ-JKFIT
	 Reference Energy          =    -503.7243426294658093 [Eh]
	 Singles Energy            =      -0.0000000000000000 [Eh]
	 Same-Spin Energy          =      -0.5493699973834407 [Eh]
	 Opposite-Spin Energy      =      -1.6330583049757861 [Eh]
	 Correlation Energy        =      -2.1824283023592268 [Eh]
	 Total Energy              =    -505.9067709318250081 [Eh]

	 ================> DF-SCS-MP2 Energies <==================
	-----------------------------------------------------------
	 SCS Same-Spin Scale       =       0.3333333333333333 [-]
	 SCS Opposite-Spin Scale   =       1.2000000000000000 [-]
	 SCS Same-Spin Energy      =      -0.1831233324611469 [Eh]
	 SCS Opposite-Spin Energy  =      -1.9596699659709431 [Eh]
	 SCS Correlation Energy    =      -2.1427932984320899 [Eh]
	 SCS Total Energy          =    -505.8671359278978912 [Eh]
	-----------------------------------------------------------

  Dipole Moment: [D]
     X:    -2.6403      Y:    -1.2123      Z:    -0.7128     Total:     2.9915

*** Psi4 exiting successfully. Buy a developer a beer!
