                               Psi4 1.3.2 release

  ==> Input File <==

--------------------------------------------------------------------------
#psi4
#
memory 32 gb

molecule  {
0 1
  N       -1.8364155    -0.1707066    -0.0003123
  N       -0.2713240    -1.8496560    -0.0082220
  N       -0.2672930     1.7497910     0.0010540
  N        2.0532340     1.0361840    -0.0078740
  N        2.7268170    -1.1967150     0.0786200
  C       -0.5487760     0.4359060     0.0048010
  C        0.3666280    -0.6257540     0.0082110
  C       -1.5569310    -1.5157420    -0.0063070
  C        1.7257650    -0.2653140     0.0014880
  C       -3.0654680     0.5328540     0.0028660
  C        1.0578830     1.9506280    -0.0091420
  H       -2.4028383    -2.1944716    -0.0125871
  H       -3.1454970     1.1693440    -0.8801020
  H       -3.8626160    -0.2117770    -0.0066990
  H       -3.1511970     1.1523310     0.8973960
  H        1.3824760     2.9891980    -0.0128990
  H        3.6364610    -0.8630510    -0.2195510
  H        2.4794860    -2.1327440    -0.2212610
units angstrom
no_reorient  #important for SAPT in psi4, default
symmetry c1  #important for SAPT in psi4, default
}

set PROPERTIES_ORIGIN ["COM"]
properties('MP2/aug-cc-pvtz', properties = ['dipole'])
--------------------------------------------------------------------------

    Molecular point group: c1
  Charge       = 0
  Multiplicity = 1
  Basis Set: AUG-CC-PVTZ
    Blend: AUG-CC-PVTZ
  Basis Set: (AUG-CC-PVTZ AUX)
    Blend: AUG-CC-PVTZ-JKFIT

    Orbital Energies [Eh]
    ---------------------

    Doubly Occupied:

       1A    -15.632202     2A    -15.581947     3A    -15.567630
       4A    -15.563202     5A    -15.554649     6A    -11.335728
       7A    -11.325889     8A    -11.317334     9A    -11.312331
      10A    -11.284935    11A    -11.255513    12A     -1.361984
      13A     -1.297465    14A     -1.243124    15A     -1.201501
      16A     -1.154010    17A     -1.029689    18A     -0.987801
      19A     -0.889492    20A     -0.872651    21A     -0.802987
      22A     -0.752793    23A     -0.722773    24A     -0.682719
      25A     -0.674836    26A     -0.666271    27A     -0.628837
      28A     -0.610265    29A     -0.597765    30A     -0.592061
      31A     -0.561505    32A     -0.534632    33A     -0.496527
      34A     -0.495041    35A     -0.451335    36A     -0.413243
      37A     -0.408660    38A     -0.371921    39A     -0.307592

  @DF-RHF Final Energy:  -503.71990503730518

   => Energetics <=

    Nuclear Repulsion Energy =            593.5362200253529181
    One-Electron Energy =               -1861.4305696467315556
    Two-Electron Energy =                 764.1744445840736262
    Total Energy =                       -503.7199050373051250
  Basis Set: (AUG-CC-PVTZ AUX)
    Blend: AUG-CC-PVTZ-RI
    Molecular point group: c1

    Geometry (in Angstrom), charge = 0, multiplicity = 1:

       Center              X                  Y                   Z               Mass
    ------------   -----------------  -----------------  -----------------  -----------------
         N           -1.865418724735    -0.170856129443    -0.003328660431    14.003074004430
         N           -0.300327224735    -1.849805529443    -0.011238360431    14.003074004430
         N           -0.296296224735     1.749641470557    -0.001962360431    14.003074004430
         N            2.024230775265     1.036034470557    -0.010890360431    14.003074004430
         N            2.697813775265    -1.196864529443     0.075603639569    14.003074004430
         C           -0.577779224735     0.435756470557     0.001784639569    12.000000000000
         C            0.337624775265    -0.625903529443     0.005194639569    12.000000000000
         C           -1.585934224735    -1.515891529443    -0.009323360431    12.000000000000
         C            1.696761775265    -0.265463529443    -0.001528360431    12.000000000000
         C           -3.094471224735     0.532704470557    -0.000150360431    12.000000000000
         C            1.028879775265     1.950478470557    -0.012158360431    12.000000000000
         H           -2.431841524735    -2.194621129443    -0.015603460431     1.007825032230
         H           -3.174500224735     1.169194470557    -0.883118360431     1.007825032230
         H           -3.891619224735    -0.211926529443    -0.009715360431     1.007825032230
         H           -3.180200224735     1.152181470557     0.894379639569     1.007825032230
         H            1.353472775265     2.989048470557    -0.015915360431     1.007825032230
         H            3.607457775265    -0.863200529443    -0.222567360431     1.007825032230
         H            2.450482775265    -2.132893529443    -0.224277360431     1.007825032230

  Basis Set: AUG-CC-PVTZ
    Blend: AUG-CC-PVTZ
  Basis Set: (AUG-CC-PVTZ AUX)
    Blend: AUG-CC-PVTZ-JKFIT
	 Reference Energy          =    -503.7199050373051818 [Eh]
	 Singles Energy            =      -0.0000000000000000 [Eh]
	 Same-Spin Energy          =      -0.5497199905165613 [Eh]
	 Opposite-Spin Energy      =      -1.6340856720280921 [Eh]
	 Correlation Energy        =      -2.1838056625446534 [Eh]
	 Total Energy              =    -505.9037106998498530 [Eh]

	 ================> DF-SCS-MP2 Energies <==================
	-----------------------------------------------------------
	 SCS Same-Spin Scale       =       0.3333333333333333 [-]
	 SCS Opposite-Spin Scale   =       1.2000000000000000 [-]
	 SCS Same-Spin Energy      =      -0.1832399968388538 [Eh]
	 SCS Opposite-Spin Energy  =      -1.9609028064337104 [Eh]
	 SCS Correlation Energy    =      -2.1441428032725640 [Eh]
	 SCS Total Energy          =    -505.8640478405777685 [Eh]
	-----------------------------------------------------------

  Dipole Moment: [D]
     X:    -2.5698      Y:    -1.1136      Z:    -0.7894     Total:     2.9098

*** Psi4 exiting successfully. Buy a developer a beer!
