                               Psi4 1.3.2 release

  ==> Input File <==

--------------------------------------------------------------------------
#psi4
#
memory 32 gb

molecule  {
0 1
  N       -1.7893040    -0.1617730    -0.0001110
  N       -0.2713240    -1.8496560    -0.0082220
  N       -0.2672930     1.7497910     0.0010540
  N        2.1209017     1.0172608    -0.0079737
  N        2.7268170    -1.1967150     0.0786200
  C       -0.5487760     0.4359060     0.0048010
  C        0.3873564    -0.6963911     0.0085937
  C       -1.5569310    -1.5157420    -0.0063070
  C        1.7257650    -0.2653140     0.0014880
  C       -3.0654680     0.5328540     0.0028660
  C        1.0578830     1.9506280    -0.0091420
  H       -2.3786350    -2.2235800    -0.0126570
  H       -3.1454970     1.1693440    -0.8801020
  H       -3.8626160    -0.2117770    -0.0066990
  H       -3.1511970     1.1523310     0.8973960
  H        1.3824760     2.9891980    -0.0128990
  H        3.6364610    -0.8630510    -0.2195510
  H        2.4794860    -2.1327440    -0.2212610
units angstrom
no_reorient  #important for SAPT in psi4, default
symmetry c1  #important for SAPT in psi4, default
}

set PROPERTIES_ORIGIN ["COM"]
properties('MP2/aug-cc-pvtz', properties = ['dipole'])
--------------------------------------------------------------------------

    Molecular point group: c1
  Charge       = 0
  Multiplicity = 1
  Basis Set: AUG-CC-PVTZ
    Blend: AUG-CC-PVTZ
  Basis Set: (AUG-CC-PVTZ AUX)
    Blend: AUG-CC-PVTZ-JKFIT

    Orbital Energies [Eh]
    ---------------------

    Doubly Occupied:

       1A    -15.639292     2A    -15.573076     3A    -15.568837
       4A    -15.568184     5A    -15.560138     6A    -11.330816
       7A    -11.322095     8A    -11.320325     9A    -11.319245
      10A    -11.291422    11A    -11.258194    12A     -1.369836
      13A     -1.289099    14A     -1.246284    15A     -1.205830
      16A     -1.144096    17A     -1.022322    18A     -0.991208
      19A     -0.886951    20A     -0.876727    21A     -0.794772
      22A     -0.749447    23A     -0.732230    24A     -0.678642
      25A     -0.670094    26A     -0.667416    27A     -0.624118
      28A     -0.599405    29A     -0.596173    30A     -0.588831
      31A     -0.570316    32A     -0.535398    33A     -0.497860
      34A     -0.496921    35A     -0.459632    36A     -0.418148
      37A     -0.407647    38A     -0.366576    39A     -0.298854

  @DF-RHF Final Energy:  -503.70750916777195

   => Energetics <=

    Nuclear Repulsion Energy =            592.2846063546794539
    One-Electron Energy =               -1858.9113276556433902
    Two-Electron Energy =                 762.9192121331919907
    Total Energy =                       -503.7075091677719456
  Basis Set: (AUG-CC-PVTZ AUX)
    Blend: AUG-CC-PVTZ-RI
    Molecular point group: c1

    Geometry (in Angstrom), charge = 0, multiplicity = 1:

       Center              X                  Y                   Z               Mass
    ------------   -----------------  -----------------  -----------------  -----------------
         N           -1.830921387820    -0.155101133512    -0.003167238740    14.003074004430
         N           -0.312941387820    -1.842984133512    -0.011278238740    14.003074004430
         N           -0.308910387820     1.756462866488    -0.002002238740    14.003074004430
         N            2.079284312180     1.023932666488    -0.011029938740    14.003074004430
         N            2.685199612180    -1.190043133512     0.075563761260    14.003074004430
         C           -0.590393387820     0.442577866488     0.001744761260    12.000000000000
         C            0.345739012180    -0.689719233512     0.005537461260    12.000000000000
         C           -1.598548387820    -1.509070133512    -0.009363238740    12.000000000000
         C            1.684147612180    -0.258642133512    -0.001568238740    12.000000000000
         C           -3.107085387820     0.539525866488    -0.000190238740    12.000000000000
         C            1.016265612180     1.957299866488    -0.012198238740    12.000000000000
         H           -2.420252387820    -2.216908133512    -0.015713238740     1.007825032230
         H           -3.187114387820     1.176015866488    -0.883158238740     1.007825032230
         H           -3.904233387820    -0.205105133512    -0.009755238740     1.007825032230
         H           -3.192814387820     1.159002866488     0.894339761260     1.007825032230
         H            1.340858612180     2.995869866488    -0.015955238740     1.007825032230
         H            3.594843612180    -0.856379133512    -0.222607238740     1.007825032230
         H            2.437868612180    -2.126072133512    -0.224317238740     1.007825032230

  Basis Set: AUG-CC-PVTZ
    Blend: AUG-CC-PVTZ
  Basis Set: (AUG-CC-PVTZ AUX)
    Blend: AUG-CC-PVTZ-JKFIT
	 Reference Energy          =    -503.7075091677719456 [Eh]
	 Singles Energy            =      -0.0000000000000000 [Eh]
	 Same-Spin Energy          =      -0.5514586083560905 [Eh]
	 Opposite-Spin Energy      =      -1.6368428475672621 [Eh]
	 Correlation Energy        =      -2.1883014559233525 [Eh]
	 Total Energy              =    -505.8958106236952972 [Eh]

	 ================> DF-SCS-MP2 Energies <==================
	-----------------------------------------------------------
	 SCS Same-Spin Scale       =       0.3333333333333333 [-]
	 SCS Opposite-Spin Scale   =       1.2000000000000000 [-]
	 SCS Same-Spin Energy      =      -0.1838195361186968 [Eh]
	 SCS Opposite-Spin Energy  =      -1.9642114170807143 [Eh]
	 SCS Correlation Energy    =      -2.1480309531994113 [Eh]
	 SCS Total Energy          =    -505.8555401209713409 [Eh]
	-----------------------------------------------------------

  Dipole Moment: [D]
     X:    -3.1268      Y:    -1.0984      Z:    -0.7880     Total:     3.4065

*** Psi4 exiting successfully. Buy a developer a beer!
