                               Psi4 1.3.2 release

  ==> Input File <==

--------------------------------------------------------------------------
#psi4
#
memory 32 gb

molecule  {
0 1
  N       -1.7893040    -0.1617730    -0.0001110
  N       -0.2713240    -1.8496560    -0.0082220
  N       -0.2672930     1.7497910     0.0010540
  N        2.0532340     1.0361840    -0.0078740
  N        2.7268170    -1.1967150     0.0786200
  C       -0.5286724     0.3922484     0.0046217
  C        0.3666280    -0.6257540     0.0082110
  C       -1.5098193    -1.5068080    -0.0061873
  C        1.7257650    -0.2653140     0.0014880
  C       -3.0654680     0.5328540     0.0028660
  C        1.0578830     1.9506280    -0.0091420
  H       -2.3786350    -2.2235800    -0.0126570
  H       -3.1454970     1.1693440    -0.8801020
  H       -3.8626160    -0.2117770    -0.0066990
  H       -3.1511970     1.1523310     0.8973960
  H        1.3824760     2.9891980    -0.0128990
  H        3.6364610    -0.8630510    -0.2195510
  H        2.4794860    -2.1327440    -0.2212610
units angstrom
no_reorient  #important for SAPT in psi4, default
symmetry c1  #important for SAPT in psi4, default
}

set PROPERTIES_ORIGIN ["COM"]
properties('MP2/aug-cc-pvtz', properties = ['dipole'])
--------------------------------------------------------------------------

    Molecular point group: c1
  Charge       = 0
  Multiplicity = 1
  Basis Set: AUG-CC-PVTZ
    Blend: AUG-CC-PVTZ
  Basis Set: (AUG-CC-PVTZ AUX)
    Blend: AUG-CC-PVTZ-JKFIT

    Orbital Energies [Eh]
    ---------------------

    Doubly Occupied:

       1A    -15.629154     2A    -15.583657     3A    -15.563825
       4A    -15.560860     5A    -15.550362     6A    -11.337431
       7A    -11.320556     8A    -11.309889     9A    -11.309405
      10A    -11.289792    11A    -11.248900    12A     -1.375687
      13A     -1.295579    14A     -1.240518    15A     -1.205156
      16A     -1.146571    17A     -1.039763    18A     -0.987948
      19A     -0.885832    20A     -0.869142    21A     -0.805631
      22A     -0.753298    23A     -0.722734    24A     -0.679945
      25A     -0.670544    26A     -0.667527    27A     -0.624168
      28A     -0.608106    29A     -0.596582    30A     -0.588884
      31A     -0.569301    32A     -0.540839    33A     -0.492830
      34A     -0.492442    35A     -0.451221    36A     -0.415806
      37A     -0.410259    38A     -0.366641    39A     -0.318084

  @DF-RHF Final Energy:  -503.72164614568999

   => Energetics <=

    Nuclear Repulsion Energy =            595.6726811824485139
    One-Electron Energy =               -1865.7389208567924470
    Two-Electron Energy =                 766.3445935286539452
    Total Energy =                       -503.7216461456899879
  Basis Set: (AUG-CC-PVTZ AUX)
    Blend: AUG-CC-PVTZ-RI
    Molecular point group: c1

    Geometry (in Angstrom), charge = 0, multiplicity = 1:

       Center              X                  Y                   Z               Mass
    ------------   -----------------  -----------------  -----------------  -----------------
         N           -1.828307094998    -0.159769707282    -0.003140999459    14.003074004430
         N           -0.310327094998    -1.847652707282    -0.011251999459    14.003074004430
         N           -0.306296094998     1.751794292718    -0.001975999459    14.003074004430
         N            2.014230905002     1.038187292718    -0.010903999459    14.003074004430
         N            2.687813905002    -1.194711707282     0.075590000541    14.003074004430
         C           -0.567675494998     0.394251692718     0.001591700541    12.000000000000
         C            0.327624905002    -0.623750707282     0.005181000541    12.000000000000
         C           -1.548822394998    -1.504804707282    -0.009217299459    12.000000000000
         C            1.686761905002    -0.263310707282    -0.001541999459    12.000000000000
         C           -3.104471094998     0.534857292718    -0.000163999459    12.000000000000
         C            1.018879905002     1.952631292718    -0.012171999459    12.000000000000
         H           -2.417638094998    -2.221576707282    -0.015686999459     1.007825032230
         H           -3.184500094998     1.171347292718    -0.883131999459     1.007825032230
         H           -3.901619094998    -0.209773707282    -0.009728999459     1.007825032230
         H           -3.190200094998     1.154334292718     0.894366000541     1.007825032230
         H            1.343472905002     2.991201292718    -0.015928999459     1.007825032230
         H            3.597457905002    -0.861047707282    -0.222580999459     1.007825032230
         H            2.440482905002    -2.130740707282    -0.224290999459     1.007825032230

  Basis Set: AUG-CC-PVTZ
    Blend: AUG-CC-PVTZ
  Basis Set: (AUG-CC-PVTZ AUX)
    Blend: AUG-CC-PVTZ-JKFIT
	 Reference Energy          =    -503.7216461456899879 [Eh]
	 Singles Energy            =      -0.0000000000000000 [Eh]
	 Same-Spin Energy          =      -0.5477167092240005 [Eh]
	 Opposite-Spin Energy      =      -1.6312727851179925 [Eh]
	 Correlation Energy        =      -2.1789894943419927 [Eh]
	 Total Energy              =    -505.9006356400319646 [Eh]

	 ================> DF-SCS-MP2 Energies <==================
	-----------------------------------------------------------
	 SCS Same-Spin Scale       =       0.3333333333333333 [-]
	 SCS Opposite-Spin Scale   =       1.2000000000000000 [-]
	 SCS Same-Spin Energy      =      -0.1825722364080002 [Eh]
	 SCS Opposite-Spin Energy  =      -1.9575273421415909 [Eh]
	 SCS Correlation Energy    =      -2.1400995785495911 [Eh]
	 SCS Total Energy          =    -505.8617457242395972 [Eh]
	-----------------------------------------------------------

  Dipole Moment: [D]
     X:    -2.6215      Y:    -1.2251      Z:    -0.7883     Total:     2.9991

*** Psi4 exiting successfully. Buy a developer a beer!
