                               Psi4 1.3.2 release

  ==> Input File <==

--------------------------------------------------------------------------
#psi4
#
memory 32 gb

molecule  {
0 1
  N       -1.7893040    -0.1617730    -0.0001110
  N       -0.2713240    -1.8496560    -0.0082220
  N       -0.2672930     1.7497910     0.0010540
  N        2.0532340     1.0361840    -0.0078740
  N        2.7268170    -1.1967150     0.0786200
  C       -0.5487760     0.4359060     0.0048010
  C        0.3666280    -0.6257540     0.0082110
  C       -1.5569310    -1.5157420    -0.0063070
  C        1.7943300    -0.2806704     0.0012846
  C       -3.0654680     0.5328540     0.0028660
  C        1.1071045     2.0014657    -0.0096655
  H       -2.3786350    -2.2235800    -0.0126570
  H       -3.1454970     1.1693440    -0.8801020
  H       -3.8626160    -0.2117770    -0.0066990
  H       -3.1511970     1.1523310     0.8973960
  H        1.3824760     2.9891980    -0.0128990
  H        3.6364610    -0.8630510    -0.2195510
  H        2.4794860    -2.1327440    -0.2212610
units angstrom
no_reorient  #important for SAPT in psi4, default
symmetry c1  #important for SAPT in psi4, default
}

set PROPERTIES_ORIGIN ["COM"]
properties('MP2/aug-cc-pvtz', properties = ['dipole'])
--------------------------------------------------------------------------

    Molecular point group: c1
  Charge       = 0
  Multiplicity = 1
  Basis Set: AUG-CC-PVTZ
    Blend: AUG-CC-PVTZ
  Basis Set: (AUG-CC-PVTZ AUX)
    Blend: AUG-CC-PVTZ-JKFIT

    Orbital Energies [Eh]
    ---------------------

    Doubly Occupied:

       1A    -15.627672     2A    -15.592043     3A    -15.562800
       4A    -15.556573     5A    -15.550588     6A    -11.340992
       7A    -11.316896     8A    -11.314483     9A    -11.305021
      10A    -11.284436    11A    -11.251844    12A     -1.360593
      13A     -1.300101    14A     -1.241830    15A     -1.196000
      16A     -1.145972    17A     -1.019568    18A     -0.979614
      19A     -0.894242    20A     -0.863474    21A     -0.802840
      22A     -0.755221    23A     -0.735199    24A     -0.683587
      25A     -0.679753    26A     -0.660604    27A     -0.631932
      28A     -0.604890    29A     -0.593268    30A     -0.588123
      31A     -0.569467    32A     -0.541891    33A     -0.491204
      34A     -0.489697    35A     -0.444977    36A     -0.411407
      37A     -0.393093    38A     -0.365914    39A     -0.293968

  @DF-RHF Final Energy:  -503.70698759906816

   => Energetics <=

    Nuclear Repulsion Energy =            592.1513696863466976
    One-Electron Energy =               -1858.8331634788617066
    Two-Electron Energy =                 762.9748061934468524
    Total Energy =                       -503.7069875990681567
  Basis Set: (AUG-CC-PVTZ AUX)
    Blend: AUG-CC-PVTZ-RI
    Molecular point group: c1

    Geometry (in Angstrom), charge = 0, multiplicity = 1:

       Center              X                  Y                   Z               Mass
    ------------   -----------------  -----------------  -----------------  -----------------
         N           -1.832378026833    -0.165421132647    -0.003087282465    14.003074004430
         N           -0.314398026833    -1.853304132647    -0.011198282465    14.003074004430
         N           -0.310367026833     1.746142867353    -0.001922282465    14.003074004430
         N            2.010159973167     1.032535867353    -0.010850282465    14.003074004430
         N            2.683742973167    -1.200363132647     0.075643717535    14.003074004430
         C           -0.591850026833     0.432257867353     0.001824717535    12.000000000000
         C            0.323553973167    -0.629402132647     0.005234717535    12.000000000000
         C           -1.600005026833    -1.519390132647    -0.009283282465    12.000000000000
         C            1.751255973167    -0.284318532647    -0.001691682465    12.000000000000
         C           -3.108542026833     0.529205867353    -0.000110282465    12.000000000000
         C            1.064030473167     1.997817567353    -0.012641782465    12.000000000000
         H           -2.421709026833    -2.227228132647    -0.015633282465     1.007825032230
         H           -3.188571026833     1.165695867353    -0.883078282465     1.007825032230
         H           -3.905690026833    -0.215425132647    -0.009675282465     1.007825032230
         H           -3.194271026833     1.148682867353     0.894419717535     1.007825032230
         H            1.339401973167     2.985549867353    -0.015875282465     1.007825032230
         H            3.593386973167    -0.866699132647    -0.222527282465     1.007825032230
         H            2.436411973167    -2.136392132647    -0.224237282465     1.007825032230

  Basis Set: AUG-CC-PVTZ
    Blend: AUG-CC-PVTZ
  Basis Set: (AUG-CC-PVTZ AUX)
    Blend: AUG-CC-PVTZ-JKFIT
	 Reference Energy          =    -503.7069875990681567 [Eh]
	 Singles Energy            =      -0.0000000000000000 [Eh]
	 Same-Spin Energy          =      -0.5505706065525373 [Eh]
	 Opposite-Spin Energy      =      -1.6353455065113431 [Eh]
	 Correlation Energy        =      -2.1859161130638807 [Eh]
	 Total Energy              =    -505.8929037121320107 [Eh]

	 ================> DF-SCS-MP2 Energies <==================
	-----------------------------------------------------------
	 SCS Same-Spin Scale       =       0.3333333333333333 [-]
	 SCS Opposite-Spin Scale   =       1.2000000000000000 [-]
	 SCS Same-Spin Energy      =      -0.1835235355175124 [Eh]
	 SCS Opposite-Spin Energy  =      -1.9624146078136118 [Eh]
	 SCS Correlation Energy    =      -2.1459381433311240 [Eh]
	 SCS Total Energy          =    -505.8529257423992931 [Eh]
	-----------------------------------------------------------

  Dipole Moment: [D]
     X:    -2.1080      Y:    -1.3837      Z:    -0.7746     Total:     2.6379

*** Psi4 exiting successfully. Buy a developer a beer!
