                               Psi4 1.3.2 release

  ==> Input File <==

--------------------------------------------------------------------------
#psi4
#
memory 32 gb

molecule  {
0 1
  N       -1.7893040    -0.1617730    -0.0001110
  N       -0.2713240    -1.8496560    -0.0082220
  N       -0.2672930     1.7497910     0.0010540
  N        2.0532340     1.0361840    -0.0078740
  N        2.7268170    -1.1967150     0.0786200
  C       -0.5191950     0.3701637     0.0044276
  C        0.3666280    -0.6257540     0.0082110
  C       -1.5569310    -1.5157420    -0.0063070
  C        1.7257650    -0.2653140     0.0014880
  C       -3.1000733     0.4651142     0.0024158
  C        1.0578830     1.9506280    -0.0091420
  H       -2.3786350    -2.2235800    -0.0126570
  H       -3.1454970     1.1693440    -0.8801020
  H       -3.8626160    -0.2117770    -0.0066990
  H       -3.1511970     1.1523310     0.8973960
  H        1.3824760     2.9891980    -0.0128990
  H        3.6364610    -0.8630510    -0.2195510
  H        2.4794860    -2.1327440    -0.2212610
units angstrom
no_reorient  #important for SAPT in psi4, default
symmetry c1  #important for SAPT in psi4, default
}

set PROPERTIES_ORIGIN ["COM"]
properties('MP2/aug-cc-pvtz', properties = ['dipole'])
--------------------------------------------------------------------------

    Molecular point group: c1
  Charge       = 0
  Multiplicity = 1
  Basis Set: AUG-CC-PVTZ
    Blend: AUG-CC-PVTZ
  Basis Set: (AUG-CC-PVTZ AUX)
    Blend: AUG-CC-PVTZ-JKFIT

    Orbital Energies [Eh]
    ---------------------

    Doubly Occupied:

       1A    -15.632568     2A    -15.585202     3A    -15.564666
       4A    -15.561633     5A    -15.550277     6A    -11.339756
       7A    -11.320403     8A    -11.308942     9A    -11.308367
      10A    -11.290534    11A    -11.247749    12A     -1.370998
      13A     -1.295373    14A     -1.235241    15A     -1.197580
      16A     -1.144736    17A     -1.041595    18A     -0.988507
      19A     -0.890319    20A     -0.864486    21A     -0.813291
      22A     -0.754239    23A     -0.722566    24A     -0.684351
      25A     -0.669048    26A     -0.661191    27A     -0.623450
      28A     -0.611867    29A     -0.604045    30A     -0.587224
      31A     -0.578216    32A     -0.532435    33A     -0.489645
      34A     -0.489042    35A     -0.449289    36A     -0.412383
      37A     -0.407282    38A     -0.366570    39A     -0.317601

  @DF-RHF Final Energy:  -503.71083538880089

   => Energetics <=

    Nuclear Repulsion Energy =            594.6824722663166085
    One-Electron Energy =               -1863.7612888814803682
    Two-Electron Energy =                 765.3679812263628719
    Total Energy =                       -503.7108353888008878
  Basis Set: (AUG-CC-PVTZ AUX)
    Blend: AUG-CC-PVTZ-RI
    Molecular point group: c1

    Geometry (in Angstrom), charge = 0, multiplicity = 1:

       Center              X                  Y                   Z               Mass
    ------------   -----------------  -----------------  -----------------  -----------------
         N           -1.822491878285    -0.151819745215    -0.003079498211    14.003074004430
         N           -0.304511878285    -1.839702745215    -0.011190498211    14.003074004430
         N           -0.300480878285     1.759744254785    -0.001914498211    14.003074004430
         N            2.020046121715     1.046137254785    -0.010842498211    14.003074004430
         N            2.693629121715    -1.186761745215     0.075651501789    14.003074004430
         C           -0.552382878285     0.380116954785     0.001459101789    12.000000000000
         C            0.333440121715    -0.615800745215     0.005242501789    12.000000000000
         C           -1.590118878285    -1.505788745215    -0.009275498211    12.000000000000
         C            1.692577121715    -0.255360745215    -0.001480498211    12.000000000000
         C           -3.133261178285     0.475067454785    -0.000552698211    12.000000000000
         C            1.024695121715     1.960581254785    -0.012110498211    12.000000000000
         H           -2.411822878285    -2.213626745215    -0.015625498211     1.007825032230
         H           -3.178684878285     1.179297254785    -0.883070498211     1.007825032230
         H           -3.895803878285    -0.201823745215    -0.009667498211     1.007825032230
         H           -3.184384878285     1.162284254785     0.894427501789     1.007825032230
         H            1.349288121715     2.999151254785    -0.015867498211     1.007825032230
         H            3.603273121715    -0.853097745215    -0.222519498211     1.007825032230
         H            2.446298121715    -2.122790745215    -0.224229498211     1.007825032230

  Basis Set: AUG-CC-PVTZ
    Blend: AUG-CC-PVTZ
  Basis Set: (AUG-CC-PVTZ AUX)
    Blend: AUG-CC-PVTZ-JKFIT
	 Reference Energy          =    -503.7108353888008878 [Eh]
	 Singles Energy            =      -0.0000000000000000 [Eh]
	 Same-Spin Energy          =      -0.5484824818990385 [Eh]
	 Opposite-Spin Energy      =      -1.6334859036275662 [Eh]
	 Correlation Energy        =      -2.1819683855266048 [Eh]
	 Total Energy              =    -505.8928037743274899 [Eh]

	 ================> DF-SCS-MP2 Energies <==================
	-----------------------------------------------------------
	 SCS Same-Spin Scale       =       0.3333333333333333 [-]
	 SCS Opposite-Spin Scale   =       1.2000000000000000 [-]
	 SCS Same-Spin Energy      =      -0.1828274939663461 [Eh]
	 SCS Opposite-Spin Energy  =      -1.9601830843530794 [Eh]
	 SCS Correlation Energy    =      -2.1430105783194255 [Eh]
	 SCS Total Energy          =    -505.8538459671203213 [Eh]
	-----------------------------------------------------------

  Dipole Moment: [D]
     X:    -2.6564      Y:    -1.2373      Z:    -0.7868     Total:     3.0342

*** Psi4 exiting successfully. Buy a developer a beer!
