                               Psi4 1.4a3.dev225

  ==> Input File <==

--------------------------------------------------------------------------
#psi4
#
memory 32 gb

molecule  {
0 1
  N       -1.7889380    -0.1640290    -0.0179520
  N       -0.2703210    -1.8482040    -0.0023970
  N       -0.2671710     1.7490810    -0.0033560
  N        2.0541740     1.0368940    -0.0085470
  N        2.7206340    -1.1973270     0.0732090
  C       -0.5486140     0.4351420     0.0045870
  C        0.3650590    -0.6247560     0.0169900
  C       -1.5569260    -1.5161270    -0.0162740
  C        1.7144300    -0.3126417     0.0053036
  C       -3.0641060     0.5324820     0.0177850
  C        1.0564750     1.9508360    -0.0110870
  H       -2.3762040    -2.2259510    -0.0342240
  H       -2.9284720     1.5041700    -0.4579320
  H       -3.8067760    -0.0485880    -0.5312030
  H       -3.3972360     0.6796990     1.0480130
  H        1.3812150     2.9891510    -0.0228070
  H        3.6427950    -0.8729100    -0.1905990
  H        2.4748820    -2.1409930    -0.1987870
units angstrom
no_reorient  #important for SAPT in psi4, default
symmetry c1  #important for SAPT in psi4, default
}

set PROPERTIES_ORIGIN ["COM"]
properties('MP2/aug-cc-pvtz', properties = ['dipole'])
--------------------------------------------------------------------------

    Molecular point group: c1
  Charge       = 0
  Multiplicity = 1
  Basis Set: AUG-CC-PVTZ
    Blend: AUG-CC-PVTZ
  Basis Set: (AUG-CC-PVTZ AUX)
    Blend: AUG-CC-PVTZ-JKFIT

    Orbital Energies [Eh]
    ---------------------

    Doubly Occupied:

       1A    -15.632175     2A    -15.586183     3A    -15.566629
       4A    -15.555743     5A    -15.550821     6A    -11.334994
       7A    -11.321347     8A    -11.315143     9A    -11.307973
      10A    -11.287056    11A    -11.248656    12A     -1.367843
      13A     -1.291178    14A     -1.247194    15A     -1.198501
      16A     -1.142440    17A     -1.032997    18A     -0.986755
      19A     -0.891105    20A     -0.867394    21A     -0.804868
      22A     -0.754419    23A     -0.726606    24A     -0.686322
      25A     -0.670269    26A     -0.666390    27A     -0.625920
      28A     -0.605816    29A     -0.594096    30A     -0.592948
      31A     -0.570930    32A     -0.535639    33A     -0.498096
      34A     -0.489098    35A     -0.445622    36A     -0.414305
      37A     -0.407771    38A     -0.362912    39A     -0.307155

  @DF-RHF Final Energy:  -503.72112627320178

   => Energetics <=

    Nuclear Repulsion Energy =            594.5221263817225008
    One-Electron Energy =               -1863.5038865137519224
    Two-Electron Energy =                 765.2606338588276458
    Total Energy =                       -503.7211262732017758
  Basis Set: (AUG-CC-PVTZ AUX)
    Blend: AUG-CC-PVTZ-RI
    Molecular point group: c1

    Geometry (in Angstrom), charge = 0, multiplicity = 1:

       Center              X                  Y                   Z               Mass
    ------------   -----------------  -----------------  -----------------  -----------------
         N           -1.821349832038    -0.160885555803    -0.020572293931    14.003074004430
         N           -0.302732832038    -1.845060555803    -0.005017293931    14.003074004430
         N           -0.299582832038     1.752224444197    -0.005976293931    14.003074004430
         N            2.021762167962     1.040037444197    -0.011167293931    14.003074004430
         N            2.688222167962    -1.194183555803     0.070588706069    14.003074004430
         C           -0.581025832038     0.438285444197     0.001966706069    12.000000000000
         C            0.332647167962    -0.621612555803     0.014369706069    12.000000000000
         C           -1.589337832038    -1.512983555803    -0.018894293931    12.000000000000
         C            1.682018167962    -0.309498255803     0.002683306069    12.000000000000
         C           -3.096517832038     0.535625444197     0.015164706069    12.000000000000
         C            1.024063167962     1.953979444197    -0.013707293931    12.000000000000
         H           -2.408615832038    -2.222807555803    -0.036844293931     1.007825032230
         H           -2.960883832038     1.507313444197    -0.460552293931     1.007825032230
         H           -3.839187832038    -0.045444555803    -0.533823293931     1.007825032230
         H           -3.429647832038     0.682842444197     1.045392706069     1.007825032230
         H            1.348803167962     2.992294444197    -0.025427293931     1.007825032230
         H            3.610383167962    -0.869766555803    -0.193219293931     1.007825032230
         H            2.442470167962    -2.137849555803    -0.201407293931     1.007825032230

  Basis Set: AUG-CC-PVTZ
    Blend: AUG-CC-PVTZ
  Basis Set: (AUG-CC-PVTZ AUX)
    Blend: AUG-CC-PVTZ-JKFIT
	 Reference Energy          =    -503.7211262732017758 [Eh]
	 Singles Energy            =      -0.0000000000000000 [Eh]
	 Same-Spin Energy          =      -0.5494506558479050 [Eh]
	 Opposite-Spin Energy      =      -1.6334749993549127 [Eh]
	 Correlation Energy        =      -2.1829256552028178 [Eh]
	 Total Energy              =    -505.9040519284046127 [Eh]

	 ================> DF-SCS-MP2 Energies <==================
	-----------------------------------------------------------
	 SCS Same-Spin Scale       =       0.3333333333333333 [-]
	 SCS Opposite-Spin Scale   =       1.2000000000000000 [-]
	 SCS Same-Spin Energy      =      -0.1831502186159683 [Eh]
	 SCS Opposite-Spin Energy  =      -1.9601699992258952 [Eh]
	 SCS Correlation Energy    =      -2.1433202178418633 [Eh]
	 SCS Total Energy          =    -505.8644464910436227 [Eh]
	-----------------------------------------------------------

  Dipole Moment: [D]
     X:    -2.5174      Y:    -1.4269      Z:    -0.7049     Total:     2.9783

*** Psi4 exiting successfully. Buy a developer a beer!
