                               Psi4 1.3.2 release

  ==> Input File <==

--------------------------------------------------------------------------
#psi4
#
memory 32 gb

molecule  {
0 1
  N       -1.7893040    -0.1617730    -0.0001110
  N       -0.2713240    -1.8496560    -0.0082220
  N       -0.2672930     1.7497910     0.0010540
  N        2.0532340     1.0361840    -0.0078740
  N        2.7268170    -1.1967150     0.0786200
  C       -0.4586874     0.4793101     0.0051577
  C        0.3666280    -0.6257540     0.0082110
  C       -1.5569310    -1.5157420    -0.0063070
  C        1.7257650    -0.2653140     0.0014880
  C       -3.0654680     0.5328540     0.0028660
  C        1.0578830     1.9506280    -0.0091420
  H       -2.3786350    -2.2235800    -0.0126570
  H       -3.1454970     1.1693440    -0.8801020
  H       -3.8626160    -0.2117770    -0.0066990
  H       -3.1511970     1.1523310     0.8973960
  H        1.3824760     2.9891980    -0.0128990
  H        3.6364610    -0.8630510    -0.2195510
  H        2.4794860    -2.1327440    -0.2212610
units angstrom
no_reorient  #important for SAPT in psi4, default
symmetry c1  #important for SAPT in psi4, default
}

set PROPERTIES_ORIGIN ["COM"]
properties('MP2/aug-cc-pvtz', properties = ['dipole'])
--------------------------------------------------------------------------

    Molecular point group: c1
  Charge       = 0
  Multiplicity = 1
  Basis Set: AUG-CC-PVTZ
    Blend: AUG-CC-PVTZ
  Basis Set: (AUG-CC-PVTZ AUX)
    Blend: AUG-CC-PVTZ-JKFIT

    Orbital Energies [Eh]
    ---------------------

    Doubly Occupied:

       1A    -15.621734     2A    -15.581267     3A    -15.565160
       4A    -15.561414     5A    -15.558247     6A    -11.334713
       7A    -11.324066     8A    -11.316445     9A    -11.314712
      10A    -11.281890    11A    -11.253669    12A     -1.355994
      13A     -1.301386    14A     -1.254556    15A     -1.186446
      16A     -1.161518    17A     -1.035363    18A     -0.973396
      19A     -0.889798    20A     -0.874288    21A     -0.803272
      22A     -0.754753    23A     -0.718512    24A     -0.679875
      25A     -0.672007    26A     -0.656135    27A     -0.628506
      28A     -0.606122    29A     -0.597386    30A     -0.592485
      31A     -0.549095    32A     -0.531871    33A     -0.505123
      34A     -0.500636    35A     -0.453910    36A     -0.417514
      37A     -0.406053    38A     -0.377104    39A     -0.306943

  @DF-RHF Final Energy:  -503.71229767808580

   => Energetics <=

    Nuclear Repulsion Energy =            594.5068839717775973
    One-Electron Energy =               -1863.4316387026119628
    Two-Electron Energy =                 765.2124570527485048
    Total Energy =                       -503.7122976780858608
  Basis Set: (AUG-CC-PVTZ AUX)
    Blend: AUG-CC-PVTZ-RI
    Molecular point group: c1

    Geometry (in Angstrom), charge = 0, multiplicity = 1:

       Center              X                  Y                   Z               Mass
    ------------   -----------------  -----------------  -----------------  -----------------
         N           -1.830148373139    -0.166058910251    -0.003174511199    14.003074004430
         N           -0.312168373139    -1.853941910251    -0.011285511199    14.003074004430
         N           -0.308137373139     1.745505089749    -0.002009511199    14.003074004430
         N            2.012389626861     1.031898089749    -0.010937511199    14.003074004430
         N            2.685972626861    -1.201000910251     0.075556488801    14.003074004430
         C           -0.499531773139     0.475024189749     0.002094188801    12.000000000000
         C            0.325783626861    -0.630039910251     0.005147488801    12.000000000000
         C           -1.597775373139    -1.520027910251    -0.009370511199    12.000000000000
         C            1.684920626861    -0.269599910251    -0.001575511199    12.000000000000
         C           -3.106312373139     0.528568089749    -0.000197511199    12.000000000000
         C            1.017038626861     1.946342089749    -0.012205511199    12.000000000000
         H           -2.419479373139    -2.227865910251    -0.015720511199     1.007825032230
         H           -3.186341373139     1.165058089749    -0.883165511199     1.007825032230
         H           -3.903460373139    -0.216062910251    -0.009762511199     1.007825032230
         H           -3.192041373139     1.148045089749     0.894332488801     1.007825032230
         H            1.341631626861     2.984912089749    -0.015962511199     1.007825032230
         H            3.595616626861    -0.867336910251    -0.222614511199     1.007825032230
         H            2.438641626861    -2.137029910251    -0.224324511199     1.007825032230

  Basis Set: AUG-CC-PVTZ
    Blend: AUG-CC-PVTZ
  Basis Set: (AUG-CC-PVTZ AUX)
    Blend: AUG-CC-PVTZ-JKFIT
	 Reference Energy          =    -503.7122976780858039 [Eh]
	 Singles Energy            =      -0.0000000000000000 [Eh]
	 Same-Spin Energy          =      -0.5494923531650053 [Eh]
	 Opposite-Spin Energy      =      -1.6335465578791917 [Eh]
	 Correlation Energy        =      -2.1830389110441972 [Eh]
	 Total Energy              =    -505.8953365891300109 [Eh]

	 ================> DF-SCS-MP2 Energies <==================
	-----------------------------------------------------------
	 SCS Same-Spin Scale       =       0.3333333333333333 [-]
	 SCS Opposite-Spin Scale   =       1.2000000000000000 [-]
	 SCS Same-Spin Energy      =      -0.1831641177216684 [Eh]
	 SCS Opposite-Spin Energy  =      -1.9602558694550298 [Eh]
	 SCS Correlation Energy    =      -2.1434199871766983 [Eh]
	 SCS Total Energy          =    -505.8557176652624889 [Eh]
	-----------------------------------------------------------

  Dipole Moment: [D]
     X:    -2.3588      Y:    -0.9325      Z:    -0.7885     Total:     2.6562

*** Psi4 exiting successfully. Buy a developer a beer!
