                               Psi4 1.3.2 release

  ==> Input File <==

--------------------------------------------------------------------------
#psi4
#
memory 32 gb

molecule  {
0 1
  N       -1.7893040    -0.1617730    -0.0001110
  N       -0.2713240    -1.8496560    -0.0082220
  N       -0.2672930     1.7497910     0.0010540
  N        2.0532340     1.0361840    -0.0078740
  N        2.7268170    -1.1967150     0.0786200
  C       -0.5487760     0.4359060     0.0048010
  C        0.2360257    -0.4742851     0.0077245
  C       -1.5569310    -1.5157420    -0.0063070
  C        1.7257650    -0.2653140     0.0014880
  C       -3.0654680     0.5328540     0.0028660
  C        1.0578830     1.9506280    -0.0091420
  H       -2.3786350    -2.2235800    -0.0126570
  H       -3.1454970     1.1693440    -0.8801020
  H       -3.8626160    -0.2117770    -0.0066990
  H       -3.1511970     1.1523310     0.8973960
  H        1.3824760     2.9891980    -0.0128990
  H        3.6364610    -0.8630510    -0.2195510
  H        2.4794860    -2.1327440    -0.2212610
units angstrom
no_reorient  #important for SAPT in psi4, default
symmetry c1  #important for SAPT in psi4, default
}

set PROPERTIES_ORIGIN ["COM"]
properties('MP2/aug-cc-pvtz', properties = ['dipole'])
--------------------------------------------------------------------------

    Molecular point group: c1
  Charge       = 0
  Multiplicity = 1
  Basis Set: AUG-CC-PVTZ
    Blend: AUG-CC-PVTZ
  Basis Set: (AUG-CC-PVTZ AUX)
    Blend: AUG-CC-PVTZ-JKFIT

    Orbital Energies [Eh]
    ---------------------

    Doubly Occupied:

       1A    -15.619370     2A    -15.596354     3A    -15.565236
       4A    -15.554720     5A    -15.550458     6A    -11.351254
       7A    -11.320039     8A    -11.311543     9A    -11.282071
      10A    -11.280045    11A    -11.240922    12A     -1.373151
      13A     -1.297469    14A     -1.242206    15A     -1.182065
      16A     -1.153846    17A     -1.055681    18A     -0.972544
      19A     -0.891470    20A     -0.858093    21A     -0.819174
      22A     -0.756580    23A     -0.719668    24A     -0.681886
      25A     -0.668446    26A     -0.664789    27A     -0.626503
      28A     -0.606787    29A     -0.594430    30A     -0.576668
      31A     -0.567032    32A     -0.538692    33A     -0.493545
      34A     -0.489522    35A     -0.445636    36A     -0.410226
      37A     -0.400598    38A     -0.375572    39A     -0.326283

  @DF-RHF Final Energy:  -503.66608130625343

   => Energetics <=

    Nuclear Repulsion Energy =            596.4410467360139592
    One-Electron Energy =               -1867.2931133203921945
    Two-Electron Energy =                 767.1859852781248037
    Total Energy =                       -503.6660813062534316
  Basis Set: (AUG-CC-PVTZ AUX)
    Blend: AUG-CC-PVTZ-RI
    Molecular point group: c1

    Geometry (in Angstrom), charge = 0, multiplicity = 1:

       Center              X                  Y                   Z               Mass
    ------------   -----------------  -----------------  -----------------  -----------------
         N           -1.812382972860    -0.174758020309    -0.003106634429    14.003074004430
         N           -0.294402972860    -1.862641020309    -0.011217634429    14.003074004430
         N           -0.290371972860     1.736805979691    -0.001941634429    14.003074004430
         N            2.030155027140     1.023198979691    -0.010869634429    14.003074004430
         N            2.703738027140    -1.209700020309     0.075624365571    14.003074004430
         C           -0.571854972860     0.422920979691     0.001805365571    12.000000000000
         C            0.212946727140    -0.487270120309     0.004728865571    12.000000000000
         C           -1.580009972860    -1.528727020309    -0.009302634429    12.000000000000
         C            1.702686027140    -0.278299020309    -0.001507634429    12.000000000000
         C           -3.088546972860     0.519868979691    -0.000129634429    12.000000000000
         C            1.034804027140     1.937642979691    -0.012137634429    12.000000000000
         H           -2.401713972860    -2.236565020309    -0.015652634429     1.007825032230
         H           -3.168575972860     1.156358979691    -0.883097634429     1.007825032230
         H           -3.885694972860    -0.224762020309    -0.009694634429     1.007825032230
         H           -3.174275972860     1.139345979691     0.894400365571     1.007825032230
         H            1.359397027140     2.976212979691    -0.015894634429     1.007825032230
         H            3.613382027140    -0.876036020309    -0.222546634429     1.007825032230
         H            2.456407027140    -2.145729020309    -0.224256634429     1.007825032230

  Basis Set: AUG-CC-PVTZ
    Blend: AUG-CC-PVTZ
  Basis Set: (AUG-CC-PVTZ AUX)
    Blend: AUG-CC-PVTZ-JKFIT
	 Reference Energy          =    -503.6660813062534316 [Eh]
	 Singles Energy            =      -0.0000000000000000 [Eh]
	 Same-Spin Energy          =      -0.5467451714977452 [Eh]
	 Opposite-Spin Energy      =      -1.6325701243857416 [Eh]
	 Correlation Energy        =      -2.1793152958834865 [Eh]
	 Total Energy              =    -505.8453966021369297 [Eh]

	 ================> DF-SCS-MP2 Energies <==================
	-----------------------------------------------------------
	 SCS Same-Spin Scale       =       0.3333333333333333 [-]
	 SCS Opposite-Spin Scale   =       1.2000000000000000 [-]
	 SCS Same-Spin Energy      =      -0.1822483904992484 [Eh]
	 SCS Opposite-Spin Energy  =      -1.9590841492628899 [Eh]
	 SCS Correlation Energy    =      -2.1413325397621383 [Eh]
	 SCS Total Energy          =    -505.8074138460155496 [Eh]
	-----------------------------------------------------------

  Dipole Moment: [D]
     X:    -2.1271      Y:    -1.2381      Z:    -0.7804     Total:     2.5819

*** Psi4 exiting successfully. Buy a developer a beer!
