                               Psi4 1.3.2 release

  ==> Input File <==

--------------------------------------------------------------------------
#psi4
#
memory 32 gb

molecule  {
0 1
  N       -1.7893040    -0.1617730    -0.0001110
  N       -0.3136489    -1.8266415    -0.0085663
  N       -0.2672930     1.7497910     0.0010540
  N        2.0532340     1.0361840    -0.0078740
  N        2.7268170    -1.1967150     0.0786200
  C       -0.5852653     0.4033138     0.0041289
  C        0.3666280    -0.6257540     0.0082110
  C       -1.5569310    -1.5157420    -0.0063070
  C        1.7257650    -0.2653140     0.0014880
  C       -3.0654680     0.5328540     0.0028660
  C        1.0578830     1.9506280    -0.0091420
  H       -2.3786350    -2.2235800    -0.0126570
  H       -3.1454970     1.1693440    -0.8801020
  H       -3.8626160    -0.2117770    -0.0066990
  H       -3.1511970     1.1523310     0.8973960
  H        1.3824760     2.9891980    -0.0128990
  H        3.6364610    -0.8630510    -0.2195510
  H        2.4794860    -2.1327440    -0.2212610
units angstrom
no_reorient  #important for SAPT in psi4, default
symmetry c1  #important for SAPT in psi4, default
}

set PROPERTIES_ORIGIN ["COM"]
properties('MP2/aug-cc-pvtz', properties = ['dipole'])
--------------------------------------------------------------------------

    Molecular point group: c1
  Charge       = 0
  Multiplicity = 1
  Basis Set: AUG-CC-PVTZ
    Blend: AUG-CC-PVTZ
  Basis Set: (AUG-CC-PVTZ AUX)
    Blend: AUG-CC-PVTZ-JKFIT

    Orbital Energies [Eh]
    ---------------------

    Doubly Occupied:

       1A    -15.631848     2A    -15.582047     3A    -15.562993
       4A    -15.558400     5A    -15.549256     6A    -11.336804
       7A    -11.313708     8A    -11.311745     9A    -11.309919
      10A    -11.289860    11A    -11.250139    12A     -1.382617
      13A     -1.293925    14A     -1.238246    15A     -1.205677
      16A     -1.145174    17A     -1.035947    18A     -0.989165
      19A     -0.892907    20A     -0.870228    21A     -0.802021
      22A     -0.754699    23A     -0.728277    24A     -0.680429
      25A     -0.675367    26A     -0.672024    27A     -0.627048
      28A     -0.607087    29A     -0.597682    30A     -0.591159
      31A     -0.579824    32A     -0.541601    33A     -0.491678
      34A     -0.486197    35A     -0.445412    36A     -0.418502
      37A     -0.404573    38A     -0.362057    39A     -0.314083

  @DF-RHF Final Energy:  -503.72411226175001

   => Energetics <=

    Nuclear Repulsion Energy =            595.3728065343046865
    One-Electron Energy =               -1865.1331936318842963
    Two-Electron Energy =                 766.0362748358295448
    Total Energy =                       -503.7241122617499514
  Basis Set: (AUG-CC-PVTZ AUX)
    Blend: AUG-CC-PVTZ-RI
    Molecular point group: c1

    Geometry (in Angstrom), charge = 0, multiplicity = 1:

       Center              X                  Y                   Z               Mass
    ------------   -----------------  -----------------  -----------------  -----------------
         N           -1.815983139025    -0.162103176174    -0.003059351599    14.003074004430
         N           -0.340328039025    -1.826971676174    -0.011514651599    14.003074004430
         N           -0.293972139025     1.749460823826    -0.001894351599    14.003074004430
         N            2.026554860975     1.035853823826    -0.010822351599    14.003074004430
         N            2.700137860975    -1.197045176174     0.075671648401    14.003074004430
         C           -0.611944439025     0.402983623826     0.001180548401    12.000000000000
         C            0.339948860975    -0.626084176174     0.005262648401    12.000000000000
         C           -1.583610139025    -1.516072176174    -0.009255351599    12.000000000000
         C            1.699085860975    -0.265644176174    -0.001460351599    12.000000000000
         C           -3.092147139025     0.532523823826    -0.000082351599    12.000000000000
         C            1.031203860975     1.950297823826    -0.012090351599    12.000000000000
         H           -2.405314139025    -2.223910176174    -0.015605351599     1.007825032230
         H           -3.172176139025     1.169013823826    -0.883050351599     1.007825032230
         H           -3.889295139025    -0.212107176174    -0.009647351599     1.007825032230
         H           -3.177876139025     1.152000823826     0.894447648401     1.007825032230
         H            1.355796860975     2.988867823826    -0.015847351599     1.007825032230
         H            3.609781860975    -0.863381176174    -0.222499351599     1.007825032230
         H            2.452806860975    -2.133074176174    -0.224209351599     1.007825032230

  Basis Set: AUG-CC-PVTZ
    Blend: AUG-CC-PVTZ
  Basis Set: (AUG-CC-PVTZ AUX)
    Blend: AUG-CC-PVTZ-JKFIT
	 Reference Energy          =    -503.7241122617500082 [Eh]
	 Singles Energy            =      -0.0000000000000000 [Eh]
	 Same-Spin Energy          =      -0.5478270711163651 [Eh]
	 Opposite-Spin Energy      =      -1.6304641840414114 [Eh]
	 Correlation Energy        =      -2.1782912551577764 [Eh]
	 Total Energy              =    -505.9024035169077820 [Eh]

	 ================> DF-SCS-MP2 Energies <==================
	-----------------------------------------------------------
	 SCS Same-Spin Scale       =       0.3333333333333333 [-]
	 SCS Opposite-Spin Scale   =       1.2000000000000000 [-]
	 SCS Same-Spin Energy      =      -0.1826090237054550 [Eh]
	 SCS Opposite-Spin Energy  =      -1.9565570208496936 [Eh]
	 SCS Correlation Energy    =      -2.1391660445551488 [Eh]
	 SCS Total Energy          =    -505.8632783063051761 [Eh]
	-----------------------------------------------------------

  Dipole Moment: [D]
     X:    -2.7835      Y:    -1.3457      Z:    -0.7900     Total:     3.1910

*** Psi4 exiting successfully. Buy a developer a beer!
