                               Psi4 1.3.2 release

  ==> Input File <==

--------------------------------------------------------------------------
#psi4
#
memory 32 gb

molecule  {
0 1
  N       -1.7893040    -0.1617730    -0.0001110
  N       -0.2713240    -1.8496560    -0.0082220
  N       -0.2594764     1.7036640     0.0010541
  N        2.0532340     1.0361840    -0.0078740
  N        2.7268170    -1.1967150     0.0786200
  C       -0.5487760     0.4359060     0.0048010
  C        0.3666280    -0.6257540     0.0082110
  C       -1.5569310    -1.5157420    -0.0063070
  C        1.7257650    -0.2653140     0.0014880
  C       -3.0654680     0.5328540     0.0028660
  C        1.0578830     1.9506280    -0.0091420
  H       -2.3786350    -2.2235800    -0.0126570
  H       -3.1454970     1.1693440    -0.8801020
  H       -3.8626160    -0.2117770    -0.0066990
  H       -3.1511970     1.1523310     0.8973960
  H        1.4185230     2.9772365    -0.0131542
  H        3.6364610    -0.8630510    -0.2195510
  H        2.4794860    -2.1327440    -0.2212610
units angstrom
no_reorient  #important for SAPT in psi4, default
symmetry c1  #important for SAPT in psi4, default
}

set PROPERTIES_ORIGIN ["COM"]
properties('MP2/aug-cc-pvtz', properties = ['dipole'])
--------------------------------------------------------------------------

    Molecular point group: c1
  Charge       = 0
  Multiplicity = 1
  Basis Set: AUG-CC-PVTZ
    Blend: AUG-CC-PVTZ
  Basis Set: (AUG-CC-PVTZ AUX)
    Blend: AUG-CC-PVTZ-JKFIT

    Orbital Energies [Eh]
    ---------------------

    Doubly Occupied:

       1A    -15.630755     2A    -15.578683     3A    -15.565828
       4A    -15.556109     5A    -15.552608     6A    -11.331408
       7A    -11.322429     8A    -11.312757     9A    -11.309165
      10A    -11.288132    11A    -11.249823    12A     -1.368899
      13A     -1.298239    14A     -1.246142    15A     -1.195767
      16A     -1.155081    17A     -1.029778    18A     -0.985159
      19A     -0.891310    20A     -0.876514    21A     -0.802062
      22A     -0.754866    23A     -0.723963    24A     -0.681167
      25A     -0.675644    26A     -0.666957    27A     -0.624920
      28A     -0.605102    29A     -0.598872    30A     -0.593007
      31A     -0.572692    32A     -0.535643    33A     -0.498552
      34A     -0.492506    35A     -0.450244    36A     -0.413480
      37A     -0.404681    38A     -0.370391    39A     -0.303952

  @DF-RHF Final Energy:  -503.72443266075032

   => Energetics <=

    Nuclear Repulsion Energy =            595.6415715899793213
    One-Electron Energy =               -1865.7054356454268600
    Two-Electron Energy =                 766.3394313946971579
    Total Energy =                       -503.7244326607503808
  Basis Set: (AUG-CC-PVTZ AUX)
    Blend: AUG-CC-PVTZ-RI
    Molecular point group: c1

    Geometry (in Angstrom), charge = 0, multiplicity = 1:

       Center              X                  Y                   Z               Mass
    ------------   -----------------  -----------------  -----------------  -----------------
         N           -1.823874295246    -0.158151061957    -0.003144081252    14.003074004430
         N           -0.305894295246    -1.846034061957    -0.011255081252    14.003074004430
         N           -0.294046695246     1.707285938043    -0.001978981252    14.003074004430
         N            2.018663704754     1.039805938043    -0.010907081252    14.003074004430
         N            2.692246704754    -1.193093061957     0.075586918748    14.003074004430
         C           -0.583346295246     0.439527938043     0.001767918748    12.000000000000
         C            0.332057704754    -0.622132061957     0.005177918748    12.000000000000
         C           -1.591501295246    -1.512120061957    -0.009340081252    12.000000000000
         C            1.691194704754    -0.261692061957    -0.001545081252    12.000000000000
         C           -3.100038295246     0.536475938043    -0.000167081252    12.000000000000
         C            1.023312704754     1.954249938043    -0.012175081252    12.000000000000
         H           -2.413205295246    -2.219958061957    -0.015690081252     1.007825032230
         H           -3.180067295246     1.172965938043    -0.883135081252     1.007825032230
         H           -3.897186295246    -0.208155061957    -0.009732081252     1.007825032230
         H           -3.185767295246     1.155952938043     0.894362918748     1.007825032230
         H            1.383952704754     2.980858438043    -0.016187281252     1.007825032230
         H            3.601890704754    -0.859429061957    -0.222584081252     1.007825032230
         H            2.444915704754    -2.129122061957    -0.224294081252     1.007825032230

  Basis Set: AUG-CC-PVTZ
    Blend: AUG-CC-PVTZ
  Basis Set: (AUG-CC-PVTZ AUX)
    Blend: AUG-CC-PVTZ-JKFIT
	 Reference Energy          =    -503.7244326607503240 [Eh]
	 Singles Energy            =      -0.0000000000000000 [Eh]
	 Same-Spin Energy          =      -0.5493352422821584 [Eh]
	 Opposite-Spin Energy      =      -1.6322988751577738 [Eh]
	 Correlation Energy        =      -2.1816341174399323 [Eh]
	 Total Energy              =    -505.9060667781902794 [Eh]

	 ================> DF-SCS-MP2 Energies <==================
	-----------------------------------------------------------
	 SCS Same-Spin Scale       =       0.3333333333333333 [-]
	 SCS Opposite-Spin Scale   =       1.2000000000000000 [-]
	 SCS Same-Spin Energy      =      -0.1831117474273861 [Eh]
	 SCS Opposite-Spin Energy  =      -1.9587586501893286 [Eh]
	 SCS Correlation Energy    =      -2.1418703976167146 [Eh]
	 SCS Total Energy          =    -505.8663030583670661 [Eh]
	-----------------------------------------------------------

  Dipole Moment: [D]
     X:    -2.7482      Y:    -1.0205      Z:    -0.7902     Total:     3.0362

*** Psi4 exiting successfully. Buy a developer a beer!
