                               Psi4 1.4a3.dev225

  ==> Input File <==

--------------------------------------------------------------------------
#psi4
#
memory 32 gb

molecule  {
0 1
  N       -1.7889380    -0.1640290    -0.0179520
  N       -0.2703210    -1.8482040    -0.0023970
  N       -0.2671710     1.7490810    -0.0033560
  N        2.0541740     1.0368940    -0.0085470
  N        2.7206340    -1.1973270     0.0732090
  C       -0.5486140     0.4351420     0.0045870
  C        0.3324140    -0.5868864     0.0165468
  C       -1.5569260    -1.5161270    -0.0162740
  C        1.7266360    -0.2641570     0.0048060
  C       -3.0641060     0.5324820     0.0177850
  C        1.0564750     1.9508360    -0.0110870
  H       -2.3762040    -2.2259510    -0.0342240
  H       -2.9284720     1.5041700    -0.4579320
  H       -3.8067760    -0.0485880    -0.5312030
  H       -3.3972360     0.6796990     1.0480130
  H        1.3812150     2.9891510    -0.0228070
  H        3.6427950    -0.8729100    -0.1905990
  H        2.4748820    -2.1409930    -0.1987870
units angstrom
no_reorient  #important for SAPT in psi4, default
symmetry c1  #important for SAPT in psi4, default
}

set PROPERTIES_ORIGIN ["COM"]
properties('MP2/aug-cc-pvtz', properties = ['dipole'])
--------------------------------------------------------------------------

    Molecular point group: c1
  Charge       = 0
  Multiplicity = 1
  Basis Set: AUG-CC-PVTZ
    Blend: AUG-CC-PVTZ
  Basis Set: (AUG-CC-PVTZ AUX)
    Blend: AUG-CC-PVTZ-JKFIT

    Orbital Energies [Eh]
    ---------------------

    Doubly Occupied:

       1A    -15.628783     2A    -15.585439     3A    -15.566770
       4A    -15.558520     5A    -15.551113     6A    -11.339042
       7A    -11.320007     8A    -11.311242     9A    -11.305413
      10A    -11.285415    11A    -11.248146    12A     -1.368499
      13A     -1.296394    14A     -1.242313    15A     -1.193294
      16A     -1.152203    17A     -1.035301    18A     -0.982116
      19A     -0.889496    20A     -0.868651    21A     -0.808184
      22A     -0.754742    23A     -0.722587    24A     -0.681887
      25A     -0.672188    26A     -0.666122    27A     -0.624648
      28A     -0.606710    29A     -0.594582    30A     -0.590251
      31A     -0.570280    32A     -0.537058    33A     -0.494587
      34A     -0.490250    35A     -0.450911    36A     -0.412671
      37A     -0.407425    38A     -0.368798    39A     -0.311273

  @DF-RHF Final Energy:  -503.72306110437762

   => Energetics <=

    Nuclear Repulsion Energy =            595.0814871174537757
    One-Electron Energy =               -1864.6224767935548243
    Two-Electron Energy =                 765.8179285717235416
    Total Energy =                       -503.7230611043776207
  Basis Set: (AUG-CC-PVTZ AUX)
    Blend: AUG-CC-PVTZ-RI
    Molecular point group: c1

    Geometry (in Angstrom), charge = 0, multiplicity = 1:

       Center              X                  Y                   Z               Mass
    ------------   -----------------  -----------------  -----------------  -----------------
         N           -1.819704512651    -0.167836991976    -0.020496560456    14.003074004430
         N           -0.301087512651    -1.852011991976    -0.004941560456    14.003074004430
         N           -0.297937512651     1.745273008024    -0.005900560456    14.003074004430
         N            2.023407487349     1.033086008024    -0.011091560456    14.003074004430
         N            2.689867487349    -1.201134991976     0.070664439544    14.003074004430
         C           -0.579380512651     0.431334008024     0.002042439544    12.000000000000
         C            0.301647487349    -0.590694391976     0.014002239544    12.000000000000
         C           -1.587692512651    -1.519934991976    -0.018818560456    12.000000000000
         C            1.695869487349    -0.267964991976     0.002261439544    12.000000000000
         C           -3.094872512651     0.528674008024     0.015240439544    12.000000000000
         C            1.025708487349     1.947028008024    -0.013631560456    12.000000000000
         H           -2.406970512651    -2.229758991976    -0.036768560456     1.007825032230
         H           -2.959238512651     1.500362008024    -0.460476560456     1.007825032230
         H           -3.837542512651    -0.052395991976    -0.533747560456     1.007825032230
         H           -3.428002512651     0.675891008024     1.045468439544     1.007825032230
         H            1.350448487349     2.985343008024    -0.025351560456     1.007825032230
         H            3.612028487349    -0.876717991976    -0.193143560456     1.007825032230
         H            2.444115487349    -2.144800991976    -0.201331560456     1.007825032230

  Basis Set: AUG-CC-PVTZ
    Blend: AUG-CC-PVTZ
  Basis Set: (AUG-CC-PVTZ AUX)
    Blend: AUG-CC-PVTZ-JKFIT
	 Reference Energy          =    -503.7230611043776207 [Eh]
	 Singles Energy            =      -0.0000000000000000 [Eh]
	 Same-Spin Energy          =      -0.5485516008495730 [Eh]
	 Opposite-Spin Energy      =      -1.6323603106314093 [Eh]
	 Correlation Energy        =      -2.1809119114809823 [Eh]
	 Total Energy              =    -505.9039730158585826 [Eh]

	 ================> DF-SCS-MP2 Energies <==================
	-----------------------------------------------------------
	 SCS Same-Spin Scale       =       0.3333333333333333 [-]
	 SCS Opposite-Spin Scale   =       1.2000000000000000 [-]
	 SCS Same-Spin Energy      =      -0.1828505336165243 [Eh]
	 SCS Opposite-Spin Energy  =      -1.9588323727576911 [Eh]
	 SCS Correlation Energy    =      -2.1416829063742155 [Eh]
	 SCS Total Energy          =    -505.8647440107518491 [Eh]
	-----------------------------------------------------------

  Dipole Moment: [D]
     X:    -2.4940      Y:    -1.2268      Z:    -0.7124     Total:     2.8692

*** Psi4 exiting successfully. Buy a developer a beer!
