                               Psi4 1.3.2 release

  ==> Input File <==

--------------------------------------------------------------------------
#psi4
#
memory 32 gb

molecule  {
0 1
  N       -1.7893040    -0.1617730    -0.0001110
  N       -0.2713240    -1.8496560    -0.0082220
  N       -0.2672930     1.7497910     0.0010540
  N        2.0532340     1.0361840    -0.0078740
  N        2.7268170    -1.1967150     0.0786200
  C       -0.5487760     0.4359060     0.0048010
  C        0.3666280    -0.6257540     0.0082110
  C       -1.5569310    -1.5157420    -0.0063070
  C        1.7257650    -0.2653140     0.0014880
  C       -3.2411313     0.6284690     0.0032758
  C        1.0578830     1.9506280    -0.0091420
  H       -2.3786350    -2.2235800    -0.0126570
  H       -3.1454970     1.1693440    -0.8801020
  H       -3.8626160    -0.2117770    -0.0066990
  H       -3.1511970     1.1523310     0.8973960
  H        1.3824760     2.9891980    -0.0128990
  H        3.6364610    -0.8630510    -0.2195510
  H        2.4794860    -2.1327440    -0.2212610
units angstrom
no_reorient  #important for SAPT in psi4, default
symmetry c1  #important for SAPT in psi4, default
}

set PROPERTIES_ORIGIN ["COM"]
properties('MP2/aug-cc-pvtz', properties = ['dipole'])
--------------------------------------------------------------------------

    Molecular point group: c1
  Charge       = 0
  Multiplicity = 1
  Basis Set: AUG-CC-PVTZ
    Blend: AUG-CC-PVTZ
  Basis Set: (AUG-CC-PVTZ AUX)
    Blend: AUG-CC-PVTZ-JKFIT

    Orbital Energies [Eh]
    ---------------------

    Doubly Occupied:

       1A    -15.622996     2A    -15.577061     3A    -15.559853
       4A    -15.555983     5A    -15.547695     6A    -11.329677
       7A    -11.315052     8A    -11.307158     9A    -11.306074
      10A    -11.302368    11A    -11.245680    12A     -1.351487
      13A     -1.288679    14A     -1.236933    15A     -1.174758
      16A     -1.144284    17A     -1.024756    18A     -0.995567
      19A     -0.883410    20A     -0.865031    21A     -0.794982
      22A     -0.745568    23A     -0.712331    24A     -0.670311
      25A     -0.668786    26A     -0.663812    27A     -0.630464
      28A     -0.613483    29A     -0.608734    30A     -0.588614
      31A     -0.556363    32A     -0.540968    33A     -0.491248
      34A     -0.484123    35A     -0.444747    36A     -0.410890
      37A     -0.403915    38A     -0.363001    39A     -0.302217

  @DF-RHF Final Energy:  -503.69719555250322

   => Energetics <=

    Nuclear Repulsion Energy =            590.3891153618412773
    One-Electron Energy =               -1855.5145019868145937
    Two-Electron Energy =                 761.4281910724700992
    Total Energy =                       -503.6971955525032172
  Basis Set: (AUG-CC-PVTZ AUX)
    Blend: AUG-CC-PVTZ-RI
    Molecular point group: c1

    Geometry (in Angstrom), charge = 0, multiplicity = 1:

       Center              X                  Y                   Z               Mass
    ------------   -----------------  -----------------  -----------------  -----------------
         N           -1.808755606702    -0.170261836322    -0.003178785697    14.003074004430
         N           -0.290775606702    -1.858144836322    -0.011289785697    14.003074004430
         N           -0.286744606702     1.741302163678    -0.002013785697    14.003074004430
         N            2.033782393298     1.027695163678    -0.010941785697    14.003074004430
         N            2.707365393298    -1.205203836322     0.075552214303    14.003074004430
         C           -0.568227606702     0.427417163678     0.001733214303    12.000000000000
         C            0.347176393298    -0.634242836322     0.005143214303    12.000000000000
         C           -1.576382606702    -1.524230836322    -0.009374785697    12.000000000000
         C            1.706313393298    -0.273802836322    -0.001579785697    12.000000000000
         C           -3.260582906702     0.619980163678     0.000208014303    12.000000000000
         C            1.038431393298     1.942139163678    -0.012209785697    12.000000000000
         H           -2.398086606702    -2.232068836322    -0.015724785697     1.007825032230
         H           -3.164948606702     1.160855163678    -0.883169785697     1.007825032230
         H           -3.882067606702    -0.220265836322    -0.009766785697     1.007825032230
         H           -3.170648606702     1.143842163678     0.894328214303     1.007825032230
         H            1.363024393298     2.980709163678    -0.015966785697     1.007825032230
         H            3.617009393298    -0.871539836322    -0.222618785697     1.007825032230
         H            2.460034393298    -2.141232836322    -0.224328785697     1.007825032230

  Basis Set: AUG-CC-PVTZ
    Blend: AUG-CC-PVTZ
  Basis Set: (AUG-CC-PVTZ AUX)
    Blend: AUG-CC-PVTZ-JKFIT
	 Reference Energy          =    -503.6971955525032172 [Eh]
	 Singles Energy            =      -0.0000000000000000 [Eh]
	 Same-Spin Energy          =      -0.5493665443446958 [Eh]
	 Opposite-Spin Energy      =      -1.6348493089849734 [Eh]
	 Correlation Energy        =      -2.1842158533296692 [Eh]
	 Total Energy              =    -505.8814114058328641 [Eh]

	 ================> DF-SCS-MP2 Energies <==================
	-----------------------------------------------------------
	 SCS Same-Spin Scale       =       0.3333333333333333 [-]
	 SCS Opposite-Spin Scale   =       1.2000000000000000 [-]
	 SCS Same-Spin Energy      =      -0.1831221814482319 [Eh]
	 SCS Opposite-Spin Energy  =      -1.9618191707819679 [Eh]
	 SCS Correlation Energy    =      -2.1449413522301999 [Eh]
	 SCS Total Energy          =    -505.8421369047334224 [Eh]
	-----------------------------------------------------------

  Dipole Moment: [D]
     X:    -3.3419      Y:    -0.9276      Z:    -0.7871     Total:     3.5564

*** Psi4 exiting successfully. Buy a developer a beer!
