                               Psi4 1.3.2 release

  ==> Input File <==

--------------------------------------------------------------------------
#psi4
#
memory 32 gb

molecule  {
0 1
  N       -1.7893040    -0.1617730    -0.0001110
  N       -0.2713240    -1.8496560    -0.0082220
  N       -0.2672930     1.7497910     0.0010540
  N        2.0532340     1.0361840    -0.0078740
  N        2.7268170    -1.1967150     0.0786200
  C       -0.5487760     0.4359060     0.0048010
  C        0.3666280    -0.6257540     0.0082110
  C       -1.5569310    -1.5157420    -0.0063070
  C        1.7257650    -0.2653140     0.0014880
  C       -3.0654680     0.5328540     0.0028660
  C        1.2556192     1.9805959    -0.0106634
  H       -2.3786350    -2.2235800    -0.0126570
  H       -3.1454970     1.1693440    -0.8801020
  H       -3.8626160    -0.2117770    -0.0066990
  H       -3.1511970     1.1523310     0.8973960
  H        1.3824760     2.9891980    -0.0128990
  H        3.6364610    -0.8630510    -0.2195510
  H        2.4794860    -2.1327440    -0.2212610
units angstrom
no_reorient  #important for SAPT in psi4, default
symmetry c1  #important for SAPT in psi4, default
}

set PROPERTIES_ORIGIN ["COM"]
properties('MP2/aug-cc-pvtz', properties = ['dipole'])
--------------------------------------------------------------------------

    Molecular point group: c1
  Charge       = 0
  Multiplicity = 1
  Basis Set: AUG-CC-PVTZ
    Blend: AUG-CC-PVTZ
  Basis Set: (AUG-CC-PVTZ AUX)
    Blend: AUG-CC-PVTZ-JKFIT

    Orbital Energies [Eh]
    ---------------------

    Doubly Occupied:

       1A    -15.625230     2A    -15.583093     3A    -15.563628
       4A    -15.559817     5A    -15.551747     6A    -11.339142
       7A    -11.325454     8A    -11.314425     9A    -11.308586
      10A    -11.283993    11A    -11.249706    12A     -1.363380
      13A     -1.308975    14A     -1.226270    15A     -1.195539
      16A     -1.144894    17A     -1.024052    18A     -0.982584
      19A     -0.909137    20A     -0.865975    21A     -0.799336
      22A     -0.756651    23A     -0.727250    24A     -0.686120
      25A     -0.673184    26A     -0.661258    27A     -0.630271
      28A     -0.609785    29A     -0.595067    30A     -0.585340
      31A     -0.570287    32A     -0.541154    33A     -0.494283
      34A     -0.481417    35A     -0.450813    36A     -0.417579
      37A     -0.384052    38A     -0.378472    39A     -0.289602

  @DF-RHF Final Energy:  -503.68209232821255

   => Energetics <=

    Nuclear Repulsion Energy =            592.4356618600384081
    One-Electron Energy =               -1859.3204128944937565
    Two-Electron Energy =                 763.2026587062428007
    Total Energy =                       -503.6820923282125477
  Basis Set: (AUG-CC-PVTZ AUX)
    Blend: AUG-CC-PVTZ-RI
    Molecular point group: c1

    Geometry (in Angstrom), charge = 0, multiplicity = 1:

       Center              X                  Y                   Z               Mass
    ------------   -----------------  -----------------  -----------------  -----------------
         N           -1.838813899009    -0.164977309372    -0.003023325997    14.003074004430
         N           -0.320833899009    -1.852860309372    -0.011134325997    14.003074004430
         N           -0.316802899009     1.746586690628    -0.001858325997    14.003074004430
         N            2.003724100991     1.032979690628    -0.010786325997    14.003074004430
         N            2.677307100991    -1.199919309372     0.075707674003    14.003074004430
         C           -0.598285899009     0.432701690628     0.001888674003    12.000000000000
         C            0.317118100991    -0.628958309372     0.005298674003    12.000000000000
         C           -1.606440899009    -1.518946309372    -0.009219325997    12.000000000000
         C            1.676255100991    -0.268518309372    -0.001424325997    12.000000000000
         C           -3.114977899009     0.529649690628    -0.000046325997    12.000000000000
         C            1.206109300991     1.977391590628    -0.013575725997    12.000000000000
         H           -2.428144899009    -2.226784309372    -0.015569325997     1.007825032230
         H           -3.195006899009     1.166139690628    -0.883014325997     1.007825032230
         H           -3.912125899009    -0.214981309372    -0.009611325997     1.007825032230
         H           -3.200706899009     1.149126690628     0.894483674003     1.007825032230
         H            1.332966100991     2.985993690628    -0.015811325997     1.007825032230
         H            3.586951100991    -0.866255309372    -0.222463325997     1.007825032230
         H            2.429976100991    -2.135948309372    -0.224173325997     1.007825032230

  Basis Set: AUG-CC-PVTZ
    Blend: AUG-CC-PVTZ
  Basis Set: (AUG-CC-PVTZ AUX)
    Blend: AUG-CC-PVTZ-JKFIT
	 Reference Energy          =    -503.6820923282125477 [Eh]
	 Singles Energy            =      -0.0000000000000000 [Eh]
	 Same-Spin Energy          =      -0.5503853052408345 [Eh]
	 Opposite-Spin Energy      =      -1.6372231176008760 [Eh]
	 Correlation Energy        =      -2.1876084228417105 [Eh]
	 Total Energy              =    -505.8697007510542676 [Eh]

	 ================> DF-SCS-MP2 Energies <==================
	-----------------------------------------------------------
	 SCS Same-Spin Scale       =       0.3333333333333333 [-]
	 SCS Opposite-Spin Scale   =       1.2000000000000000 [-]
	 SCS Same-Spin Energy      =      -0.1834617684136115 [Eh]
	 SCS Opposite-Spin Energy  =      -1.9646677411210511 [Eh]
	 SCS Correlation Energy    =      -2.1481295095346624 [Eh]
	 SCS Total Energy          =    -505.8302218377472173 [Eh]
	-----------------------------------------------------------

  Dipole Moment: [D]
     X:    -2.0728      Y:    -1.1084      Z:    -0.7932     Total:     2.4807

*** Psi4 exiting successfully. Buy a developer a beer!
