                               Psi4 1.3.2 release

  ==> Input File <==

--------------------------------------------------------------------------
#psi4
#
memory 32 gb

molecule  {
0 1
  N       -1.7893040    -0.1617730    -0.0001110
  N       -0.2713240    -1.8496560    -0.0082220
  N       -0.2787694     1.7521973     0.0010431
  N        2.0532340     1.0361840    -0.0078740
  N        2.7268170    -1.1967150     0.0786200
  C       -0.5487760     0.4359060     0.0048010
  C        0.3573285    -0.6337019     0.0082311
  C       -1.5569310    -1.5157420    -0.0063070
  C        1.7257650    -0.2653140     0.0014880
  C       -3.0654680     0.5328540     0.0028660
  C        1.0578830     1.9506280    -0.0091420
  H       -2.3786350    -2.2235800    -0.0126570
  H       -3.1454970     1.1693440    -0.8801020
  H       -3.8626160    -0.2117770    -0.0066990
  H       -3.1511970     1.1523310     0.8973960
  H        1.3824760     2.9891980    -0.0128990
  H        3.6364610    -0.8630510    -0.2195510
  H        2.4794860    -2.1327440    -0.2212610
units angstrom
no_reorient  #important for SAPT in psi4, default
symmetry c1  #important for SAPT in psi4, default
}

set PROPERTIES_ORIGIN ["COM"]
properties('MP2/aug-cc-pvtz', properties = ['dipole'])
--------------------------------------------------------------------------

    Molecular point group: c1
  Charge       = 0
  Multiplicity = 1
  Basis Set: AUG-CC-PVTZ
    Blend: AUG-CC-PVTZ
  Basis Set: (AUG-CC-PVTZ AUX)
    Blend: AUG-CC-PVTZ-JKFIT

    Orbital Energies [Eh]
    ---------------------

    Doubly Occupied:

       1A    -15.632472     2A    -15.581785     3A    -15.566883
       4A    -15.561804     5A    -15.553640     6A    -11.336151
       7A    -11.321932     8A    -11.313365     9A    -11.311759
      10A    -11.288183    11A    -11.252367    12A     -1.368389
      13A     -1.295194    14A     -1.241704    15A     -1.198511
      16A     -1.152187    17A     -1.029451    18A     -0.985796
      19A     -0.890583    20A     -0.870899    21A     -0.802420
      22A     -0.752816    23A     -0.725197    24A     -0.680369
      25A     -0.672880    26A     -0.666071    27A     -0.624732
      28A     -0.604882    29A     -0.595918    30A     -0.590243
      31A     -0.570827    32A     -0.537039    33A     -0.494765
      34A     -0.493761    35A     -0.452852    36A     -0.414965
      37A     -0.408964    38A     -0.369254    39A     -0.305352

  @DF-RHF Final Energy:  -503.72354443597072

   => Energetics <=

    Nuclear Repulsion Energy =            594.1270627374042306
    One-Electron Energy =               -1862.6684945418003281
    Two-Electron Energy =                 764.8178873684253176
    Total Energy =                       -503.7235444359707799
  Basis Set: (AUG-CC-PVTZ AUX)
    Blend: AUG-CC-PVTZ-RI
    Molecular point group: c1

    Geometry (in Angstrom), charge = 0, multiplicity = 1:

       Center              X                  Y                   Z               Mass
    ------------   -----------------  -----------------  -----------------  -----------------
         N           -1.821069680177    -0.162151163317    -0.003146391326    14.003074004430
         N           -0.303089680177    -1.850034163317    -0.011257391326    14.003074004430
         N           -0.310535080177     1.751819136683    -0.001992291326    14.003074004430
         N            2.021468319823     1.035805836683    -0.010909391326    14.003074004430
         N            2.695051319823    -1.197093163317     0.075584608674    14.003074004430
         C           -0.580541680177     0.435527836683     0.001765608674    12.000000000000
         C            0.325562819823    -0.634080063317     0.005195708674    12.000000000000
         C           -1.588696680177    -1.516120163317    -0.009342391326    12.000000000000
         C            1.693999319823    -0.265692163317    -0.001547391326    12.000000000000
         C           -3.097233680177     0.532475836683    -0.000169391326    12.000000000000
         C            1.026117319823     1.950249836683    -0.012177391326    12.000000000000
         H           -2.410400680177    -2.223958163317    -0.015692391326     1.007825032230
         H           -3.177262680177     1.168965836683    -0.883137391326     1.007825032230
         H           -3.894381680177    -0.212155163317    -0.009734391326     1.007825032230
         H           -3.182962680177     1.151952836683     0.894360608674     1.007825032230
         H            1.350710319823     2.988819836683    -0.015934391326     1.007825032230
         H            3.604695319823    -0.863429163317    -0.222586391326     1.007825032230
         H            2.447720319823    -2.133122163317    -0.224296391326     1.007825032230

  Basis Set: AUG-CC-PVTZ
    Blend: AUG-CC-PVTZ
  Basis Set: (AUG-CC-PVTZ AUX)
    Blend: AUG-CC-PVTZ-JKFIT
	 Reference Energy          =    -503.7235444359707230 [Eh]
	 Singles Energy            =      -0.0000000000000000 [Eh]
	 Same-Spin Energy          =      -0.5495696728542034 [Eh]
	 Opposite-Spin Energy      =      -1.6336137295105426 [Eh]
	 Correlation Energy        =      -2.1831834023647461 [Eh]
	 Total Energy              =    -505.9067278383354846 [Eh]

	 ================> DF-SCS-MP2 Energies <==================
	-----------------------------------------------------------
	 SCS Same-Spin Scale       =       0.3333333333333333 [-]
	 SCS Opposite-Spin Scale   =       1.2000000000000000 [-]
	 SCS Same-Spin Energy      =      -0.1831898909514011 [Eh]
	 SCS Opposite-Spin Energy  =      -1.9603364754126511 [Eh]
	 SCS Correlation Energy    =      -2.1435263663640525 [Eh]
	 SCS Total Energy          =    -505.8670708023347515 [Eh]
	-----------------------------------------------------------

  Dipole Moment: [D]
     X:    -2.6893      Y:    -1.1843      Z:    -0.7881     Total:     3.0424

*** Psi4 exiting successfully. Buy a developer a beer!
