                               Psi4 1.4a3.dev225

  ==> Input File <==

--------------------------------------------------------------------------
#psi4
#
memory 32 gb

molecule  {
0 1
  N       -1.7889380    -0.1640290    -0.0179520
  N       -0.2703210    -1.8482040    -0.0023970
  N       -0.2671710     1.7490810    -0.0033560
  N        2.0541740     1.0368940    -0.0085470
  N        2.7206340    -1.1973270     0.0732090
  C       -0.5486140     0.4351420     0.0045870
  C        0.3650590    -0.6247560     0.0169900
  C       -1.5569260    -1.5161270    -0.0162740
  C        1.7266360    -0.2641570     0.0048060
  C       -3.0641060     0.5324820     0.0177850
  C        1.0564750     1.9508360    -0.0110870
  H       -2.3762040    -2.2259510    -0.0342240
  H       -2.9284720     1.5041700    -0.4579320
  H       -3.7931633    -0.0379373    -0.5211404
  H       -3.3972360     0.6796990     1.0480130
  H        1.3812150     2.9891510    -0.0228070
  H        3.6427950    -0.8729100    -0.1905990
  H        2.4748820    -2.1409930    -0.1987870
units angstrom
no_reorient  #important for SAPT in psi4, default
symmetry c1  #important for SAPT in psi4, default
}

set PROPERTIES_ORIGIN ["COM"]
properties('MP2/aug-cc-pvtz', properties = ['dipole'])
--------------------------------------------------------------------------

    Molecular point group: c1
  Charge       = 0
  Multiplicity = 1
  Basis Set: AUG-CC-PVTZ
    Blend: AUG-CC-PVTZ
  Basis Set: (AUG-CC-PVTZ AUX)
    Blend: AUG-CC-PVTZ-JKFIT

    Orbital Energies [Eh]
    ---------------------

    Doubly Occupied:

       1A    -15.631929     2A    -15.581353     3A    -15.567236
       4A    -15.559794     5A    -15.551518     6A    -11.334757
       7A    -11.320828     8A    -11.312380     9A    -11.311353
      10A    -11.284684    11A    -11.250673    12A     -1.367554
      13A     -1.296020    14A     -1.242723    15A     -1.196586
      16A     -1.151727    17A     -1.030803    18A     -0.986823
      19A     -0.890373    20A     -0.871908    21A     -0.803343
      22A     -0.754129    23A     -0.724672    24A     -0.682015
      25A     -0.673760    26A     -0.666625    27A     -0.624848
      28A     -0.606160    29A     -0.595000    30A     -0.593558
      31A     -0.572844    32A     -0.536903    33A     -0.495498
      34A     -0.491146    35A     -0.450278    36A     -0.414063
      37A     -0.408033    38A     -0.367489    39A     -0.306782

  @DF-RHF Final Energy:  -503.72505819375885

   => Energetics <=

    Nuclear Repulsion Energy =            594.7011301490800861
    One-Electron Energy =               -1863.8360466352446565
    Two-Electron Energy =                 765.4098582924056018
    Total Energy =                       -503.7250581937588549
  Basis Set: (AUG-CC-PVTZ AUX)
    Blend: AUG-CC-PVTZ-RI
    Molecular point group: c1

    Geometry (in Angstrom), charge = 0, multiplicity = 1:

       Center              X                  Y                   Z               Mass
    ------------   -----------------  -----------------  -----------------  -----------------
         N           -1.822424435001    -0.164860533094    -0.020600268279    14.003074004430
         N           -0.303807435001    -1.849035533094    -0.005045268279    14.003074004430
         N           -0.300657435001     1.748249466906    -0.006004268279    14.003074004430
         N            2.020687564999     1.036062466906    -0.011195268279    14.003074004430
         N            2.687147564999    -1.198158533094     0.070560731721    14.003074004430
         C           -0.582100435001     0.434310466906     0.001938731721    12.000000000000
         C            0.331572564999    -0.625587533094     0.014341731721    12.000000000000
         C           -1.590412435001    -1.516958533094    -0.018922268279    12.000000000000
         C            1.693149564999    -0.264988533094     0.002157731721    12.000000000000
         C           -3.097592435001     0.531650466906     0.015136731721    12.000000000000
         C            1.022988564999     1.950004466906    -0.013735268279    12.000000000000
         H           -2.409690435001    -2.226782533094    -0.036872268279     1.007825032230
         H           -2.961958435001     1.503338466906    -0.460580268279     1.007825032230
         H           -3.826649735001    -0.038768833094    -0.523788668279     1.007825032230
         H           -3.430722435001     0.678867466906     1.045364731721     1.007825032230
         H            1.347728564999     2.988319466906    -0.025455268279     1.007825032230
         H            3.609308564999    -0.873741533094    -0.193247268279     1.007825032230
         H            2.441395564999    -2.141824533094    -0.201435268279     1.007825032230

  Basis Set: AUG-CC-PVTZ
    Blend: AUG-CC-PVTZ
  Basis Set: (AUG-CC-PVTZ AUX)
    Blend: AUG-CC-PVTZ-JKFIT
	 Reference Energy          =    -503.7250581937588549 [Eh]
	 Singles Energy            =      -0.0000000000000000 [Eh]
	 Same-Spin Energy          =      -0.5493126520200537 [Eh]
	 Opposite-Spin Energy      =      -1.6327744122837549 [Eh]
	 Correlation Energy        =      -2.1820870643038086 [Eh]
	 Total Energy              =    -505.9071452580626556 [Eh]

	 ================> DF-SCS-MP2 Energies <==================
	-----------------------------------------------------------
	 SCS Same-Spin Scale       =       0.3333333333333333 [-]
	 SCS Opposite-Spin Scale   =       1.2000000000000000 [-]
	 SCS Same-Spin Energy      =      -0.1831042173400179 [Eh]
	 SCS Opposite-Spin Energy  =      -1.9593292947405057 [Eh]
	 SCS Correlation Energy    =      -2.1424335120805234 [Eh]
	 SCS Total Energy          =    -505.8674917058393703 [Eh]
	-----------------------------------------------------------

  Dipole Moment: [D]
     X:    -2.6475      Y:    -1.2048      Z:    -0.7150     Total:     2.9953

*** Psi4 exiting successfully. Buy a developer a beer!
