                               Psi4 1.3.2 release

  ==> Input File <==

--------------------------------------------------------------------------
#psi4
#
memory 32 gb

molecule  {
0 1
  N       -1.7893040    -0.1617730    -0.0001110
  N       -0.2713240    -1.8496560    -0.0082220
  N       -0.2672930     1.7497910     0.0010540
  N        2.0532340     1.0361840    -0.0078740
  N        2.7268170    -1.1967150     0.0786200
  C       -0.5487760     0.4359060     0.0048010
  C        0.3666280    -0.6257540     0.0082110
  C       -1.5569310    -1.5157420    -0.0063070
  C        1.7257650    -0.2653140     0.0014880
  C       -3.0654680     0.5328540     0.0028660
  C        1.0578830     1.9506280    -0.0091420
  H       -2.3786350    -2.2235800    -0.0126570
  H       -3.1454970     1.1693440    -0.8801020
  H       -3.7895419    -0.1435171    -0.0058222
  H       -3.1511970     1.1523310     0.8973960
  H        1.3824760     2.9891980    -0.0128990
  H        3.6364610    -0.8630510    -0.2195510
  H        2.4794860    -2.1327440    -0.2212610
units angstrom
no_reorient  #important for SAPT in psi4, default
symmetry c1  #important for SAPT in psi4, default
}

set PROPERTIES_ORIGIN ["COM"]
properties('MP2/aug-cc-pvtz', properties = ['dipole'])
--------------------------------------------------------------------------

    Molecular point group: c1
  Charge       = 0
  Multiplicity = 1
  Basis Set: AUG-CC-PVTZ
    Blend: AUG-CC-PVTZ
  Basis Set: (AUG-CC-PVTZ AUX)
    Blend: AUG-CC-PVTZ-JKFIT

    Orbital Energies [Eh]
    ---------------------

    Doubly Occupied:

       1A    -15.632390     2A    -15.580812     3A    -15.567219
       4A    -15.560353     5A    -15.552122     6A    -11.334282
       7A    -11.322430     8A    -11.312476     9A    -11.311299
      10A    -11.276766    11A    -11.251567    12A     -1.367561
      13A     -1.295975    14A     -1.241996    15A     -1.197357
      16A     -1.151803    17A     -1.032013    18A     -0.994958
      19A     -0.890540    20A     -0.871788    21A     -0.805687
      22A     -0.755023    23A     -0.723843    24A     -0.684286
      25A     -0.673317    26A     -0.665807    27A     -0.624359
      28A     -0.610543    29A     -0.601210    30A     -0.592081
      31A     -0.579025    32A     -0.536439    33A     -0.495314
      34A     -0.492482    35A     -0.450309    36A     -0.413893
      37A     -0.408286    38A     -0.368073    39A     -0.307546

  @DF-RHF Final Energy:  -503.71875904373798

   => Energetics <=

    Nuclear Repulsion Energy =            594.8286281197231347
    One-Electron Energy =               -1864.0283120586802852
    Two-Electron Energy =                 765.4809248952192320
    Total Energy =                       -503.7187590437379185
  Basis Set: (AUG-CC-PVTZ AUX)
    Blend: AUG-CC-PVTZ-RI
    Molecular point group: c1

    Geometry (in Angstrom), charge = 0, multiplicity = 1:

       Center              X                  Y                   Z               Mass
    ------------   -----------------  -----------------  -----------------  -----------------
         N           -1.823390364746    -0.163026410595    -0.003151725020    14.003074004430
         N           -0.305410364746    -1.850909410595    -0.011262725020    14.003074004430
         N           -0.301379364746     1.748537589405    -0.001986725020    14.003074004430
         N            2.019147635254     1.034930589405    -0.010914725020    14.003074004430
         N            2.692730635254    -1.197968410595     0.075579274980    14.003074004430
         C           -0.582862364746     0.434652589405     0.001760274980    12.000000000000
         C            0.332541635254    -0.627007410595     0.005170274980    12.000000000000
         C           -1.591017364746    -1.516995410595    -0.009347725020    12.000000000000
         C            1.691678635254    -0.266567410595    -0.001552725020    12.000000000000
         C           -3.099554364746     0.531600589405    -0.000174725020    12.000000000000
         C            1.023796635254     1.949374589405    -0.012182725020    12.000000000000
         H           -2.412721364746    -2.224833410595    -0.015697725020     1.007825032230
         H           -3.179583364746     1.168090589405    -0.883142725020     1.007825032230
         H           -3.823628264746    -0.144770510595    -0.008862925020     1.007825032230
         H           -3.185283364746     1.151077589405     0.894355274980     1.007825032230
         H            1.348389635254     2.987944589405    -0.015939725020     1.007825032230
         H            3.602374635254    -0.864304410595    -0.222591725020     1.007825032230
         H            2.445399635254    -2.133997410595    -0.224301725020     1.007825032230

  Basis Set: AUG-CC-PVTZ
    Blend: AUG-CC-PVTZ
  Basis Set: (AUG-CC-PVTZ AUX)
    Blend: AUG-CC-PVTZ-JKFIT
	 Reference Energy          =    -503.7187590437379754 [Eh]
	 Singles Energy            =      -0.0000000000000000 [Eh]
	 Same-Spin Energy          =      -0.5492531054175180 [Eh]
	 Opposite-Spin Energy      =      -1.6325686718465433 [Eh]
	 Correlation Energy        =      -2.1818217772640613 [Eh]
	 Total Energy              =    -505.9005808210020518 [Eh]

	 ================> DF-SCS-MP2 Energies <==================
	-----------------------------------------------------------
	 SCS Same-Spin Scale       =       0.3333333333333333 [-]
	 SCS Opposite-Spin Scale   =       1.2000000000000000 [-]
	 SCS Same-Spin Energy      =      -0.1830843684725060 [Eh]
	 SCS Opposite-Spin Energy  =      -1.9590824062158518 [Eh]
	 SCS Correlation Energy    =      -2.1421667746883579 [Eh]
	 SCS Total Energy          =    -505.8609258184263240 [Eh]
	-----------------------------------------------------------

  Dipole Moment: [D]
     X:    -2.7685      Y:    -1.1638      Z:    -0.7892     Total:     3.1051

*** Psi4 exiting successfully. Buy a developer a beer!
