                               Psi4 1.3.2 release

  ==> Input File <==

--------------------------------------------------------------------------
#psi4
#
memory 32 gb

molecule  {
0 1
  N       -1.7893040    -0.1617730    -0.0001110
  N       -0.2713240    -1.8496560    -0.0082220
  N       -0.2672930     1.7497910     0.0010540
  N        2.0532340     1.0361840    -0.0078740
  N        2.7268170    -1.1967150     0.0786200
  C       -0.5487760     0.4359060     0.0048010
  C        0.3666280    -0.6257540     0.0082110
  C       -1.5569310    -1.5157420    -0.0063070
  C        1.6580976    -0.2463903     0.0016657
  C       -3.0654680     0.5328540     0.0028660
  C        1.0113897     1.8972839    -0.0086150
  H       -2.3786350    -2.2235800    -0.0126570
  H       -3.1454970     1.1693440    -0.8801020
  H       -3.8626160    -0.2117770    -0.0066990
  H       -3.1511970     1.1523310     0.8973960
  H        1.3824760     2.9891980    -0.0128990
  H        3.6364610    -0.8630510    -0.2195510
  H        2.4794860    -2.1327440    -0.2212610
units angstrom
no_reorient  #important for SAPT in psi4, default
symmetry c1  #important for SAPT in psi4, default
}

set PROPERTIES_ORIGIN ["COM"]
properties('MP2/aug-cc-pvtz', properties = ['dipole'])
--------------------------------------------------------------------------

    Molecular point group: c1
  Charge       = 0
  Multiplicity = 1
  Basis Set: AUG-CC-PVTZ
    Blend: AUG-CC-PVTZ
  Basis Set: (AUG-CC-PVTZ AUX)
    Blend: AUG-CC-PVTZ-JKFIT

    Orbital Energies [Eh]
    ---------------------

    Doubly Occupied:

       1A    -15.638900     2A    -15.572397     3A    -15.570157
       4A    -15.564901     5A    -15.555337     6A    -11.328905
       7A    -11.328654     8A    -11.321864     9A    -11.310242
      10A    -11.293253    11A    -11.251726    12A     -1.376549
      13A     -1.306725    14A     -1.242588    15A     -1.197325
      16A     -1.150816    17A     -1.045251    18A     -0.992989
      19A     -0.898767    20A     -0.871584    21A     -0.805891
      22A     -0.756766    23A     -0.716178    24A     -0.680127
      25A     -0.673215    26A     -0.662724    27A     -0.619840
      28A     -0.613511    29A     -0.600824    30A     -0.588128
      31A     -0.570771    32A     -0.537262    33A     -0.497779
      34A     -0.488941    35A     -0.455953    36A     -0.424233
      37A     -0.412120    38A     -0.370921    39A     -0.321591

  @DF-RHF Final Energy:  -503.71142847238735

   => Energetics <=

    Nuclear Repulsion Energy =            596.6927688207572373
    One-Electron Energy =               -1867.5769801793207989
    Two-Electron Energy =                 767.1727828861762646
    Total Energy =                       -503.7114284723872970
  Basis Set: (AUG-CC-PVTZ AUX)
    Blend: AUG-CC-PVTZ-RI
    Molecular point group: c1

    Geometry (in Angstrom), charge = 0, multiplicity = 1:

       Center              X                  Y                   Z               Mass
    ------------   -----------------  -----------------  -----------------  -----------------
         N           -1.813706505481    -0.159794114584    -0.003202524857    14.003074004430
         N           -0.295726505481    -1.847677114584    -0.011313524857    14.003074004430
         N           -0.291695505481     1.751769885416    -0.002037524857    14.003074004430
         N            2.028831494519     1.038162885416    -0.010965524857    14.003074004430
         N            2.702414494519    -1.194736114584     0.075528475143    14.003074004430
         C           -0.573178505481     0.437884885416     0.001709475143    12.000000000000
         C            0.342225494519    -0.623775114584     0.005119475143    12.000000000000
         C           -1.581333505481    -1.513763114584    -0.009398524857    12.000000000000
         C            1.633695094519    -0.244411414584    -0.001425824857    12.000000000000
         C           -3.089870505481     0.534832885416    -0.000225524857    12.000000000000
         C            0.986987194519     1.899262785416    -0.011706524857    12.000000000000
         H           -2.403037505481    -2.221601114584    -0.015748524857     1.007825032230
         H           -3.169899505481     1.171322885416    -0.883193524857     1.007825032230
         H           -3.887018505481    -0.209798114584    -0.009790524857     1.007825032230
         H           -3.175599505481     1.154309885416     0.894304475143     1.007825032230
         H            1.358073494519     2.991176885416    -0.015990524857     1.007825032230
         H            3.612058494519    -0.861072114584    -0.222642524857     1.007825032230
         H            2.455083494519    -2.130765114584    -0.224352524857     1.007825032230

  Basis Set: AUG-CC-PVTZ
    Blend: AUG-CC-PVTZ
  Basis Set: (AUG-CC-PVTZ AUX)
    Blend: AUG-CC-PVTZ-JKFIT
	 Reference Energy          =    -503.7114284723873538 [Eh]
	 Singles Energy            =      -0.0000000000000000 [Eh]
	 Same-Spin Energy          =      -0.5488273515379215 [Eh]
	 Opposite-Spin Energy      =      -1.6328432560704749 [Eh]
	 Correlation Energy        =      -2.1816706076083965 [Eh]
	 Total Energy              =    -505.8930990799957499 [Eh]

	 ================> DF-SCS-MP2 Energies <==================
	-----------------------------------------------------------
	 SCS Same-Spin Scale       =       0.3333333333333333 [-]
	 SCS Opposite-Spin Scale   =       1.2000000000000000 [-]
	 SCS Same-Spin Energy      =      -0.1829424505126405 [Eh]
	 SCS Opposite-Spin Energy  =      -1.9594119072845697 [Eh]
	 SCS Correlation Energy    =      -2.1423543577972102 [Eh]
	 SCS Total Energy          =    -505.8537828301845707 [Eh]
	-----------------------------------------------------------

  Dipole Moment: [D]
     X:    -3.4013      Y:    -0.9988      Z:    -0.8023     Total:     3.6345

*** Psi4 exiting successfully. Buy a developer a beer!
