                               Psi4 1.3.2 release

  ==> Input File <==

--------------------------------------------------------------------------
#psi4
#
memory 32 gb

molecule  {
0 1
  N       -1.7181235    -0.1514671    -0.0000868
  N       -0.2556099    -1.7819156    -0.0079206
  N       -0.2672930     1.7497910     0.0010540
  N        2.0532340     1.0361840    -0.0078740
  N        2.7268170    -1.1967150     0.0786200
  C       -0.5487760     0.4359060     0.0048010
  C        0.3666280    -0.6257540     0.0082110
  C       -1.5569310    -1.5157420    -0.0063070
  C        1.7257650    -0.2653140     0.0014880
  C       -3.0654680     0.5328540     0.0028660
  C        1.0578830     1.9506280    -0.0091420
  H       -2.3786350    -2.2235800    -0.0126570
  H       -3.1454970     1.1693440    -0.8801020
  H       -3.8626160    -0.2117770    -0.0066990
  H       -3.1511970     1.1523310     0.8973960
  H        1.3824760     2.9891980    -0.0128990
  H        3.6364610    -0.8630510    -0.2195510
  H        2.4794860    -2.1327440    -0.2212610
units angstrom
no_reorient  #important for SAPT in psi4, default
symmetry c1  #important for SAPT in psi4, default
}

set PROPERTIES_ORIGIN ["COM"]
properties('MP2/aug-cc-pvtz', properties = ['dipole'])
--------------------------------------------------------------------------

    Molecular point group: c1
  Charge       = 0
  Multiplicity = 1
  Basis Set: AUG-CC-PVTZ
    Blend: AUG-CC-PVTZ
  Basis Set: (AUG-CC-PVTZ AUX)
    Blend: AUG-CC-PVTZ-JKFIT

    Orbital Energies [Eh]
    ---------------------

    Doubly Occupied:

       1A    -15.633022     2A    -15.580380     3A    -15.559934
       4A    -15.555214     5A    -15.548539     6A    -11.332866
       7A    -11.315063     8A    -11.308975     9A    -11.300669
      10A    -11.293770    11A    -11.242130    12A     -1.385100
      13A     -1.294156    14A     -1.243659    15A     -1.198769
      16A     -1.148134    17A     -1.032337    18A     -0.986096
      19A     -0.896389    20A     -0.868854    21A     -0.803635
      22A     -0.755558    23A     -0.730928    24A     -0.677457
      25A     -0.674856    26A     -0.668737    27A     -0.628367
      28A     -0.600746    29A     -0.595876    30A     -0.592743
      31A     -0.581037    32A     -0.540505    33A     -0.495181
      34A     -0.483673    35A     -0.449208    36A     -0.420608
      37A     -0.402464    38A     -0.363692    39A     -0.301901

  @DF-RHF Final Energy:  -503.71584327454923

   => Energetics <=

    Nuclear Repulsion Energy =            597.6655467997385358
    One-Electron Energy =               -1869.7803178340568593
    Two-Electron Energy =                 768.3989277597692080
    Total Energy =                       -503.7158432745492291
  Basis Set: (AUG-CC-PVTZ AUX)
    Blend: AUG-CC-PVTZ-RI
    Molecular point group: c1

    Geometry (in Angstrom), charge = 0, multiplicity = 1:

       Center              X                  Y                   Z               Mass
    ------------   -----------------  -----------------  -----------------  -----------------
         N           -1.759878372785    -0.159590391060    -0.003152182807    14.003074004430
         N           -0.297364772785    -1.790038891060    -0.010985982807    14.003074004430
         N           -0.309047872785     1.741667708940    -0.002011382807    14.003074004430
         N            2.011479127215     1.028060708940    -0.010939382807    14.003074004430
         N            2.685062127215    -1.204838291060     0.075554617193    14.003074004430
         C           -0.590530872785     0.427782708940     0.001735617193    12.000000000000
         C            0.324873127215    -0.633877291060     0.005145617193    12.000000000000
         C           -1.598685872785    -1.523865291060    -0.009372382807    12.000000000000
         C            1.684010127215    -0.273437291060    -0.001577382807    12.000000000000
         C           -3.107222872785     0.524730708940    -0.000199382807    12.000000000000
         C            1.016128127215     1.942504708940    -0.012207382807    12.000000000000
         H           -2.420389872785    -2.231703291060    -0.015722382807     1.007825032230
         H           -3.187251872785     1.161220708940    -0.883167382807     1.007825032230
         H           -3.904370872785    -0.219900291060    -0.009764382807     1.007825032230
         H           -3.192951872785     1.144207708940     0.894330617193     1.007825032230
         H            1.340721127215     2.981074708940    -0.015964382807     1.007825032230
         H            3.594706127215    -0.871174291060    -0.222616382807     1.007825032230
         H            2.437731127215    -2.140867291060    -0.224326382807     1.007825032230

  Basis Set: AUG-CC-PVTZ
    Blend: AUG-CC-PVTZ
  Basis Set: (AUG-CC-PVTZ AUX)
    Blend: AUG-CC-PVTZ-JKFIT
	 Reference Energy          =    -503.7158432745492291 [Eh]
	 Singles Energy            =      -0.0000000000000000 [Eh]
	 Same-Spin Energy          =      -0.5498959453698983 [Eh]
	 Opposite-Spin Energy      =      -1.6323958347955470 [Eh]
	 Correlation Energy        =      -2.1822917801654453 [Eh]
	 Total Energy              =    -505.8981350547146576 [Eh]

	 ================> DF-SCS-MP2 Energies <==================
	-----------------------------------------------------------
	 SCS Same-Spin Scale       =       0.3333333333333333 [-]
	 SCS Opposite-Spin Scale   =       1.2000000000000000 [-]
	 SCS Same-Spin Energy      =      -0.1832986484566327 [Eh]
	 SCS Opposite-Spin Energy  =      -1.9588750017546563 [Eh]
	 SCS Correlation Energy    =      -2.1421736502112889 [Eh]
	 SCS Total Energy          =    -505.8580169247605340 [Eh]
	-----------------------------------------------------------

  Dipole Moment: [D]
     X:    -3.0219      Y:    -1.3424      Z:    -0.7873     Total:     3.3991

*** Psi4 exiting successfully. Buy a developer a beer!
