                               Psi4 1.3.2 release

  ==> Input File <==

--------------------------------------------------------------------------
#psi4
#
memory 32 gb

molecule  {
0 1
  N       -1.7893040    -0.1617730    -0.0001110
  N       -0.2713240    -1.8496560    -0.0082220
  N       -0.3133186     1.7588141     0.0010122
  N        2.0532340     1.0361840    -0.0078740
  N        2.7268170    -1.1967150     0.0786200
  C       -0.5487760     0.4359060     0.0048010
  C        0.3290188    -0.6570543     0.0082899
  C       -1.5569310    -1.5157420    -0.0063070
  C        1.7257650    -0.2653140     0.0014880
  C       -3.0654680     0.5328540     0.0028660
  C        1.0578830     1.9506280    -0.0091420
  H       -2.3786350    -2.2235800    -0.0126570
  H       -3.1454970     1.1693440    -0.8801020
  H       -3.8626160    -0.2117770    -0.0066990
  H       -3.1511970     1.1523310     0.8973960
  H        1.3824760     2.9891980    -0.0128990
  H        3.6364610    -0.8630510    -0.2195510
  H        2.4794860    -2.1327440    -0.2212610
units angstrom
no_reorient  #important for SAPT in psi4, default
symmetry c1  #important for SAPT in psi4, default
}

set PROPERTIES_ORIGIN ["COM"]
properties('MP2/aug-cc-pvtz', properties = ['dipole'])
--------------------------------------------------------------------------

    Molecular point group: c1
  Charge       = 0
  Multiplicity = 1
  Basis Set: AUG-CC-PVTZ
    Blend: AUG-CC-PVTZ
  Basis Set: (AUG-CC-PVTZ AUX)
    Blend: AUG-CC-PVTZ-JKFIT

    Orbital Energies [Eh]
    ---------------------

    Doubly Occupied:

       1A    -15.630730     2A    -15.584124     3A    -15.565460
       4A    -15.564928     5A    -15.557357     6A    -11.340715
       7A    -11.320111     8A    -11.318537     9A    -11.308105
      10A    -11.286566    11A    -11.253917    12A     -1.370843
      13A     -1.292820    14A     -1.240756    15A     -1.203051
      16A     -1.152793    17A     -1.023921    18A     -0.985144
      19A     -0.890898    20A     -0.866563    21A     -0.801720
      22A     -0.750808    23A     -0.728492    24A     -0.679908
      25A     -0.671253    26A     -0.665259    27A     -0.624985
      28A     -0.601068    29A     -0.593604    30A     -0.585563
      31A     -0.567894    32A     -0.537957    33A     -0.497166
      34A     -0.492359    35A     -0.459777    36A     -0.417326
      37A     -0.409326    38A     -0.371682    39A     -0.298093

  @DF-RHF Final Energy:  -503.71511326662073

   => Energetics <=

    Nuclear Repulsion Energy =            593.5766670500214559
    One-Electron Energy =               -1861.5604038273568221
    Two-Electron Energy =                 764.2686235107145194
    Total Energy =                       -503.7151132666207332
  Basis Set: (AUG-CC-PVTZ AUX)
    Blend: AUG-CC-PVTZ-RI
    Molecular point group: c1

    Geometry (in Angstrom), charge = 0, multiplicity = 1:

       Center              X                  Y                   Z               Mass
    ------------   -----------------  -----------------  -----------------  -----------------
         N           -1.815545358704    -0.160892874746    -0.003148222042    14.003074004430
         N           -0.297565358704    -1.848775874746    -0.011259222042    14.003074004430
         N           -0.339559958704     1.759694225254    -0.002025022042    14.003074004430
         N            2.026992641296     1.037064125254    -0.010911222042    14.003074004430
         N            2.700575641296    -1.195834874746     0.075582777958    14.003074004430
         C           -0.575017358704     0.436786125254     0.001763777958    12.000000000000
         C            0.302777441296    -0.656174174746     0.005252677958    12.000000000000
         C           -1.583172358704    -1.514861874746    -0.009344222042    12.000000000000
         C            1.699523641296    -0.264433874746    -0.001549222042    12.000000000000
         C           -3.091709358704     0.533734125254    -0.000171222042    12.000000000000
         C            1.031641641296     1.951508125254    -0.012179222042    12.000000000000
         H           -2.404876358704    -2.222699874746    -0.015694222042     1.007825032230
         H           -3.171738358704     1.170224125254    -0.883139222042     1.007825032230
         H           -3.888857358704    -0.210896874746    -0.009736222042     1.007825032230
         H           -3.177438358704     1.153211125254     0.894358777958     1.007825032230
         H            1.356234641296     2.990078125254    -0.015936222042     1.007825032230
         H            3.610219641296    -0.862170874746    -0.222588222042     1.007825032230
         H            2.453244641296    -2.131863874746    -0.224298222042     1.007825032230

  Basis Set: AUG-CC-PVTZ
    Blend: AUG-CC-PVTZ
  Basis Set: (AUG-CC-PVTZ AUX)
    Blend: AUG-CC-PVTZ-JKFIT
	 Reference Energy          =    -503.7151132666207332 [Eh]
	 Singles Energy            =      -0.0000000000000000 [Eh]
	 Same-Spin Energy          =      -0.5506262826761552 [Eh]
	 Opposite-Spin Energy      =      -1.6353796655781603 [Eh]
	 Correlation Energy        =      -2.1860059482543157 [Eh]
	 Total Energy              =    -505.9011192148750524 [Eh]

	 ================> DF-SCS-MP2 Energies <==================
	-----------------------------------------------------------
	 SCS Same-Spin Scale       =       0.3333333333333333 [-]
	 SCS Opposite-Spin Scale   =       1.2000000000000000 [-]
	 SCS Same-Spin Energy      =      -0.1835420942253851 [Eh]
	 SCS Opposite-Spin Energy  =      -1.9624555986937922 [Eh]
	 SCS Correlation Energy    =      -2.1459976929191771 [Eh]
	 SCS Total Energy          =    -505.8611109595399284 [Eh]
	-----------------------------------------------------------

  Dipole Moment: [D]
     X:    -2.5657      Y:    -1.2664      Z:    -0.7853     Total:     2.9670

*** Psi4 exiting successfully. Buy a developer a beer!
