                               Psi4 1.3.2 release

  ==> Input File <==

--------------------------------------------------------------------------
#psi4
#
memory 32 gb

molecule  {
0 1
  N       -1.7893040    -0.1617730    -0.0001110
  N       -0.2713240    -1.8496560    -0.0082220
  N       -0.2672930     1.7497910     0.0010540
  N        1.9847857     1.0514791    -0.0121058
  N        2.6767028    -1.2479623     0.0768667
  C       -0.5487760     0.4359060     0.0048010
  C        0.3666280    -0.6257540     0.0082110
  C       -1.5569310    -1.5157420    -0.0063070
  C        1.7257650    -0.2653140     0.0014880
  C       -3.0654680     0.5328540     0.0028660
  C        1.0578830     1.9506280    -0.0091420
  H       -2.3786350    -2.2235800    -0.0126570
  H       -3.1454970     1.1693440    -0.8801020
  H       -3.8626160    -0.2117770    -0.0066990
  H       -3.1511970     1.1523310     0.8973960
  H        1.3824760     2.9891980    -0.0128990
  H        3.6364610    -0.8630510    -0.2195510
  H        2.4794860    -2.1327440    -0.2212610
units angstrom
no_reorient  #important for SAPT in psi4, default
symmetry c1  #important for SAPT in psi4, default
}

set PROPERTIES_ORIGIN ["COM"]
properties('MP2/aug-cc-pvtz', properties = ['dipole'])
--------------------------------------------------------------------------

    Molecular point group: c1
  Charge       = 0
  Multiplicity = 1
  Basis Set: AUG-CC-PVTZ
    Blend: AUG-CC-PVTZ
  Basis Set: (AUG-CC-PVTZ AUX)
    Blend: AUG-CC-PVTZ-JKFIT

    Orbital Energies [Eh]
    ---------------------

    Doubly Occupied:

       1A    -15.630583     2A    -15.585342     3A    -15.564971
       4A    -15.554518     5A    -15.547353     6A    -11.337964
       7A    -11.322205     8A    -11.310166     9A    -11.303292
      10A    -11.287066    11A    -11.248632    12A     -1.366907
      13A     -1.303663    14A     -1.243421    15A     -1.196099
      16A     -1.159056    17A     -1.032609    18A     -0.984569
      19A     -0.899602    20A     -0.867261    21A     -0.805194
      22A     -0.756278    23A     -0.726401    24A     -0.688547
      25A     -0.671313    26A     -0.665060    27A     -0.632661
      28A     -0.602934    29A     -0.597355    30A     -0.589867
      31A     -0.570960    32A     -0.538489    33A     -0.497908
      34A     -0.489710    35A     -0.444002    36A     -0.414621
      37A     -0.402384    38A     -0.370317    39A     -0.305709

  @DF-RHF Final Energy:  -503.71470369343564

   => Energetics <=

    Nuclear Repulsion Energy =            596.1892581276619012
    One-Electron Energy =               -1866.7779467992963873
    Two-Electron Energy =                 766.8739849781987914
    Total Energy =                       -503.7147036934355810
  Basis Set: (AUG-CC-PVTZ AUX)
    Blend: AUG-CC-PVTZ-RI
    Molecular point group: c1

    Geometry (in Angstrom), charge = 0, multiplicity = 1:

       Center              X                  Y                   Z               Mass
    ------------   -----------------  -----------------  -----------------  -----------------
         N           -1.811759025915    -0.159187712027    -0.002583580010    14.003074004430
         N           -0.293779025915    -1.847070712027    -0.010694580010    14.003074004430
         N           -0.289748025915     1.752376287973    -0.001418580010    14.003074004430
         N            1.962330674085     1.054064387973    -0.014578380010    14.003074004430
         N            2.654247774085    -1.245377012027     0.074394119990    14.003074004430
         C           -0.571231025915     0.438491287973     0.002328419990    12.000000000000
         C            0.344172974085    -0.623168712027     0.005738419990    12.000000000000
         C           -1.579386025915    -1.513156712027    -0.008779580010    12.000000000000
         C            1.703309974085    -0.262728712027    -0.000984580010    12.000000000000
         C           -3.087923025915     0.535439287973     0.000393419990    12.000000000000
         C            1.035427974085     1.953213287973    -0.011614580010    12.000000000000
         H           -2.401090025915    -2.220994712027    -0.015129580010     1.007825032230
         H           -3.167952025915     1.171929287973    -0.882574580010     1.007825032230
         H           -3.885071025915    -0.209191712027    -0.009171580010     1.007825032230
         H           -3.173652025915     1.154916287973     0.894923419990     1.007825032230
         H            1.360020974085     2.991783287973    -0.015371580010     1.007825032230
         H            3.614005974085    -0.860465712027    -0.222023580010     1.007825032230
         H            2.457030974085    -2.130158712027    -0.223733580010     1.007825032230

  Basis Set: AUG-CC-PVTZ
    Blend: AUG-CC-PVTZ
  Basis Set: (AUG-CC-PVTZ AUX)
    Blend: AUG-CC-PVTZ-JKFIT
	 Reference Energy          =    -503.7147036934356379 [Eh]
	 Singles Energy            =      -0.0000000000000000 [Eh]
	 Same-Spin Energy          =      -0.5493429315497760 [Eh]
	 Opposite-Spin Energy      =      -1.6321912293832730 [Eh]
	 Correlation Energy        =      -2.1815341609330492 [Eh]
	 Total Energy              =    -505.8962378543686782 [Eh]

	 ================> DF-SCS-MP2 Energies <==================
	-----------------------------------------------------------
	 SCS Same-Spin Scale       =       0.3333333333333333 [-]
	 SCS Opposite-Spin Scale   =       1.2000000000000000 [-]
	 SCS Same-Spin Energy      =      -0.1831143105165920 [Eh]
	 SCS Opposite-Spin Energy  =      -1.9586294752599276 [Eh]
	 SCS Correlation Energy    =      -2.1417437857765194 [Eh]
	 SCS Total Energy          =    -505.8564474792121359 [Eh]
	-----------------------------------------------------------

  Dipole Moment: [D]
     X:    -2.4332      Y:    -1.1792      Z:    -0.7796     Total:     2.8140

*** Psi4 exiting successfully. Buy a developer a beer!
