                               Psi4 1.3.2 release

  ==> Input File <==

--------------------------------------------------------------------------
#psi4
#
memory 32 gb

molecule  {
0 1
  N       -1.7893040    -0.1617730    -0.0001110
  N       -0.2713240    -1.8496560    -0.0082220
  N       -0.2672930     1.7497910     0.0010540
  N        2.0532340     1.0361840    -0.0078740
  N        2.7268170    -1.1967150     0.0786200
  C       -0.5487760     0.4359060     0.0048010
  C        0.3666280    -0.6257540     0.0082110
  C       -1.5569310    -1.5157420    -0.0063070
  C        1.7257650    -0.2653140     0.0014880
  C       -3.0654680     0.5328540     0.0028660
  C        1.0578830     1.9506280    -0.0091420
  H       -2.3786350    -2.2235800    -0.0126570
  H       -3.1454970     1.1693440    -0.8801020
  H       -3.8626160    -0.2117770    -0.0066990
  H       -3.1511970     1.1523310     0.8973960
  H        1.3824760     2.9891980    -0.0128990
  H        3.8159221    -0.7972234    -0.2783763
  H        2.4794860    -2.1327440    -0.2212610
units angstrom
no_reorient  #important for SAPT in psi4, default
symmetry c1  #important for SAPT in psi4, default
}

set PROPERTIES_ORIGIN ["COM"]
properties('MP2/aug-cc-pvtz', properties = ['dipole'])
--------------------------------------------------------------------------

    Molecular point group: c1
  Charge       = 0
  Multiplicity = 1
  Basis Set: AUG-CC-PVTZ
    Blend: AUG-CC-PVTZ
  Basis Set: (AUG-CC-PVTZ AUX)
    Blend: AUG-CC-PVTZ-JKFIT

    Orbital Energies [Eh]
    ---------------------

    Doubly Occupied:

       1A    -15.632608     2A    -15.595691     3A    -15.566851
       4A    -15.559852     5A    -15.551437     6A    -11.334049
       7A    -11.321943     8A    -11.312569     9A    -11.310882
      10A    -11.288358    11A    -11.251782    12A     -1.367206
      13A     -1.292994    14A     -1.235311    15A     -1.192441
      16A     -1.145277    17A     -1.028473    18A     -0.984609
      19A     -0.886971    20A     -0.870397    21A     -0.798075
      22A     -0.748743    23A     -0.717924    24A     -0.674568
      25A     -0.665958    26A     -0.653132    27A     -0.623651
      28A     -0.596511    29A     -0.592824    30A     -0.585764
      31A     -0.567645    32A     -0.535536    33A     -0.493773
      34A     -0.491895    35A     -0.449839    36A     -0.412813
      37A     -0.407460    38A     -0.367516    39A     -0.306599

  @DF-RHF Final Energy:  -503.69513238770247

   => Energetics <=

    Nuclear Repulsion Energy =            593.3228867916967602
    One-Electron Energy =               -1861.1961851332298465
    Two-Electron Energy =                 764.1781659538304439
    Total Energy =                       -503.6951323877025288
  Basis Set: (AUG-CC-PVTZ AUX)
    Blend: AUG-CC-PVTZ-RI
    Molecular point group: c1

    Geometry (in Angstrom), charge = 0, multiplicity = 1:

       Center              X                  Y                   Z               Mass
    ------------   -----------------  -----------------  -----------------  -----------------
         N           -1.824109619976    -0.163009966439    -0.002748094429    14.003074004430
         N           -0.306129619976    -1.850892966439    -0.010859094429    14.003074004430
         N           -0.302098619976     1.748554033561    -0.001583094429    14.003074004430
         N            2.018428380024     1.034947033561    -0.010511094429    14.003074004430
         N            2.692011380024    -1.197951966439     0.075982905571    14.003074004430
         C           -0.583581619976     0.434669033561     0.002163905571    12.000000000000
         C            0.331822380024    -0.626990966439     0.005573905571    12.000000000000
         C           -1.591736619976    -1.516978966439    -0.008944094429    12.000000000000
         C            1.690959380024    -0.266550966439    -0.001149094429    12.000000000000
         C           -3.100273619976     0.531617033561     0.000228905571    12.000000000000
         C            1.023077380024     1.949391033561    -0.011779094429    12.000000000000
         H           -2.413440619976    -2.224816966439    -0.015294094429     1.007825032230
         H           -3.180302619976     1.168107033561    -0.882739094429     1.007825032230
         H           -3.897421619976    -0.213013966439    -0.009336094429     1.007825032230
         H           -3.186002619976     1.151094033561     0.894758905571     1.007825032230
         H            1.347670380024     2.987961033561    -0.015536094429     1.007825032230
         H            3.781116480024    -0.798460366439    -0.281013394429     1.007825032230
         H            2.444680380024    -2.133980966439    -0.223898094429     1.007825032230

  Basis Set: AUG-CC-PVTZ
    Blend: AUG-CC-PVTZ
  Basis Set: (AUG-CC-PVTZ AUX)
    Blend: AUG-CC-PVTZ-JKFIT
	 Reference Energy          =    -503.6951323877024720 [Eh]
	 Singles Energy            =      -0.0000000000000000 [Eh]
	 Same-Spin Energy          =      -0.5506329943497869 [Eh]
	 Opposite-Spin Energy      =      -1.6371146988679428 [Eh]
	 Correlation Energy        =      -2.1877476932177298 [Eh]
	 Total Energy              =    -505.8828800809201880 [Eh]

	 ================> DF-SCS-MP2 Energies <==================
	-----------------------------------------------------------
	 SCS Same-Spin Scale       =       0.3333333333333333 [-]
	 SCS Opposite-Spin Scale   =       1.2000000000000000 [-]
	 SCS Same-Spin Energy      =      -0.1835443314499289 [Eh]
	 SCS Opposite-Spin Energy  =      -1.9645376386415312 [Eh]
	 SCS Correlation Energy    =      -2.1480819700914600 [Eh]
	 SCS Total Energy          =    -505.8432143577939542 [Eh]
	-----------------------------------------------------------

  Dipole Moment: [D]
     X:    -2.5426      Y:    -1.1047      Z:    -0.8273     Total:     2.8930

*** Psi4 exiting successfully. Buy a developer a beer!
