                               Psi4 1.3.2 release

  ==> Input File <==

--------------------------------------------------------------------------
#psi4
#
memory 32 gb

molecule  {
0 1
  N       -1.7893040    -0.1617730    -0.0001110
  N       -0.2713240    -1.8496560    -0.0082220
  N       -0.2672930     1.7497910     0.0010540
  N        2.0532340     1.0361840    -0.0078740
  N        2.7268170    -1.1967150     0.0786200
  C       -0.5580057     0.4278776     0.0048806
  C        0.3666280    -0.6257540     0.0082110
  C       -1.5569310    -1.5157420    -0.0063070
  C        1.7288589    -0.2771882     0.0015499
  C       -3.0654680     0.5328540     0.0028660
  C        1.0578830     1.9506280    -0.0091420
  H       -2.3786350    -2.2235800    -0.0126570
  H       -3.1454970     1.1693440    -0.8801020
  H       -3.8626160    -0.2117770    -0.0066990
  H       -3.1511970     1.1523310     0.8973960
  H        1.3824760     2.9891980    -0.0128990
  H        3.6364610    -0.8630510    -0.2195510
  H        2.4794860    -2.1327440    -0.2212610
units angstrom
no_reorient  #important for SAPT in psi4, default
symmetry c1  #important for SAPT in psi4, default
}

set PROPERTIES_ORIGIN ["COM"]
properties('MP2/aug-cc-pvtz', properties = ['dipole'])
--------------------------------------------------------------------------

    Molecular point group: c1
  Charge       = 0
  Multiplicity = 1
  Basis Set: AUG-CC-PVTZ
    Blend: AUG-CC-PVTZ
  Basis Set: (AUG-CC-PVTZ AUX)
    Blend: AUG-CC-PVTZ-JKFIT

    Orbital Energies [Eh]
    ---------------------

    Doubly Occupied:

       1A    -15.633932     2A    -15.583173     3A    -15.567564
       4A    -15.558969     5A    -15.551059     6A    -11.335345
       7A    -11.321795     8A    -11.312689     9A    -11.310112
      10A    -11.289349    11A    -11.251201    12A     -1.369834
      13A     -1.294334    14A     -1.242389    15A     -1.198679
      16A     -1.148568    17A     -1.031034    18A     -0.987518
      19A     -0.891046    20A     -0.869588    21A     -0.803644
      22A     -0.753756    23A     -0.725669    24A     -0.681590
      25A     -0.673355    26A     -0.667501    27A     -0.624707
      28A     -0.606196    29A     -0.596433    30A     -0.591208
      31A     -0.573835    32A     -0.537521    33A     -0.495239
      34A     -0.490920    35A     -0.448425    36A     -0.414666
      37A     -0.407498    38A     -0.365882    39A     -0.307593

  @DF-RHF Final Energy:  -503.72427092057882

   => Energetics <=

    Nuclear Repulsion Energy =            594.2597534096649952
    One-Electron Energy =               -1862.9404174262188008
    Two-Electron Energy =                 764.9563930959748177
    Total Energy =                       -503.7242709205788742
  Basis Set: (AUG-CC-PVTZ AUX)
    Blend: AUG-CC-PVTZ-RI
    Molecular point group: c1

    Geometry (in Angstrom), charge = 0, multiplicity = 1:

       Center              X                  Y                   Z               Mass
    ------------   -----------------  -----------------  -----------------  -----------------
         N           -1.822402403629    -0.160962783198    -0.003157187811    14.003074004430
         N           -0.304422403629    -1.848845783198    -0.011268187811    14.003074004430
         N           -0.300391403629     1.750601216802    -0.001992187811    14.003074004430
         N            2.020135596371     1.036994216802    -0.010920187811    14.003074004430
         N            2.693718596371    -1.195904783198     0.075573812189    14.003074004430
         C           -0.591104103629     0.428687816802     0.001834412189    12.000000000000
         C            0.333529596371    -0.624943783198     0.005164812189    12.000000000000
         C           -1.590029403629    -1.514931783198    -0.009353187811    12.000000000000
         C            1.695760496371    -0.276377983198    -0.001496287811    12.000000000000
         C           -3.098566403629     0.533664216802    -0.000180187811    12.000000000000
         C            1.024784596371     1.951438216802    -0.012188187811    12.000000000000
         H           -2.411733403629    -2.222769783198    -0.015703187811     1.007825032230
         H           -3.178595403629     1.170154216802    -0.883148187811     1.007825032230
         H           -3.895714403629    -0.210966783198    -0.009745187811     1.007825032230
         H           -3.184295403629     1.153141216802     0.894349812189     1.007825032230
         H            1.349377596371     2.990008216802    -0.015945187811     1.007825032230
         H            3.603362596371    -0.862240783198    -0.222597187811     1.007825032230
         H            2.446387596371    -2.131933783198    -0.224307187811     1.007825032230

  Basis Set: AUG-CC-PVTZ
    Blend: AUG-CC-PVTZ
  Basis Set: (AUG-CC-PVTZ AUX)
    Blend: AUG-CC-PVTZ-JKFIT
	 Reference Energy          =    -503.7242709205788174 [Eh]
	 Singles Energy            =      -0.0000000000000000 [Eh]
	 Same-Spin Energy          =      -0.5492943726126418 [Eh]
	 Opposite-Spin Energy      =      -1.6332393704669195 [Eh]
	 Correlation Energy        =      -2.1825337430795613 [Eh]
	 Total Energy              =    -505.9068046636583631 [Eh]

	 ================> DF-SCS-MP2 Energies <==================
	-----------------------------------------------------------
	 SCS Same-Spin Scale       =       0.3333333333333333 [-]
	 SCS Opposite-Spin Scale   =       1.2000000000000000 [-]
	 SCS Same-Spin Energy      =      -0.1830981242042139 [Eh]
	 SCS Opposite-Spin Energy  =      -1.9598872445603033 [Eh]
	 SCS Correlation Energy    =      -2.1429853687645171 [Eh]
	 SCS Total Energy          =    -505.8672562893433451 [Eh]
	-----------------------------------------------------------

  Dipole Moment: [D]
     X:    -2.7036      Y:    -1.2587      Z:    -0.7856     Total:     3.0840

*** Psi4 exiting successfully. Buy a developer a beer!
