                               Psi4 1.3.2 release

  ==> Input File <==

--------------------------------------------------------------------------
#psi4
#
memory 32 gb

molecule  {
0 1
  N       -1.7954142    -0.1728824    -0.0002367
  N       -0.2713240    -1.8496560    -0.0082220
  N       -0.2672930     1.7497910     0.0010540
  N        2.0532340     1.0361840    -0.0078740
  N        2.7268170    -1.1967150     0.0786200
  C       -0.5487760     0.4359060     0.0048010
  C        0.3666280    -0.6257540     0.0082110
  C       -1.5569310    -1.5157420    -0.0063070
  C        1.7257650    -0.2653140     0.0014880
  C       -3.0654680     0.5328540     0.0028660
  C        1.0578830     1.9506280    -0.0091420
  H       -2.3786350    -2.2235800    -0.0126570
  H       -3.1454970     1.1693440    -0.8801020
  H       -3.8560871    -0.2187049    -0.0067469
  H       -3.1511970     1.1523310     0.8973960
  H        1.3824760     2.9891980    -0.0128990
  H        3.6364610    -0.8630510    -0.2195510
  H        2.4794860    -2.1327440    -0.2212610
units angstrom
no_reorient  #important for SAPT in psi4, default
symmetry c1  #important for SAPT in psi4, default
}

set PROPERTIES_ORIGIN ["COM"]
properties('MP2/aug-cc-pvtz', properties = ['dipole'])
--------------------------------------------------------------------------

    Molecular point group: c1
  Charge       = 0
  Multiplicity = 1
  Basis Set: AUG-CC-PVTZ
    Blend: AUG-CC-PVTZ
  Basis Set: (AUG-CC-PVTZ AUX)
    Blend: AUG-CC-PVTZ-JKFIT

    Orbital Energies [Eh]
    ---------------------

    Doubly Occupied:

       1A    -15.633228     2A    -15.581015     3A    -15.565829
       4A    -15.561498     5A    -15.552882     6A    -11.334545
       7A    -11.322075     8A    -11.313500     9A    -11.311642
      10A    -11.289002    11A    -11.252283    12A     -1.367675
      13A     -1.296668    14A     -1.242163    15A     -1.196387
      16A     -1.152338    17A     -1.031003    18A     -0.986537
      19A     -0.891266    20A     -0.872393    21A     -0.802228
      22A     -0.753188    23A     -0.723758    24A     -0.681396
      25A     -0.673563    26A     -0.666323    27A     -0.624422
      28A     -0.608156    29A     -0.596908    30A     -0.591533
      31A     -0.569241    32A     -0.537250    33A     -0.495689
      34A     -0.492966    35A     -0.450217    36A     -0.413640
      37A     -0.408498    38A     -0.369737    39A     -0.307283

  @DF-RHF Final Energy:  -503.72450357945610

   => Energetics <=

    Nuclear Repulsion Energy =            594.2502603303131536
    One-Electron Energy =               -1862.9096793337366762
    Two-Electron Energy =                 764.9349154239673680
    Total Energy =                       -503.7245035794560408
  Basis Set: (AUG-CC-PVTZ AUX)
    Blend: AUG-CC-PVTZ-RI
    Molecular point group: c1

    Geometry (in Angstrom), charge = 0, multiplicity = 1:

       Center              X                  Y                   Z               Mass
    ------------   -----------------  -----------------  -----------------  -----------------
         N           -1.828476701108    -0.172583911005    -0.003259365588    14.003074004430
         N           -0.304386501108    -1.849357511005    -0.011244665588    14.003074004430
         N           -0.300355501108     1.750089488995    -0.001968665588    14.003074004430
         N            2.020171498892     1.036482488995    -0.010896665588    14.003074004430
         N            2.693754498892    -1.196416511005     0.075597334412    14.003074004430
         C           -0.581838501108     0.436204488995     0.001778334412    12.000000000000
         C            0.333565498892    -0.625455511005     0.005188334412    12.000000000000
         C           -1.589993501108    -1.515443511005    -0.009329665588    12.000000000000
         C            1.692702498892    -0.265015511005    -0.001534665588    12.000000000000
         C           -3.098530501108     0.533152488995    -0.000156665588    12.000000000000
         C            1.024820498892     1.950926488995    -0.012164665588    12.000000000000
         H           -2.411697501108    -2.223281511005    -0.015679665588     1.007825032230
         H           -3.178559501108     1.169642488995    -0.883124665588     1.007825032230
         H           -3.889149601108    -0.218406411005    -0.009769565588     1.007825032230
         H           -3.184259501108     1.152629488995     0.894373334412     1.007825032230
         H            1.349413498892     2.989496488995    -0.015921665588     1.007825032230
         H            3.603398498892    -0.862752511005    -0.222573665588     1.007825032230
         H            2.446423498892    -2.132445511005    -0.224283665588     1.007825032230

  Basis Set: AUG-CC-PVTZ
    Blend: AUG-CC-PVTZ
  Basis Set: (AUG-CC-PVTZ AUX)
    Blend: AUG-CC-PVTZ-JKFIT
	 Reference Energy          =    -503.7245035794560977 [Eh]
	 Singles Energy            =      -0.0000000000000000 [Eh]
	 Same-Spin Energy          =      -0.5493537985741574 [Eh]
	 Opposite-Spin Energy      =      -1.6331958505423434 [Eh]
	 Correlation Energy        =      -2.1825496491165008 [Eh]
	 Total Energy              =    -505.9070532285725790 [Eh]

	 ================> DF-SCS-MP2 Energies <==================
	-----------------------------------------------------------
	 SCS Same-Spin Scale       =       0.3333333333333333 [-]
	 SCS Opposite-Spin Scale   =       1.2000000000000000 [-]
	 SCS Same-Spin Energy      =      -0.1831179328580525 [Eh]
	 SCS Opposite-Spin Energy  =      -1.9598350206508119 [Eh]
	 SCS Correlation Energy    =      -2.1429529535088645 [Eh]
	 SCS Total Energy          =    -505.8674565329649795 [Eh]
	-----------------------------------------------------------

  Dipole Moment: [D]
     X:    -2.7200      Y:    -1.1277      Z:    -0.7888     Total:     3.0483

*** Psi4 exiting successfully. Buy a developer a beer!
