                               Psi4 1.3.2 release

  ==> Input File <==

--------------------------------------------------------------------------
#psi4
#
memory 32 gb

molecule  {
0 1
  N       -1.7893040    -0.1617730    -0.0001110
  N       -0.2556099    -1.7819173    -0.0076550
  N       -0.2672930     1.7497910     0.0010540
  N        2.0532340     1.0361840    -0.0078740
  N        2.7268170    -1.1967150     0.0786200
  C       -0.5487760     0.4359060     0.0048010
  C        0.3666280    -0.6257540     0.0082110
  C       -1.5569310    -1.5157420    -0.0063070
  C        1.7257650    -0.2653140     0.0014880
  C       -3.0654680     0.5328540     0.0028660
  C        1.0578830     1.9506280    -0.0091420
  H       -2.4145557    -2.1796065    -0.0123187
  H       -3.1454970     1.1693440    -0.8801020
  H       -3.8626160    -0.2117770    -0.0066990
  H       -3.1511970     1.1523310     0.8973960
  H        1.3824760     2.9891980    -0.0128990
  H        3.6364610    -0.8630510    -0.2195510
  H        2.4794860    -2.1327440    -0.2212610
units angstrom
no_reorient  #important for SAPT in psi4, default
symmetry c1  #important for SAPT in psi4, default
}

set PROPERTIES_ORIGIN ["COM"]
properties('MP2/aug-cc-pvtz', properties = ['dipole'])
--------------------------------------------------------------------------

    Molecular point group: c1
  Charge       = 0
  Multiplicity = 1
  Basis Set: AUG-CC-PVTZ
    Blend: AUG-CC-PVTZ
  Basis Set: (AUG-CC-PVTZ AUX)
    Blend: AUG-CC-PVTZ-JKFIT

    Orbital Energies [Eh]
    ---------------------

    Doubly Occupied:

       1A    -15.632187     2A    -15.581451     3A    -15.560388
       4A    -15.558861     5A    -15.551806     6A    -11.334162
       7A    -11.320533     8A    -11.309587     9A    -11.307935
      10A    -11.288023    11A    -11.247573    12A     -1.373876
      13A     -1.295750    14A     -1.244390    15A     -1.204088
      16A     -1.151268    17A     -1.028619    18A     -0.988618
      19A     -0.894252    20A     -0.869825    21A     -0.804315
      22A     -0.753816    23A     -0.728298    24A     -0.679199
      25A     -0.677698    26A     -0.667012    27A     -0.630883
      28A     -0.607339    29A     -0.599146    30A     -0.593329
      31A     -0.571594    32A     -0.537614    33A     -0.496025
      34A     -0.487994    35A     -0.450460    36A     -0.417276
      37A     -0.404468    38A     -0.368825    39A     -0.301160

  @DF-RHF Final Energy:  -503.72052154071270

   => Energetics <=

    Nuclear Repulsion Energy =            596.3621558719563609
    One-Electron Energy =               -1867.1260617455943702
    Two-Electron Energy =                 767.0433843329253705
    Total Energy =                       -503.7205215407127525
  Basis Set: (AUG-CC-PVTZ AUX)
    Blend: AUG-CC-PVTZ-RI
    Molecular point group: c1

    Geometry (in Angstrom), charge = 0, multiplicity = 1:

       Center              X                  Y                   Z               Mass
    ------------   -----------------  -----------------  -----------------  -----------------
         N           -1.824129600742    -0.169225328465    -0.003201346151    14.003074004430
         N           -0.290435500742    -1.789369628465    -0.010745346151    14.003074004430
         N           -0.302118600742     1.742338671535    -0.002036346151    14.003074004430
         N            2.018408399258     1.028731671535    -0.010964346151    14.003074004430
         N            2.691991399258    -1.204167328465     0.075529653849    14.003074004430
         C           -0.583601600742     0.428453671535     0.001710653849    12.000000000000
         C            0.331802399258    -0.633206328465     0.005120653849    12.000000000000
         C           -1.591756600742    -1.523194328465    -0.009397346151    12.000000000000
         C            1.690939399258    -0.272766328465    -0.001602346151    12.000000000000
         C           -3.100293600742     0.525401671535    -0.000224346151    12.000000000000
         C            1.023057399258     1.943175671535    -0.012232346151    12.000000000000
         H           -2.449381300742    -2.187058828465    -0.015409046151     1.007825032230
         H           -3.180322600742     1.161891671535    -0.883192346151     1.007825032230
         H           -3.897441600742    -0.219229328465    -0.009789346151     1.007825032230
         H           -3.186022600742     1.144878671535     0.894305653849     1.007825032230
         H            1.347650399258     2.981745671535    -0.015989346151     1.007825032230
         H            3.601635399258    -0.870503328465    -0.222641346151     1.007825032230
         H            2.444660399258    -2.140196328465    -0.224351346151     1.007825032230

  Basis Set: AUG-CC-PVTZ
    Blend: AUG-CC-PVTZ
  Basis Set: (AUG-CC-PVTZ AUX)
    Blend: AUG-CC-PVTZ-JKFIT
	 Reference Energy          =    -503.7205215407126957 [Eh]
	 Singles Energy            =      -0.0000000000000000 [Eh]
	 Same-Spin Energy          =      -0.5503077329076225 [Eh]
	 Opposite-Spin Energy      =      -1.6331795585812985 [Eh]
	 Correlation Energy        =      -2.1834872914889210 [Eh]
	 Total Energy              =    -505.9040088322016118 [Eh]

	 ================> DF-SCS-MP2 Energies <==================
	-----------------------------------------------------------
	 SCS Same-Spin Scale       =       0.3333333333333333 [-]
	 SCS Opposite-Spin Scale   =       1.2000000000000000 [-]
	 SCS Same-Spin Energy      =      -0.1834359109692075 [Eh]
	 SCS Opposite-Spin Energy  =      -1.9598154702975581 [Eh]
	 SCS Correlation Energy    =      -2.1432513812667655 [Eh]
	 SCS Total Energy          =    -505.8637729219794892 [Eh]
	-----------------------------------------------------------

  Dipole Moment: [D]
     X:    -2.8038      Y:    -1.2917      Z:    -0.7887     Total:     3.1862

*** Psi4 exiting successfully. Buy a developer a beer!
