                               Psi4 1.4a3.dev225

  ==> Input File <==

--------------------------------------------------------------------------
#psi4
#
memory 32 gb

molecule  {
0 1
  N       -1.7889380    -0.1640290    -0.0179520
  N       -0.2703210    -1.8482040    -0.0023970
  N       -0.2671710     1.7490810    -0.0033560
  N        2.0541740     1.0368940    -0.0085470
  N        2.7206340    -1.1973270     0.0732090
  C       -0.5486140     0.4351420     0.0045870
  C        0.3650590    -0.6247560     0.0169900
  C       -1.5762903    -1.5111290    -0.0164829
  C        1.7266360    -0.2641570     0.0048060
  C       -3.0641060     0.5324820     0.0177850
  C        1.0564750     1.9508360    -0.0110870
  H       -2.3762040    -2.2259510    -0.0342240
  H       -2.9284720     1.5041700    -0.4579320
  H       -3.8067760    -0.0485880    -0.5312030
  H       -3.3972360     0.6796990     1.0480130
  H        1.3812150     2.9891510    -0.0228070
  H        3.6427950    -0.8729100    -0.1905990
  H        2.4748820    -2.1409930    -0.1987870
units angstrom
no_reorient  #important for SAPT in psi4, default
symmetry c1  #important for SAPT in psi4, default
}

set PROPERTIES_ORIGIN ["COM"]
properties('MP2/aug-cc-pvtz', properties = ['dipole'])
--------------------------------------------------------------------------

    Molecular point group: c1
  Charge       = 0
  Multiplicity = 1
  Basis Set: AUG-CC-PVTZ
    Blend: AUG-CC-PVTZ
  Basis Set: (AUG-CC-PVTZ AUX)
    Blend: AUG-CC-PVTZ-JKFIT

    Orbital Energies [Eh]
    ---------------------

    Doubly Occupied:

       1A    -15.634228     2A    -15.581422     3A    -15.567504
       4A    -15.560206     5A    -15.551856     6A    -11.334909
       7A    -11.321297     8A    -11.312203     9A    -11.311166
      10A    -11.287482    11A    -11.250974    12A     -1.367413
      13A     -1.296316    14A     -1.241871    15A     -1.193198
      16A     -1.152058    17A     -1.029859    18A     -0.986196
      19A     -0.892599    20A     -0.871283    21A     -0.803782
      22A     -0.754091    23A     -0.725440    24A     -0.682884
      25A     -0.673354    26A     -0.666882    27A     -0.623729
      28A     -0.607512    29A     -0.594759    30A     -0.592632
      31A     -0.571875    32A     -0.536285    33A     -0.494877
      34A     -0.490598    35A     -0.449772    36A     -0.413163
      37A     -0.407661    38A     -0.368467    39A     -0.304752

  @DF-RHF Final Energy:  -503.72296441820225

   => Energetics <=

    Nuclear Repulsion Energy =            594.3819314953752837
    One-Electron Energy =               -1863.1966797175175543
    Two-Electron Energy =                 765.0917838039400749
    Total Energy =                       -503.7229644182021957
  Basis Set: (AUG-CC-PVTZ AUX)
    Blend: AUG-CC-PVTZ-RI
    Molecular point group: c1

    Geometry (in Angstrom), charge = 0, multiplicity = 1:

       Center              X                  Y                   Z               Mass
    ------------   -----------------  -----------------  -----------------  -----------------
         N           -1.820773595932    -0.165190860523    -0.020515421376    14.003074004430
         N           -0.302156595932    -1.849365860523    -0.004960421376    14.003074004430
         N           -0.299006595932     1.747919139477    -0.005919421376    14.003074004430
         N            2.022338404068     1.035732139477    -0.011110421376    14.003074004430
         N            2.688798404068    -1.198488860523     0.070645578624    14.003074004430
         C           -0.580449595932     0.433980139477     0.002023578624    12.000000000000
         C            0.333223404068    -0.625917860523     0.014426578624    12.000000000000
         C           -1.608125895932    -1.512290860523    -0.019046321376    12.000000000000
         C            1.694800404068    -0.265318860523     0.002242578624    12.000000000000
         C           -3.095941595932     0.531320139477     0.015221578624    12.000000000000
         C            1.024639404068     1.949674139477    -0.013650421376    12.000000000000
         H           -2.408039595932    -2.227112860523    -0.036787421376     1.007825032230
         H           -2.960307595932     1.503008139477    -0.460495421376     1.007825032230
         H           -3.838611595932    -0.049749860523    -0.533766421376     1.007825032230
         H           -3.429071595932     0.678537139477     1.045449578624     1.007825032230
         H            1.349379404068     2.987989139477    -0.025370421376     1.007825032230
         H            3.610959404068    -0.874071860523    -0.193162421376     1.007825032230
         H            2.443046404068    -2.142154860523    -0.201350421376     1.007825032230

  Basis Set: AUG-CC-PVTZ
    Blend: AUG-CC-PVTZ
  Basis Set: (AUG-CC-PVTZ AUX)
    Blend: AUG-CC-PVTZ-JKFIT
	 Reference Energy          =    -503.7229644182022525 [Eh]
	 Singles Energy            =      -0.0000000000000000 [Eh]
	 Same-Spin Energy          =      -0.5498814017163709 [Eh]
	 Opposite-Spin Energy      =      -1.6338621404942772 [Eh]
	 Correlation Energy        =      -2.1837435422106481 [Eh]
	 Total Energy              =    -505.9067079604129162 [Eh]

	 ================> DF-SCS-MP2 Energies <==================
	-----------------------------------------------------------
	 SCS Same-Spin Scale       =       0.3333333333333333 [-]
	 SCS Opposite-Spin Scale   =       1.2000000000000000 [-]
	 SCS Same-Spin Energy      =      -0.1832938005721236 [Eh]
	 SCS Opposite-Spin Energy  =      -1.9606345685931326 [Eh]
	 SCS Correlation Energy    =      -2.1439283691652560 [Eh]
	 SCS Total Energy          =    -505.8668927873675329 [Eh]
	-----------------------------------------------------------

  Dipole Moment: [D]
     X:    -2.6665      Y:    -1.1625      Z:    -0.7128     Total:     2.9949

*** Psi4 exiting successfully. Buy a developer a beer!
