                               Psi4 1.3.2 release

  ==> Input File <==

--------------------------------------------------------------------------
#psi4
#
memory 32 gb

molecule  {
0 1
  N       -1.7893040    -0.1617730    -0.0001110
  N       -0.2713240    -1.8496560    -0.0082220
  N       -0.2672930     1.7497910     0.0010540
  N        2.0532340     1.0361840    -0.0078740
  N        2.7268170    -1.1967150     0.0786200
  C       -0.5487760     0.4359060     0.0048010
  C        0.3666280    -0.6257540     0.0082110
  C       -1.5569310    -1.5157420    -0.0063070
  C        1.7257650    -0.2653140     0.0014880
  C       -2.8898047     0.4372390     0.0024562
  C        1.0578830     1.9506280    -0.0091420
  H       -2.3786350    -2.2235800    -0.0126570
  H       -3.1454970     1.1693440    -0.8801020
  H       -3.8626160    -0.2117770    -0.0066990
  H       -3.1511970     1.1523310     0.8973960
  H        1.3824760     2.9891980    -0.0128990
  H        3.6364610    -0.8630510    -0.2195510
  H        2.4794860    -2.1327440    -0.2212610
units angstrom
no_reorient  #important for SAPT in psi4, default
symmetry c1  #important for SAPT in psi4, default
}

set PROPERTIES_ORIGIN ["COM"]
properties('MP2/aug-cc-pvtz', properties = ['dipole'])
--------------------------------------------------------------------------

    Molecular point group: c1
  Charge       = 0
  Multiplicity = 1
  Basis Set: AUG-CC-PVTZ
    Blend: AUG-CC-PVTZ
  Basis Set: (AUG-CC-PVTZ AUX)
    Blend: AUG-CC-PVTZ-JKFIT

    Orbital Energies [Eh]
    ---------------------

    Doubly Occupied:

       1A    -15.635396     2A    -15.585133     3A    -15.575712
       4A    -15.566045     5A    -15.557582     6A    -11.339593
       7A    -11.329526     8A    -11.319717     9A    -11.316346
      10A    -11.289096    11A    -11.258648    12A     -1.398935
      13A     -1.306134    14A     -1.250163    15A     -1.228195
      16A     -1.158818    17A     -1.039738    18A     -0.988678
      19A     -0.900947    20A     -0.879717    21A     -0.807711
      22A     -0.762589    23A     -0.740285    24A     -0.701997
      25A     -0.684384    26A     -0.678679    27A     -0.640305
      28A     -0.614489    29A     -0.598093    30A     -0.586583
      31A     -0.533395    32A     -0.517469    33A     -0.499752
      34A     -0.492694    35A     -0.455679    36A     -0.415371
      37A     -0.406294    38A     -0.368823    39A     -0.313555

  @DF-RHF Final Energy:  -503.67460540392153

   => Energetics <=

    Nuclear Repulsion Energy =            598.8990904921770380
    One-Electron Energy =               -1871.6628576119012450
    Two-Electron Energy =                 769.0891617158026747
    Total Energy =                       -503.6746054039215323
  Basis Set: (AUG-CC-PVTZ AUX)
    Blend: AUG-CC-PVTZ-RI
    Molecular point group: c1

    Geometry (in Angstrom), charge = 0, multiplicity = 1:

       Center              X                  Y                   Z               Mass
    ------------   -----------------  -----------------  -----------------  -----------------
         N           -1.837037052279    -0.154868009502    -0.003112808703    14.003074004430
         N           -0.319057052279    -1.842751009502    -0.011223808703    14.003074004430
         N           -0.315026052279     1.756695990498    -0.001947808703    14.003074004430
         N            2.005500947721     1.043088990498    -0.010875808703    14.003074004430
         N            2.679083947721    -1.189810009502     0.075618191297    14.003074004430
         C           -0.596509052279     0.442810990498     0.001799191297    12.000000000000
         C            0.318894947721    -0.618849009502     0.005209191297    12.000000000000
         C           -1.604664052279    -1.508837009502    -0.009308808703    12.000000000000
         C            1.678031947721    -0.258409009502    -0.001513808703    12.000000000000
         C           -2.937537752279     0.444143990498    -0.000545608703    12.000000000000
         C            1.010149947721     1.957532990498    -0.012143808703    12.000000000000
         H           -2.426368052279    -2.216675009502    -0.015658808703     1.007825032230
         H           -3.193230052279     1.176248990498    -0.883103808703     1.007825032230
         H           -3.910349052279    -0.204872009502    -0.009700808703     1.007825032230
         H           -3.198930052279     1.159235990498     0.894394191297     1.007825032230
         H            1.334742947721     2.996102990498    -0.015900808703     1.007825032230
         H            3.588727947721    -0.856146009502    -0.222552808703     1.007825032230
         H            2.431752947721    -2.125839009502    -0.224262808703     1.007825032230

  Basis Set: AUG-CC-PVTZ
    Blend: AUG-CC-PVTZ
  Basis Set: (AUG-CC-PVTZ AUX)
    Blend: AUG-CC-PVTZ-JKFIT
	 Reference Energy          =    -503.6746054039215323 [Eh]
	 Singles Energy            =      -0.0000000000000000 [Eh]
	 Same-Spin Energy          =      -0.5519463210174693 [Eh]
	 Opposite-Spin Energy      =      -1.6359534778384823 [Eh]
	 Correlation Energy        =      -2.1878997988559519 [Eh]
	 Total Energy              =    -505.8625052027774700 [Eh]

	 ================> DF-SCS-MP2 Energies <==================
	-----------------------------------------------------------
	 SCS Same-Spin Scale       =       0.3333333333333333 [-]
	 SCS Opposite-Spin Scale   =       1.2000000000000000 [-]
	 SCS Same-Spin Energy      =      -0.1839821070058231 [Eh]
	 SCS Opposite-Spin Energy  =      -1.9631441734061787 [Eh]
	 SCS Correlation Energy    =      -2.1471262804120017 [Eh]
	 SCS Total Energy          =    -505.8217316843335425 [Eh]
	-----------------------------------------------------------

  Dipole Moment: [D]
     X:    -2.0119      Y:    -1.4315      Z:    -0.7917     Total:     2.5930

*** Psi4 exiting successfully. Buy a developer a beer!
