                               Psi4 1.3.2 release

  ==> Input File <==

--------------------------------------------------------------------------
#psi4
#
memory 32 gb

molecule  {
0 1
  N       -1.7893040    -0.1617730    -0.0001110
  N       -0.2925875    -1.8383411    -0.0078019
  N       -0.2672930     1.7497910     0.0010540
  N        2.0532340     1.0361840    -0.0078740
  N        2.7268170    -1.1967150     0.0786200
  C       -0.5487760     0.4359060     0.0048010
  C        0.3666280    -0.6257540     0.0082110
  C       -1.5569310    -1.5157420    -0.0063070
  C        1.7192710    -0.2416528     0.0019916
  C       -3.0654680     0.5328540     0.0028660
  C        1.0578830     1.9506280    -0.0091420
  H       -2.3786350    -2.2235800    -0.0126570
  H       -3.1454970     1.1693440    -0.8801020
  H       -3.8626160    -0.2117770    -0.0066990
  H       -3.1511970     1.1523310     0.8973960
  H        1.3824760     2.9891980    -0.0128990
  H        3.6364610    -0.8630510    -0.2195510
  H        2.4794860    -2.1327440    -0.2212610
units angstrom
no_reorient  #important for SAPT in psi4, default
symmetry c1  #important for SAPT in psi4, default
}

set PROPERTIES_ORIGIN ["COM"]
properties('MP2/aug-cc-pvtz', properties = ['dipole'])
--------------------------------------------------------------------------

    Molecular point group: c1
  Charge       = 0
  Multiplicity = 1
  Basis Set: AUG-CC-PVTZ
    Blend: AUG-CC-PVTZ
  Basis Set: (AUG-CC-PVTZ AUX)
    Blend: AUG-CC-PVTZ-JKFIT

    Orbital Energies [Eh]
    ---------------------

    Doubly Occupied:

       1A    -15.630750     2A    -15.577253     3A    -15.564910
       4A    -15.563011     5A    -15.553497     6A    -11.334135
       7A    -11.319497     8A    -11.313790     9A    -11.313035
      10A    -11.287953    11A    -11.252462    12A     -1.370565
      13A     -1.299981    14A     -1.239733    15A     -1.197498
      16A     -1.154652    17A     -1.034271    18A     -0.984523
      19A     -0.891884    20A     -0.875629    21A     -0.801018
      22A     -0.753412    23A     -0.723587    24A     -0.678730
      25A     -0.673965    26A     -0.666877    27A     -0.626064
      28A     -0.606257    29A     -0.597945    30A     -0.591621
      31A     -0.571979    32A     -0.538438    33A     -0.493949
      34A     -0.493364    35A     -0.452022    36A     -0.414930
      37A     -0.408746    38A     -0.370197    39A     -0.311359

  @DF-RHF Final Energy:  -503.72635123687633

   => Energetics <=

    Nuclear Repulsion Energy =            594.9736584032132214
    One-Electron Energy =               -1864.3330371306597044
    Two-Electron Energy =                 765.6330274905701572
    Total Energy =                       -503.7263512368763259
  Basis Set: (AUG-CC-PVTZ AUX)
    Blend: AUG-CC-PVTZ-RI
    Molecular point group: c1

    Geometry (in Angstrom), charge = 0, multiplicity = 1:

       Center              X                  Y                   Z               Mass
    ------------   -----------------  -----------------  -----------------  -----------------
         N           -1.820376157773    -0.165532504257    -0.003225799077    14.003074004430
         N           -0.323659657773    -1.842100604257    -0.010916699077    14.003074004430
         N           -0.298365157773     1.746031495743    -0.002060799077    14.003074004430
         N            2.022161842227     1.032424495743    -0.010988799077    14.003074004430
         N            2.695744842227    -1.200474504257     0.075505200923    14.003074004430
         C           -0.579848157773     0.432146495743     0.001686200923    12.000000000000
         C            0.335555842227    -0.629513504257     0.005096200923    12.000000000000
         C           -1.588003157773    -1.519501504257    -0.009421799077    12.000000000000
         C            1.688198842227    -0.245412304257    -0.001123199077    12.000000000000
         C           -3.096540157773     0.529094495743    -0.000248799077    12.000000000000
         C            1.026810842227     1.946868495743    -0.012256799077    12.000000000000
         H           -2.409707157773    -2.227339504257    -0.015771799077     1.007825032230
         H           -3.176569157773     1.165584495743    -0.883216799077     1.007825032230
         H           -3.893688157773    -0.215536504257    -0.009813799077     1.007825032230
         H           -3.182269157773     1.148571495743     0.894281200923     1.007825032230
         H            1.351403842227     2.985438495743    -0.016013799077     1.007825032230
         H            3.605388842227    -0.866810504257    -0.222665799077     1.007825032230
         H            2.448413842227    -2.136503504257    -0.224375799077     1.007825032230

  Basis Set: AUG-CC-PVTZ
    Blend: AUG-CC-PVTZ
  Basis Set: (AUG-CC-PVTZ AUX)
    Blend: AUG-CC-PVTZ-JKFIT
	 Reference Energy          =    -503.7263512368763259 [Eh]
	 Singles Energy            =      -0.0000000000000000 [Eh]
	 Same-Spin Energy          =      -0.5484934836269613 [Eh]
	 Opposite-Spin Energy      =      -1.6315478979193769 [Eh]
	 Correlation Energy        =      -2.1800413815463382 [Eh]
	 Total Energy              =    -505.9063926184226716 [Eh]

	 ================> DF-SCS-MP2 Energies <==================
	-----------------------------------------------------------
	 SCS Same-Spin Scale       =       0.3333333333333333 [-]
	 SCS Opposite-Spin Scale   =       1.2000000000000000 [-]
	 SCS Same-Spin Energy      =      -0.1828311612089871 [Eh]
	 SCS Opposite-Spin Energy  =      -1.9578574775032522 [Eh]
	 SCS Correlation Energy    =      -2.1406886387122395 [Eh]
	 SCS Total Energy          =    -505.8670398755885458 [Eh]
	-----------------------------------------------------------

  Dipole Moment: [D]
     X:    -2.8162      Y:    -1.0500      Z:    -0.7962     Total:     3.1092

*** Psi4 exiting successfully. Buy a developer a beer!
