                               Psi4 1.4a3.dev225

  ==> Input File <==

--------------------------------------------------------------------------
#psi4
#
memory 32 gb

molecule  {
0 1
  N       -1.7889380    -0.1640290    -0.0179520
  N       -0.2703210    -1.8482040    -0.0023970
  N       -0.2671710     1.7490810    -0.0033560
  N        2.0541740     1.0368940    -0.0085470
  N        2.7206340    -1.1973270     0.0732090
  C       -0.5486140     0.4351420     0.0045870
  C        0.3650590    -0.6247560     0.0169900
  C       -1.5569260    -1.5161270    -0.0162740
  C        1.7266360    -0.2641570     0.0048060
  C       -3.0816530     0.5420664     0.0182768
  C        1.0564750     1.9508360    -0.0110870
  H       -2.3762040    -2.2259510    -0.0342240
  H       -2.9284720     1.5041700    -0.4579320
  H       -3.8067760    -0.0485880    -0.5312030
  H       -3.3972360     0.6796990     1.0480130
  H        1.3812150     2.9891510    -0.0228070
  H        3.6427950    -0.8729100    -0.1905990
  H        2.4748820    -2.1409930    -0.1987870
units angstrom
no_reorient  #important for SAPT in psi4, default
symmetry c1  #important for SAPT in psi4, default
}

set PROPERTIES_ORIGIN ["COM"]
properties('MP2/aug-cc-pvtz', properties = ['dipole'])
--------------------------------------------------------------------------

    Molecular point group: c1
  Charge       = 0
  Multiplicity = 1
  Basis Set: AUG-CC-PVTZ
    Blend: AUG-CC-PVTZ
  Basis Set: (AUG-CC-PVTZ AUX)
    Blend: AUG-CC-PVTZ-JKFIT

    Orbital Energies [Eh]
    ---------------------

    Doubly Occupied:

       1A    -15.631468     2A    -15.581020     3A    -15.566508
       4A    -15.559422     5A    -15.551131     6A    -11.334351
       7A    -11.320183     8A    -11.311838     9A    -11.310989
      10A    -11.287757    11A    -11.250153    12A     -1.365629
      13A     -1.295279    14A     -1.242241    15A     -1.193850
      16A     -1.151068    17A     -1.030050    18A     -0.985843
      19A     -0.889647    20A     -0.871273    21A     -0.802185
      22A     -0.753062    23A     -0.723300    24A     -0.679567
      25A     -0.673234    26A     -0.665520    27A     -0.623370
      28A     -0.605521    29A     -0.596531    30A     -0.593445
      31A     -0.572720    32A     -0.537965    33A     -0.495142
      34A     -0.490672    35A     -0.449793    36A     -0.413934
      37A     -0.407733    38A     -0.367166    39A     -0.306299

  @DF-RHF Final Energy:  -503.72467388986797

   => Energetics <=

    Nuclear Repulsion Energy =            594.1892801288993269
    One-Electron Energy =               -1862.8541843985142350
    Two-Electron Energy =                 764.9402303797469358
    Total Energy =                       -503.7246738898679723
  Basis Set: (AUG-CC-PVTZ AUX)
    Blend: AUG-CC-PVTZ-RI
    Molecular point group: c1

    Geometry (in Angstrom), charge = 0, multiplicity = 1:

       Center              X                  Y                   Z               Mass
    ------------   -----------------  -----------------  -----------------  -----------------
         N           -1.820919886794    -0.165560061210    -0.020571827036    14.003074004430
         N           -0.302302886794    -1.849735061210    -0.005016827036    14.003074004430
         N           -0.299152886794     1.747549938790    -0.005975827036    14.003074004430
         N            2.022192113206     1.035362938790    -0.011166827036    14.003074004430
         N            2.688652113206    -1.198858061210     0.070589172964    14.003074004430
         C           -0.580595886794     0.433610938790     0.001967172964    12.000000000000
         C            0.333077113206    -0.626287061210     0.014370172964    12.000000000000
         C           -1.588907886794    -1.517658061210    -0.018893827036    12.000000000000
         C            1.694654113206    -0.265688061210     0.002186172964    12.000000000000
         C           -3.113634886794     0.540535338790     0.015656972964    12.000000000000
         C            1.024493113206     1.949304938790    -0.013706827036    12.000000000000
         H           -2.408185886794    -2.227482061210    -0.036843827036     1.007825032230
         H           -2.960453886794     1.502638938790    -0.460551827036     1.007825032230
         H           -3.838757886794    -0.050119061210    -0.533822827036     1.007825032230
         H           -3.429217886794     0.678167938790     1.045393172964     1.007825032230
         H            1.349233113206     2.987619938790    -0.025426827036     1.007825032230
         H            3.610813113206    -0.874441061210    -0.193218827036     1.007825032230
         H            2.442900113206    -2.142524061210    -0.201406827036     1.007825032230

  Basis Set: AUG-CC-PVTZ
    Blend: AUG-CC-PVTZ
  Basis Set: (AUG-CC-PVTZ AUX)
    Blend: AUG-CC-PVTZ-JKFIT
	 Reference Energy          =    -503.7246738898679723 [Eh]
	 Singles Energy            =      -0.0000000000000000 [Eh]
	 Same-Spin Energy          =      -0.5492254517074440 [Eh]
	 Opposite-Spin Energy      =      -1.6329106320274853 [Eh]
	 Correlation Energy        =      -2.1821360837349291 [Eh]
	 Total Energy              =    -505.9068099736028898 [Eh]

	 ================> DF-SCS-MP2 Energies <==================
	-----------------------------------------------------------
	 SCS Same-Spin Scale       =       0.3333333333333333 [-]
	 SCS Opposite-Spin Scale   =       1.2000000000000000 [-]
	 SCS Same-Spin Energy      =      -0.1830751505691480 [Eh]
	 SCS Opposite-Spin Energy  =      -1.9594927584329822 [Eh]
	 SCS Correlation Energy    =      -2.1425679090021301 [Eh]
	 SCS Total Energy          =    -505.8672417988701113 [Eh]
	-----------------------------------------------------------

  Dipole Moment: [D]
     X:    -2.7037      Y:    -1.1833      Z:    -0.7080     Total:     3.0351

*** Psi4 exiting successfully. Buy a developer a beer!
