                               Psi4 1.3.2 release

  ==> Input File <==

--------------------------------------------------------------------------
#psi4
#
memory 32 gb

molecule  {
0 1
  N       -1.7893040    -0.1617730    -0.0001110
  N       -0.2713240    -1.8496560    -0.0082220
  N       -0.2672930     1.7497910     0.0010540
  N        2.0532340     1.0361840    -0.0078740
  N        2.7268170    -1.1967150     0.0786200
  C       -0.5487760     0.4359060     0.0048010
  C        0.3666280    -0.6257540     0.0082110
  C       -1.5569310    -1.5157420    -0.0063070
  C        1.8224226    -0.2396806     0.0010099
  C       -3.0654680     0.5328540     0.0028660
  C        1.0578830     1.9506280    -0.0091420
  H       -2.3786350    -2.2235800    -0.0126570
  H       -3.1454970     1.1693440    -0.8801020
  H       -3.8626160    -0.2117770    -0.0066990
  H       -3.1511970     1.1523310     0.8973960
  H        1.3824760     2.9891980    -0.0128990
  H        3.6364610    -0.8630510    -0.2195510
  H        2.4794860    -2.1327440    -0.2212610
units angstrom
no_reorient  #important for SAPT in psi4, default
symmetry c1  #important for SAPT in psi4, default
}

set PROPERTIES_ORIGIN ["COM"]
properties('MP2/aug-cc-pvtz', properties = ['dipole'])
--------------------------------------------------------------------------

    Molecular point group: c1
  Charge       = 0
  Multiplicity = 1
  Basis Set: AUG-CC-PVTZ
    Blend: AUG-CC-PVTZ
  Basis Set: (AUG-CC-PVTZ AUX)
    Blend: AUG-CC-PVTZ-JKFIT

    Orbital Energies [Eh]
    ---------------------

    Doubly Occupied:

       1A    -15.628404     2A    -15.590445     3A    -15.563403
       4A    -15.559511     5A    -15.547989     6A    -11.340345
       7A    -11.314625     8A    -11.313517     9A    -11.302413
      10A    -11.285084    11A    -11.253439    12A     -1.361487
      13A     -1.307027    14A     -1.251848    15A     -1.195672
      16A     -1.163351    17A     -1.018140    18A     -0.977868
      19A     -0.892944    20A     -0.861353    21A     -0.802473
      22A     -0.756273    23A     -0.733854    24A     -0.686978
      25A     -0.675624    26A     -0.661320    27A     -0.631220
      28A     -0.599998    29A     -0.595649    30A     -0.582940
      31A     -0.568059    32A     -0.543954    33A     -0.498336
      34A     -0.488438    35A     -0.446363    36A     -0.411463
      37A     -0.400471    38A     -0.370931    39A     -0.296746

  @DF-RHF Final Energy:  -503.71309977658876

   => Energetics <=

    Nuclear Repulsion Energy =            593.5376644943795554
    One-Electron Energy =               -1861.5416196529056378
    Two-Electron Energy =                 764.2908553819371491
    Total Energy =                       -503.7130997765888196
  Basis Set: (AUG-CC-PVTZ AUX)
    Blend: AUG-CC-PVTZ-RI
    Molecular point group: c1

    Geometry (in Angstrom), charge = 0, multiplicity = 1:

       Center              X                  Y                   Z               Mass
    ------------   -----------------  -----------------  -----------------  -----------------
         N           -1.830677171175    -0.164628386388    -0.003107310621    14.003074004430
         N           -0.312697171175    -1.852511386388    -0.011218310621    14.003074004430
         N           -0.308666171175     1.746935613612    -0.001942310621    14.003074004430
         N            2.011860828825     1.033328613612    -0.010870310621    14.003074004430
         N            2.685443828825    -1.199570386388     0.075623689379    14.003074004430
         C           -0.590149171175     0.433050613612     0.001804689379    12.000000000000
         C            0.325254828825    -0.628609386388     0.005214689379    12.000000000000
         C           -1.598304171175    -1.518597386388    -0.009303310621    12.000000000000
         C            1.781049428825    -0.242535986388    -0.001986410621    12.000000000000
         C           -3.106841171175     0.529998613612    -0.000130310621    12.000000000000
         C            1.016509828825     1.947772613612    -0.012138310621    12.000000000000
         H           -2.420008171175    -2.226435386388    -0.015653310621     1.007825032230
         H           -3.186870171175     1.166488613612    -0.883098310621     1.007825032230
         H           -3.903989171175    -0.214632386388    -0.009695310621     1.007825032230
         H           -3.192570171175     1.149475613612     0.894399689379     1.007825032230
         H            1.341102828825     2.986342613612    -0.015895310621     1.007825032230
         H            3.595087828825    -0.865906386388    -0.222547310621     1.007825032230
         H            2.438112828825    -2.135599386388    -0.224257310621     1.007825032230

  Basis Set: AUG-CC-PVTZ
    Blend: AUG-CC-PVTZ
  Basis Set: (AUG-CC-PVTZ AUX)
    Blend: AUG-CC-PVTZ-JKFIT
	 Reference Energy          =    -503.7130997765887628 [Eh]
	 Singles Energy            =      -0.0000000000000000 [Eh]
	 Same-Spin Energy          =      -0.5495573081637867 [Eh]
	 Opposite-Spin Energy      =      -1.6333228670971687 [Eh]
	 Correlation Energy        =      -2.1828801752609555 [Eh]
	 Total Energy              =    -505.8959799518497107 [Eh]

	 ================> DF-SCS-MP2 Energies <==================
	-----------------------------------------------------------
	 SCS Same-Spin Scale       =       0.3333333333333333 [-]
	 SCS Opposite-Spin Scale   =       1.2000000000000000 [-]
	 SCS Same-Spin Energy      =      -0.1831857693879289 [Eh]
	 SCS Opposite-Spin Energy  =      -1.9599874405166022 [Eh]
	 SCS Correlation Energy    =      -2.1431732099045311 [Eh]
	 SCS Total Energy          =    -505.8562729864933090 [Eh]
	-----------------------------------------------------------

  Dipole Moment: [D]
     X:    -2.1705      Y:    -1.2999      Z:    -0.7789     Total:     2.6472

*** Psi4 exiting successfully. Buy a developer a beer!
