                               Psi4 1.3.2 release

  ==> Input File <==

--------------------------------------------------------------------------
#psi4
#
memory 32 gb

molecule  {
0 1
  N       -1.7893040    -0.1617730    -0.0001110
  N       -0.2713240    -1.8496560    -0.0082220
  N       -0.2672930     1.7497910     0.0010540
  N        2.0532340     1.0361840    -0.0078740
  N        2.7268170    -1.1967150     0.0786200
  C       -0.5487760     0.4359060     0.0048010
  C        0.3666280    -0.6257540     0.0082110
  C       -1.5569310    -1.5157420    -0.0063070
  C        1.6291074    -0.2909474     0.0019661
  C       -3.0654680     0.5328540     0.0028660
  C        1.0578830     1.9506280    -0.0091420
  H       -2.3786350    -2.2235800    -0.0126570
  H       -3.1454970     1.1693440    -0.8801020
  H       -3.8626160    -0.2117770    -0.0066990
  H       -3.1511970     1.1523310     0.8973960
  H        1.3824760     2.9891980    -0.0128990
  H        3.6364610    -0.8630510    -0.2195510
  H        2.4794860    -2.1327440    -0.2212610
units angstrom
no_reorient  #important for SAPT in psi4, default
symmetry c1  #important for SAPT in psi4, default
}

set PROPERTIES_ORIGIN ["COM"]
properties('MP2/aug-cc-pvtz', properties = ['dipole'])
--------------------------------------------------------------------------

    Molecular point group: c1
  Charge       = 0
  Multiplicity = 1
  Basis Set: AUG-CC-PVTZ
    Blend: AUG-CC-PVTZ
  Basis Set: (AUG-CC-PVTZ AUX)
    Blend: AUG-CC-PVTZ-JKFIT

    Orbital Energies [Eh]
    ---------------------

    Doubly Occupied:

       1A    -15.638302     2A    -15.571132     3A    -15.570531
       4A    -15.562686     5A    -15.556568     6A    -11.331345
       7A    -11.325553     8A    -11.324801     9A    -11.309823
      10A    -11.292770    11A    -11.247544    12A     -1.375139
      13A     -1.289673    14A     -1.235152    15A     -1.194145
      16A     -1.138615    17A     -1.049823    18A     -0.994469
      19A     -0.901553    20A     -0.870969    21A     -0.804393
      22A     -0.750491    23A     -0.720639    24A     -0.681744
      25A     -0.672542    26A     -0.661831    27A     -0.618615
      28A     -0.614042    29A     -0.598609    30A     -0.589505
      31A     -0.574967    32A     -0.530844    33A     -0.496537
      34A     -0.492221    35A     -0.452627    36A     -0.418137
      37A     -0.411848    38A     -0.366166    39A     -0.320644

  @DF-RHF Final Energy:  -503.70944780826278

   => Energetics <=

    Nuclear Repulsion Energy =            595.2559483594421863
    One-Electron Energy =               -1864.8168069482826468
    Two-Electron Energy =                 765.8514107805775666
    Total Energy =                       -503.7094478082627802
  Basis Set: (AUG-CC-PVTZ AUX)
    Blend: AUG-CC-PVTZ-RI
    Molecular point group: c1

    Geometry (in Angstrom), charge = 0, multiplicity = 1:

       Center              X                  Y                   Z               Mass
    ------------   -----------------  -----------------  -----------------  -----------------
         N           -1.815115487807    -0.160501459437    -0.003184283780    14.003074004430
         N           -0.297135487807    -1.848384459437    -0.011295283780    14.003074004430
         N           -0.293104487807     1.751062540563    -0.002019283780    14.003074004430
         N            2.027422512193     1.037455540563    -0.010947283780    14.003074004430
         N            2.701005512193    -1.195443459437     0.075546716220    14.003074004430
         C           -0.574587487807     0.437177540563     0.001727716220    12.000000000000
         C            0.340816512193    -0.624482459437     0.005137716220    12.000000000000
         C           -1.582742487807    -1.514470459437    -0.009380283780    12.000000000000
         C            1.603295912193    -0.289675859437    -0.001107183780    12.000000000000
         C           -3.091279487807     0.534125540563    -0.000207283780    12.000000000000
         C            1.032071512193     1.951899540563    -0.012215283780    12.000000000000
         H           -2.404446487807    -2.222308459437    -0.015730283780     1.007825032230
         H           -3.171308487807     1.170615540563    -0.883175283780     1.007825032230
         H           -3.888427487807    -0.210505459437    -0.009772283780     1.007825032230
         H           -3.177008487807     1.153602540563     0.894322716220     1.007825032230
         H            1.356664512193     2.990469540563    -0.015972283780     1.007825032230
         H            3.610649512193    -0.861779459437    -0.222624283780     1.007825032230
         H            2.453674512193    -2.131472459437    -0.224334283780     1.007825032230

  Basis Set: AUG-CC-PVTZ
    Blend: AUG-CC-PVTZ
  Basis Set: (AUG-CC-PVTZ AUX)
    Blend: AUG-CC-PVTZ-JKFIT
	 Reference Energy          =    -503.7094478082627802 [Eh]
	 Singles Energy            =      -0.0000000000000000 [Eh]
	 Same-Spin Energy          =      -0.5489716441615139 [Eh]
	 Opposite-Spin Energy      =      -1.6341624239052293 [Eh]
	 Correlation Energy        =      -2.1831340680667433 [Eh]
	 Total Energy              =    -505.8925818763295297 [Eh]

	 ================> DF-SCS-MP2 Energies <==================
	-----------------------------------------------------------
	 SCS Same-Spin Scale       =       0.3333333333333333 [-]
	 SCS Opposite-Spin Scale   =       1.2000000000000000 [-]
	 SCS Same-Spin Energy      =      -0.1829905480538380 [Eh]
	 SCS Opposite-Spin Energy  =      -1.9609949086862750 [Eh]
	 SCS Correlation Energy    =      -2.1439854567401131 [Eh]
	 SCS Total Energy          =    -505.8534332650028773 [Eh]
	-----------------------------------------------------------

  Dipole Moment: [D]
     X:    -3.3049      Y:    -0.9750      Z:    -0.8009     Total:     3.5376

*** Psi4 exiting successfully. Buy a developer a beer!
