                               Psi4 1.3.2 release

  ==> Input File <==

--------------------------------------------------------------------------
#psi4
#
memory 32 gb

molecule  {
0 1
  N       -1.7893040    -0.1617730    -0.0001110
  N       -0.2713240    -1.8496560    -0.0082220
  N       -0.2672930     1.7497910     0.0010540
  N        2.0532340     1.0361840    -0.0078740
  N        2.7268170    -1.1967150     0.0786200
  C       -0.5487760     0.4359060     0.0048010
  C        0.3666280    -0.6257540     0.0082110
  C       -1.5451243    -1.5136627    -0.0062954
  C        1.7257650    -0.2653140     0.0014880
  C       -3.0593577     0.5439639     0.0029182
  C        1.0578830     1.9506280    -0.0091420
  H       -2.3786350    -2.2235800    -0.0126570
  H       -3.1454970     1.1693440    -0.8801020
  H       -3.8626160    -0.2117770    -0.0066990
  H       -3.1511970     1.1523310     0.8973960
  H        1.3824760     2.9891980    -0.0128990
  H        3.6364610    -0.8630510    -0.2195510
  H        2.4794860    -2.1327440    -0.2212610
units angstrom
no_reorient  #important for SAPT in psi4, default
symmetry c1  #important for SAPT in psi4, default
}

set PROPERTIES_ORIGIN ["COM"]
properties('MP2/aug-cc-pvtz', properties = ['dipole'])
--------------------------------------------------------------------------

    Molecular point group: c1
  Charge       = 0
  Multiplicity = 1
  Basis Set: AUG-CC-PVTZ
    Blend: AUG-CC-PVTZ
  Basis Set: (AUG-CC-PVTZ AUX)
    Blend: AUG-CC-PVTZ-JKFIT

    Orbital Energies [Eh]
    ---------------------

    Doubly Occupied:

       1A    -15.632212     2A    -15.580942     3A    -15.566917
       4A    -15.560584     5A    -15.552241     6A    -11.334346
       7A    -11.322411     8A    -11.312879     9A    -11.311621
      10A    -11.288889    11A    -11.251745    12A     -1.369081
      13A     -1.296225    14A     -1.242886    15A     -1.199025
      16A     -1.151757    17A     -1.031615    18A     -0.986274
      19A     -0.889500    20A     -0.872732    21A     -0.801917
      22A     -0.753394    23A     -0.723924    24A     -0.680236
      25A     -0.673172    26A     -0.667840    27A     -0.624731
      28A     -0.605817    29A     -0.596884    30A     -0.591178
      31A     -0.568535    32A     -0.538316    33A     -0.495950
      34A     -0.493331    35A     -0.450831    36A     -0.415143
      37A     -0.408826    38A     -0.368327    39A     -0.308696

  @DF-RHF Final Energy:  -503.72525372194065

   => Energetics <=

    Nuclear Repulsion Energy =            594.6068388753875524
    One-Electron Energy =               -1863.6223268619723967
    Two-Electron Energy =                 765.2902342646442548
    Total Energy =                       -503.7252537219407031
  Basis Set: (AUG-CC-PVTZ AUX)
    Blend: AUG-CC-PVTZ-RI
    Molecular point group: c1

    Geometry (in Angstrom), charge = 0, multiplicity = 1:

       Center              X                  Y                   Z               Mass
    ------------   -----------------  -----------------  -----------------  -----------------
         N           -1.824338630360    -0.163626640534    -0.003150933037    14.003074004430
         N           -0.306358630360    -1.851509640534    -0.011261933037    14.003074004430
         N           -0.302327630360     1.747937359466    -0.001985933037    14.003074004430
         N            2.018199369640     1.034330359466    -0.010913933037    14.003074004430
         N            2.691782369640    -1.198568640534     0.075580066963    14.003074004430
         C           -0.583810630360     0.434052359466     0.001761066963    12.000000000000
         C            0.331593369640    -0.627607640534     0.005171066963    12.000000000000
         C           -1.580158930360    -1.515516340534    -0.009335333037    12.000000000000
         C            1.690730369640    -0.267167640534    -0.001551933037    12.000000000000
         C           -3.094392330360     0.542110259466    -0.000121733037    12.000000000000
         C            1.022848369640     1.948774359466    -0.012181933037    12.000000000000
         H           -2.413669630360    -2.225433640534    -0.015696933037     1.007825032230
         H           -3.180531630360     1.167490359466    -0.883141933037     1.007825032230
         H           -3.897650630360    -0.213630640534    -0.009738933037     1.007825032230
         H           -3.186231630360     1.150477359466     0.894356066963     1.007825032230
         H            1.347441369640     2.987344359466    -0.015938933037     1.007825032230
         H            3.601426369640    -0.864904640534    -0.222590933037     1.007825032230
         H            2.444451369640    -2.134597640534    -0.224300933037     1.007825032230

  Basis Set: AUG-CC-PVTZ
    Blend: AUG-CC-PVTZ
  Basis Set: (AUG-CC-PVTZ AUX)
    Blend: AUG-CC-PVTZ-JKFIT
	 Reference Energy          =    -503.7252537219406463 [Eh]
	 Singles Energy            =      -0.0000000000000000 [Eh]
	 Same-Spin Energy          =      -0.5490165114183785 [Eh]
	 Opposite-Spin Energy      =      -1.6326471347842717 [Eh]
	 Correlation Energy        =      -2.1816636462026500 [Eh]
	 Total Energy              =    -505.9069173681432972 [Eh]

	 ================> DF-SCS-MP2 Energies <==================
	-----------------------------------------------------------
	 SCS Same-Spin Scale       =       0.3333333333333333 [-]
	 SCS Opposite-Spin Scale   =       1.2000000000000000 [-]
	 SCS Same-Spin Energy      =      -0.1830055038061262 [Eh]
	 SCS Opposite-Spin Energy  =      -1.9591765617411259 [Eh]
	 SCS Correlation Energy    =      -2.1421820655472521 [Eh]
	 SCS Total Energy          =    -505.8674357874879206 [Eh]
	-----------------------------------------------------------

  Dipole Moment: [D]
     X:    -2.7183      Y:    -1.1630      Z:    -0.7892     Total:     3.0601

*** Psi4 exiting successfully. Buy a developer a beer!
