                               Psi4 1.3.2 release

  ==> Input File <==

--------------------------------------------------------------------------
#psi4
#
memory 32 gb

molecule  {
0 1
  N       -1.7893040    -0.1617730    -0.0001110
  N       -0.2713240    -1.8496560    -0.0082220
  N       -0.2672930     1.7497910     0.0010540
  N        2.0532340     1.0361840    -0.0078740
  N        2.7268170    -1.1967150     0.0786200
  C       -0.5487760     0.4359060     0.0048010
  C        0.3666280    -0.6257540     0.0082110
  C       -1.4601425    -1.5408811    -0.0064512
  C        1.7257650    -0.2653140     0.0014880
  C       -3.0654680     0.5328540     0.0028660
  C        1.0578830     1.9506280    -0.0091420
  H       -2.3786350    -2.2235800    -0.0126570
  H       -3.1454970     1.1693440    -0.8801020
  H       -3.8626160    -0.2117770    -0.0066990
  H       -3.1511970     1.1523310     0.8973960
  H        1.3824760     2.9891980    -0.0128990
  H        3.6364610    -0.8630510    -0.2195510
  H        2.4794860    -2.1327440    -0.2212610
units angstrom
no_reorient  #important for SAPT in psi4, default
symmetry c1  #important for SAPT in psi4, default
}

set PROPERTIES_ORIGIN ["COM"]
properties('MP2/aug-cc-pvtz', properties = ['dipole'])
--------------------------------------------------------------------------

    Molecular point group: c1
  Charge       = 0
  Multiplicity = 1
  Basis Set: AUG-CC-PVTZ
    Blend: AUG-CC-PVTZ
  Basis Set: (AUG-CC-PVTZ AUX)
    Blend: AUG-CC-PVTZ-JKFIT

    Orbital Energies [Eh]
    ---------------------

    Doubly Occupied:

       1A    -15.622305     2A    -15.581291     3A    -15.565426
       4A    -15.559188     5A    -15.551204     6A    -11.334553
       7A    -11.320016     8A    -11.314700     9A    -11.313012
      10A    -11.286078    11A    -11.251879    12A     -1.374063
      13A     -1.296837    14A     -1.250299    15A     -1.210454
      16A     -1.150669    17A     -1.036877    18A     -0.980689
      19A     -0.884604    20A     -0.870439    21A     -0.798555
      22A     -0.753412    23A     -0.723915    24A     -0.681500
      25A     -0.671251    26A     -0.664124    27A     -0.627615
      28A     -0.601328    29A     -0.596191    30A     -0.588024
      31A     -0.569654    32A     -0.542128    33A     -0.499397
      34A     -0.492156    35A     -0.451947    36A     -0.420928
      37A     -0.409209    38A     -0.364009    39A     -0.317807

  @DF-RHF Final Energy:  -503.71702935654162

   => Energetics <=

    Nuclear Repulsion Energy =            595.5512513490070887
    One-Electron Energy =               -1865.4810935794289435
    Two-Electron Energy =                 766.2128128738802388
    Total Energy =                       -503.7170293565416159
  Basis Set: (AUG-CC-PVTZ AUX)
    Blend: AUG-CC-PVTZ-RI
    Molecular point group: c1

    Geometry (in Angstrom), charge = 0, multiplicity = 1:

       Center              X                  Y                   Z               Mass
    ------------   -----------------  -----------------  -----------------  -----------------
         N           -1.830687708496    -0.160541250100    -0.003134189242    14.003074004430
         N           -0.312707708496    -1.848424250100    -0.011245189242    14.003074004430
         N           -0.308676708496     1.751022749900    -0.001969189242    14.003074004430
         N            2.011850291504     1.037415749900    -0.010897189242    14.003074004430
         N            2.685433291504    -1.195483250100     0.075596810758    14.003074004430
         C           -0.590159708496     0.437137749900     0.001777810758    12.000000000000
         C            0.325244291504    -0.624522250100     0.005187810758    12.000000000000
         C           -1.501526208496    -1.539649350100    -0.009474389242    12.000000000000
         C            1.684381291504    -0.264082250100    -0.001535189242    12.000000000000
         C           -3.106851708496     0.534085749900    -0.000157189242    12.000000000000
         C            1.016499291504     1.951859749900    -0.012165189242    12.000000000000
         H           -2.420018708496    -2.222348250100    -0.015680189242     1.007825032230
         H           -3.186880708496     1.170575749900    -0.883125189242     1.007825032230
         H           -3.903999708496    -0.210545250100    -0.009722189242     1.007825032230
         H           -3.192580708496     1.153562749900     0.894372810758     1.007825032230
         H            1.341092291504     2.990429749900    -0.015922189242     1.007825032230
         H            3.595077291504    -0.861819250100    -0.222574189242     1.007825032230
         H            2.438102291504    -2.131512250100    -0.224284189242     1.007825032230

  Basis Set: AUG-CC-PVTZ
    Blend: AUG-CC-PVTZ
  Basis Set: (AUG-CC-PVTZ AUX)
    Blend: AUG-CC-PVTZ-JKFIT
	 Reference Energy          =    -503.7170293565416159 [Eh]
	 Singles Energy            =      -0.0000000000000000 [Eh]
	 Same-Spin Energy          =      -0.5468080713130035 [Eh]
	 Opposite-Spin Energy      =      -1.6291045935056367 [Eh]
	 Correlation Energy        =      -2.1759126648186404 [Eh]
	 Total Energy              =    -505.8929420213602839 [Eh]

	 ================> DF-SCS-MP2 Energies <==================
	-----------------------------------------------------------
	 SCS Same-Spin Scale       =       0.3333333333333333 [-]
	 SCS Opposite-Spin Scale   =       1.2000000000000000 [-]
	 SCS Same-Spin Energy      =      -0.1822693571043345 [Eh]
	 SCS Opposite-Spin Energy  =      -1.9549255122067639 [Eh]
	 SCS Correlation Energy    =      -2.1371948693110983 [Eh]
	 SCS Total Energy          =    -505.8542242258527040 [Eh]
	-----------------------------------------------------------

  Dipole Moment: [D]
     X:    -2.5149      Y:    -1.3835      Z:    -0.7917     Total:     2.9775

*** Psi4 exiting successfully. Buy a developer a beer!
