                               Psi4 1.3.2 release

  ==> Input File <==

--------------------------------------------------------------------------
#psi4
#
memory 32 gb

molecule  {
0 1
  N       -1.7893040    -0.1617730    -0.0001110
  N       -0.2713240    -1.8496560    -0.0082220
  N       -0.2672930     1.7497910     0.0010540
  N        2.0532340     1.0361840    -0.0078740
  N        2.7268170    -1.1967150     0.0786200
  C       -0.5487760     0.4359060     0.0048010
  C        0.3666280    -0.6257540     0.0082110
  C       -1.5569310    -1.5157420    -0.0063070
  C        1.7336024    -0.2573124    -0.0026810
  C       -3.0654680     0.5328540     0.0028660
  C        1.0578830     1.9506280    -0.0091420
  H       -2.3786350    -2.2235800    -0.0126570
  H       -3.1454970     1.1693440    -0.8801020
  H       -3.8626160    -0.2117770    -0.0066990
  H       -3.1511970     1.1523310     0.8973960
  H        1.3824760     2.9891980    -0.0128990
  H        3.6329432    -0.8551193    -0.2212759
  H        2.4794860    -2.1327440    -0.2212610
units angstrom
no_reorient  #important for SAPT in psi4, default
symmetry c1  #important for SAPT in psi4, default
}

set PROPERTIES_ORIGIN ["COM"]
properties('MP2/aug-cc-pvtz', properties = ['dipole'])
--------------------------------------------------------------------------

    Molecular point group: c1
  Charge       = 0
  Multiplicity = 1
  Basis Set: AUG-CC-PVTZ
    Blend: AUG-CC-PVTZ
  Basis Set: (AUG-CC-PVTZ AUX)
    Blend: AUG-CC-PVTZ-JKFIT

    Orbital Energies [Eh]
    ---------------------

    Doubly Occupied:

       1A    -15.632768     2A    -15.581025     3A    -15.567196
       4A    -15.561225     5A    -15.552263     6A    -11.334759
       7A    -11.321931     8A    -11.312226     9A    -11.311953
      10A    -11.288491    11A    -11.252318    12A     -1.367353
      13A     -1.297757    14A     -1.242367    15A     -1.196599
      16A     -1.153878    17A     -1.030086    18A     -0.985312
      19A     -0.890588    20A     -0.872194    21A     -0.802321
      22A     -0.753849    23A     -0.724055    24A     -0.679701
      25A     -0.674875    26A     -0.666061    27A     -0.625283
      28A     -0.605671    29A     -0.596678    30A     -0.590899
      31A     -0.571660    32A     -0.537538    33A     -0.495485
      34A     -0.492712    35A     -0.450930    36A     -0.414023
      37A     -0.408232    38A     -0.369268    39A     -0.306978

  @DF-RHF Final Energy:  -503.72478433644358

   => Energetics <=

    Nuclear Repulsion Energy =            594.3013463882092537
    One-Electron Energy =               -1863.0152426167078374
    Two-Electron Energy =                 764.9891118920548934
    Total Energy =                       -503.7247843364435766
  Basis Set: (AUG-CC-PVTZ AUX)
    Blend: AUG-CC-PVTZ-RI
    Molecular point group: c1

    Geometry (in Angstrom), charge = 0, multiplicity = 1:

       Center              X                  Y                   Z               Mass
    ------------   -----------------  -----------------  -----------------  -----------------
         N           -1.823503449535    -0.163262668029    -0.002798535196    14.003074004430
         N           -0.305523449535    -1.851145668029    -0.010909535196    14.003074004430
         N           -0.301492449535     1.748301331971    -0.001633535196    14.003074004430
         N            2.019034550465     1.034694331971    -0.010561535196    14.003074004430
         N            2.692617550465    -1.198204668029     0.075932464804    14.003074004430
         C           -0.582975449535     0.434416331971     0.002113464804    12.000000000000
         C            0.332428550465    -0.627243668029     0.005523464804    12.000000000000
         C           -1.591130449535    -1.517231668029    -0.008994535196    12.000000000000
         C            1.699402950465    -0.258802068029    -0.005368535196    12.000000000000
         C           -3.099667449535     0.531364331971     0.000178464804    12.000000000000
         C            1.023683550465     1.949138331971    -0.011829535196    12.000000000000
         H           -2.412834449535    -2.225069668029    -0.015344535196     1.007825032230
         H           -3.179696449535     1.167854331971    -0.882789535196     1.007825032230
         H           -3.896815449535    -0.213266668029    -0.009386535196     1.007825032230
         H           -3.185396449535     1.150841331971     0.894708464804     1.007825032230
         H            1.348276550465     2.987708331971    -0.015586535196     1.007825032230
         H            3.598743750465    -0.856608968029    -0.223963435196     1.007825032230
         H            2.445286550465    -2.134233668029    -0.223948535196     1.007825032230

  Basis Set: AUG-CC-PVTZ
    Blend: AUG-CC-PVTZ
  Basis Set: (AUG-CC-PVTZ AUX)
    Blend: AUG-CC-PVTZ-JKFIT
	 Reference Energy          =    -503.7247843364435766 [Eh]
	 Singles Energy            =      -0.0000000000000000 [Eh]
	 Same-Spin Energy          =      -0.5492849547016985 [Eh]
	 Opposite-Spin Energy      =      -1.6330722150403554 [Eh]
	 Correlation Energy        =      -2.1823571697420538 [Eh]
	 Total Energy              =    -505.9071415061856101 [Eh]

	 ================> DF-SCS-MP2 Energies <==================
	-----------------------------------------------------------
	 SCS Same-Spin Scale       =       0.3333333333333333 [-]
	 SCS Opposite-Spin Scale   =       1.2000000000000000 [-]
	 SCS Same-Spin Energy      =      -0.1830949849005661 [Eh]
	 SCS Opposite-Spin Energy  =      -1.9596866580484265 [Eh]
	 SCS Correlation Energy    =      -2.1427816429489925 [Eh]
	 SCS Total Energy          =    -505.8675659793925661 [Eh]
	-----------------------------------------------------------

  Dipole Moment: [D]
     X:    -2.7205      Y:    -1.1314      Z:    -0.7947     Total:     3.0516

*** Psi4 exiting successfully. Buy a developer a beer!
