                               Psi4 1.3.2 release

  ==> Input File <==

--------------------------------------------------------------------------
#psi4
#
memory 32 gb

molecule  {
0 1
  N       -1.7893040    -0.1617730    -0.0001110
  N       -0.2713240    -1.8496560    -0.0082220
  N       -0.3364425     1.7627219     0.0009931
  N        2.0532340     1.0361840    -0.0078740
  N        2.7268170    -1.1967150     0.0786200
  C       -0.5487760     0.4359060     0.0048010
  C        0.3098102    -0.6722074     0.0083278
  C       -1.5569310    -1.5157420    -0.0063070
  C        1.7257650    -0.2653140     0.0014880
  C       -3.0654680     0.5328540     0.0028660
  C        1.0578830     1.9506280    -0.0091420
  H       -2.3786350    -2.2235800    -0.0126570
  H       -3.1454970     1.1693440    -0.8801020
  H       -3.8626160    -0.2117770    -0.0066990
  H       -3.1511970     1.1523310     0.8973960
  H        1.3824760     2.9891980    -0.0128990
  H        3.6364610    -0.8630510    -0.2195510
  H        2.4794860    -2.1327440    -0.2212610
units angstrom
no_reorient  #important for SAPT in psi4, default
symmetry c1  #important for SAPT in psi4, default
}

set PROPERTIES_ORIGIN ["COM"]
properties('MP2/aug-cc-pvtz', properties = ['dipole'])
--------------------------------------------------------------------------

    Molecular point group: c1
  Charge       = 0
  Multiplicity = 1
  Basis Set: AUG-CC-PVTZ
    Blend: AUG-CC-PVTZ
  Basis Set: (AUG-CC-PVTZ AUX)
    Blend: AUG-CC-PVTZ-JKFIT

    Orbital Energies [Eh]
    ---------------------

    Doubly Occupied:

       1A    -15.629643     2A    -15.585668     3A    -15.566855
       4A    -15.564512     5A    -15.559760     6A    -11.343457
       7A    -11.321834     8A    -11.318874     9A    -11.305793
      10A    -11.285507    11A    -11.255033    12A     -1.373065
      13A     -1.291661    14A     -1.240994    15A     -1.205467
      16A     -1.152950    17A     -1.020477    18A     -0.984784
      19A     -0.891525    20A     -0.863301    21A     -0.801654
      22A     -0.749485    23A     -0.730627    24A     -0.679823
      25A     -0.669926    26A     -0.664858    27A     -0.625022
      28A     -0.599102    29A     -0.592489    30A     -0.581424
      31A     -0.565980    32A     -0.538715    33A     -0.499285
      34A     -0.490964    35A     -0.464318    36A     -0.419025
      37A     -0.408837    38A     -0.373172    39A     -0.293292

  @DF-RHF Final Energy:  -503.70588463841727

   => Energetics <=

    Nuclear Repulsion Energy =            593.2538147059606217
    One-Electron Energy =               -1860.9010866314247323
    Two-Electron Energy =                 763.9413872870468367
    Total Energy =                       -503.7058846384172739
  Basis Set: (AUG-CC-PVTZ AUX)
    Blend: AUG-CC-PVTZ-RI
    Molecular point group: c1

    Geometry (in Angstrom), charge = 0, multiplicity = 1:

       Center              X                  Y                   Z               Mass
    ------------   -----------------  -----------------  -----------------  -----------------
         N           -1.811826915403    -0.160040148755    -0.003149478774    14.003074004430
         N           -0.293846915403    -1.847923148755    -0.011260478774    14.003074004430
         N           -0.358965415403     1.764454751245    -0.002045378774    14.003074004430
         N            2.030711084597     1.037916851245    -0.010912478774    14.003074004430
         N            2.704294084597    -1.194982148755     0.075581521226    14.003074004430
         C           -0.571298915403     0.437638851245     0.001762521226    12.000000000000
         C            0.287287284597    -0.670474548755     0.005289321226    12.000000000000
         C           -1.579453915403    -1.514009148755    -0.009345478774    12.000000000000
         C            1.703242084597    -0.263581148755    -0.001550478774    12.000000000000
         C           -3.087990915403     0.534586851245    -0.000172478774    12.000000000000
         C            1.035360084597     1.952360851245    -0.012180478774    12.000000000000
         H           -2.401157915403    -2.221847148755    -0.015695478774     1.007825032230
         H           -3.168019915403     1.171076851245    -0.883140478774     1.007825032230
         H           -3.885138915403    -0.210044148755    -0.009737478774     1.007825032230
         H           -3.173719915403     1.154063851245     0.894357521226     1.007825032230
         H            1.359953084597     2.990930851245    -0.015937478774     1.007825032230
         H            3.613938084597    -0.861318148755    -0.222589478774     1.007825032230
         H            2.456963084597    -2.131011148755    -0.224299478774     1.007825032230

  Basis Set: AUG-CC-PVTZ
    Blend: AUG-CC-PVTZ
  Basis Set: (AUG-CC-PVTZ AUX)
    Blend: AUG-CC-PVTZ-JKFIT
	 Reference Energy          =    -503.7058846384172739 [Eh]
	 Singles Energy            =      -0.0000000000000000 [Eh]
	 Same-Spin Energy          =      -0.5514555207982255 [Eh]
	 Opposite-Spin Energy      =      -1.6367948694775005 [Eh]
	 Correlation Energy        =      -2.1882503902757260 [Eh]
	 Total Energy              =    -505.8941350286929719 [Eh]

	 ================> DF-SCS-MP2 Energies <==================
	-----------------------------------------------------------
	 SCS Same-Spin Scale       =       0.3333333333333333 [-]
	 SCS Opposite-Spin Scale   =       1.2000000000000000 [-]
	 SCS Same-Spin Energy      =      -0.1838185069327418 [Eh]
	 SCS Opposite-Spin Energy  =      -1.9641538433730006 [Eh]
	 SCS Correlation Energy    =      -2.1479723503057424 [Eh]
	 SCS Total Energy          =    -505.8538569887230096 [Eh]
	-----------------------------------------------------------

  Dipole Moment: [D]
     X:    -2.4932      Y:    -1.3245      Z:    -0.7835     Total:     2.9299

*** Psi4 exiting successfully. Buy a developer a beer!
