                               Psi4 1.3.2 release

  ==> Input File <==

--------------------------------------------------------------------------
#psi4
#
memory 32 gb

molecule  {
0 1
  N       -1.7893040    -0.1617730    -0.0001110
  N       -0.2713240    -1.8496560    -0.0082220
  N       -0.2672930     1.7497910     0.0010540
  N        2.0532340     1.0361840    -0.0078740
  N        2.7268170    -1.1967150     0.0786200
  C       -0.5540391     0.4467086     0.0048620
  C        0.3666280    -0.6257540     0.0082110
  C       -1.5569310    -1.5157420    -0.0063070
  C        1.7257650    -0.2653140     0.0014880
  C       -3.0593577     0.5439638     0.0029403
  C        1.0578830     1.9506280    -0.0091420
  H       -2.3786350    -2.2235800    -0.0126570
  H       -3.1454970     1.1693440    -0.8801020
  H       -3.8626160    -0.2117770    -0.0066990
  H       -3.1511970     1.1523310     0.8973960
  H        1.3824760     2.9891980    -0.0128990
  H        3.6364610    -0.8630510    -0.2195510
  H        2.4794860    -2.1327440    -0.2212610
units angstrom
no_reorient  #important for SAPT in psi4, default
symmetry c1  #important for SAPT in psi4, default
}

set PROPERTIES_ORIGIN ["COM"]
properties('MP2/aug-cc-pvtz', properties = ['dipole'])
--------------------------------------------------------------------------

    Molecular point group: c1
  Charge       = 0
  Multiplicity = 1
  Basis Set: AUG-CC-PVTZ
    Blend: AUG-CC-PVTZ
  Basis Set: (AUG-CC-PVTZ AUX)
    Blend: AUG-CC-PVTZ-JKFIT

    Orbital Energies [Eh]
    ---------------------

    Doubly Occupied:

       1A    -15.633190     2A    -15.580318     3A    -15.567796
       4A    -15.560547     5A    -15.552804     6A    -11.333657
       7A    -11.322924     8A    -11.313740     9A    -11.312062
      10A    -11.288613    11A    -11.252445    12A     -1.367412
      13A     -1.296475    14A     -1.243512    15A     -1.196838
      16A     -1.153018    17A     -1.029742    18A     -0.985813
      19A     -0.890886    20A     -0.873438    21A     -0.801257
      22A     -0.753438    23A     -0.724453    24A     -0.680807
      25A     -0.673687    26A     -0.667624    27A     -0.624952
      28A     -0.605462    29A     -0.596969    30A     -0.591911
      31A     -0.568455    32A     -0.537377    33A     -0.496685
      34A     -0.493171    35A     -0.450582    36A     -0.414736
      37A     -0.408290    38A     -0.368827    39A     -0.306169

  @DF-RHF Final Energy:  -503.72420177507303

   => Energetics <=

    Nuclear Repulsion Energy =            594.2824727893295176
    One-Electron Energy =               -1862.9731894563710739
    Two-Electron Energy =                 764.9665148919686999
    Total Energy =                       -503.7242017750729701
  Basis Set: (AUG-CC-PVTZ AUX)
    Blend: AUG-CC-PVTZ-RI
    Molecular point group: c1

    Geometry (in Angstrom), charge = 0, multiplicity = 1:

       Center              X                  Y                   Z               Mass
    ------------   -----------------  -----------------  -----------------  -----------------
         N           -1.822964528257    -0.164328849549    -0.003156688717    14.003074004430
         N           -0.304984528257    -1.852211849549    -0.011267688717    14.003074004430
         N           -0.300953528257     1.747235150451    -0.001991688717    14.003074004430
         N            2.019573471743     1.033628150451    -0.010919688717    14.003074004430
         N            2.693156471743    -1.199270849549     0.075574311283    14.003074004430
         C           -0.587699628257     0.444152750451     0.001816311283    12.000000000000
         C            0.332967471743    -0.628309849549     0.005165311283    12.000000000000
         C           -1.590591528257    -1.518297849549    -0.009352688717    12.000000000000
         C            1.692104471743    -0.267869849549    -0.001557688717    12.000000000000
         C           -3.093018228257     0.541407950451    -0.000105388717    12.000000000000
         C            1.024222471743     1.948072150451    -0.012187688717    12.000000000000
         H           -2.412295528257    -2.226135849549    -0.015702688717     1.007825032230
         H           -3.179157528257     1.166788150451    -0.883147688717     1.007825032230
         H           -3.896276528257    -0.214332849549    -0.009744688717     1.007825032230
         H           -3.184857528257     1.149775150451     0.894350311283     1.007825032230
         H            1.348815471743     2.986642150451    -0.015944688717     1.007825032230
         H            3.602800471743    -0.865606849549    -0.222596688717     1.007825032230
         H            2.445825471743    -2.135299849549    -0.224306688717     1.007825032230

  Basis Set: AUG-CC-PVTZ
    Blend: AUG-CC-PVTZ
  Basis Set: (AUG-CC-PVTZ AUX)
    Blend: AUG-CC-PVTZ-JKFIT
	 Reference Energy          =    -503.7242017750730270 [Eh]
	 Singles Energy            =      -0.0000000000000000 [Eh]
	 Same-Spin Energy          =      -0.5494469263911881 [Eh]
	 Opposite-Spin Energy      =      -1.6332206037957839 [Eh]
	 Correlation Energy        =      -2.1826675301869720 [Eh]
	 Total Energy              =    -505.9068693052599883 [Eh]

	 ================> DF-SCS-MP2 Energies <==================
	-----------------------------------------------------------
	 SCS Same-Spin Scale       =       0.3333333333333333 [-]
	 SCS Opposite-Spin Scale   =       1.2000000000000000 [-]
	 SCS Same-Spin Energy      =      -0.1831489754637294 [Eh]
	 SCS Opposite-Spin Energy  =      -1.9598647245549405 [Eh]
	 SCS Correlation Energy    =      -2.1430137000186700 [Eh]
	 SCS Total Energy          =    -505.8672154750917116 [Eh]
	-----------------------------------------------------------

  Dipole Moment: [D]
     X:    -2.7425      Y:    -1.1437      Z:    -0.7893     Total:     3.0745

*** Psi4 exiting successfully. Buy a developer a beer!
