                               Psi4 1.3.2 release

  ==> Input File <==

--------------------------------------------------------------------------
#psi4
#
memory 32 gb

molecule  {
0 1
  N       -1.7893040    -0.1617730    -0.0001110
  N       -0.2713240    -1.8496560    -0.0082220
  N       -0.2672930     1.7497910     0.0010540
  N        2.0532340     1.0361840    -0.0078740
  N        2.7268170    -1.1967150     0.0786200
  C       -0.5487760     0.4359060     0.0048010
  C        0.3666280    -0.6257540     0.0082110
  C       -1.5569310    -1.5157420    -0.0063070
  C        1.7257650    -0.2653140     0.0014880
  C       -3.0654680     0.5328540     0.0028660
  C        1.0578830     1.9506280    -0.0091420
  H       -2.3786350    -2.2235800    -0.0126570
  H       -3.1454970     1.1693440    -0.8801020
  H       -3.8626160    -0.2117770    -0.0066990
  H       -3.1511970     1.1523310     0.8973960
  H        1.3824760     2.9891980    -0.0128990
  H        3.6265416    -0.8175230    -0.1941417
  H        2.4332085    -2.1271328    -0.1959129
units angstrom
no_reorient  #important for SAPT in psi4, default
symmetry c1  #important for SAPT in psi4, default
}

set PROPERTIES_ORIGIN ["COM"]
properties('MP2/aug-cc-pvtz', properties = ['dipole'])
--------------------------------------------------------------------------

    Molecular point group: c1
  Charge       = 0
  Multiplicity = 1
  Basis Set: AUG-CC-PVTZ
    Blend: AUG-CC-PVTZ
  Basis Set: (AUG-CC-PVTZ AUX)
    Blend: AUG-CC-PVTZ-JKFIT

    Orbital Energies [Eh]
    ---------------------

    Doubly Occupied:

       1A    -15.633176     2A    -15.581204     3A    -15.567683
       4A    -15.560354     5A    -15.552130     6A    -11.333376
       7A    -11.322647     8A    -11.312911     9A    -11.311663
      10A    -11.288757    11A    -11.251513    12A     -1.367836
      13A     -1.296479    14A     -1.242775    15A     -1.197038
      16A     -1.151717    17A     -1.031063    18A     -0.986036
      19A     -0.889675    20A     -0.872621    21A     -0.800830
      22A     -0.756286    23A     -0.722296    24A     -0.683726
      25A     -0.673788    26A     -0.666430    27A     -0.623612
      28A     -0.607523    29A     -0.596533    30A     -0.591128
      31A     -0.571998    32A     -0.536899    33A     -0.495474
      34A     -0.492801    35A     -0.450734    36A     -0.413776
      37A     -0.408643    38A     -0.368449    39A     -0.307397

  @DF-RHF Final Energy:  -503.72387899503104

   => Energetics <=

    Nuclear Repulsion Energy =            594.5027533004721363
    One-Electron Energy =               -1863.4153126466744652
    Two-Electron Energy =                 765.1886803511712287
    Total Energy =                       -503.7238789950309865
  Basis Set: (AUG-CC-PVTZ AUX)
    Blend: AUG-CC-PVTZ-RI
    Molecular point group: c1

    Geometry (in Angstrom), charge = 0, multiplicity = 1:

       Center              X                  Y                   Z               Mass
    ------------   -----------------  -----------------  -----------------  -----------------
         N           -1.822516396658    -0.162910661932    -0.003488954968    14.003074004430
         N           -0.304536396658    -1.850793661932    -0.011599954968    14.003074004430
         N           -0.300505396658     1.748653338068    -0.002323954968    14.003074004430
         N            2.020021603342     1.035046338068    -0.011251954968    14.003074004430
         N            2.693604603342    -1.197852661932     0.075242045032    14.003074004430
         C           -0.581988396658     0.434768338068     0.001423045032    12.000000000000
         C            0.333415603342    -0.626891661932     0.004833045032    12.000000000000
         C           -1.590143396658    -1.516879661932    -0.009684954968    12.000000000000
         C            1.692552603342    -0.266451661932    -0.001889954968    12.000000000000
         C           -3.098680396658     0.531716338068    -0.000511954968    12.000000000000
         C            1.024670603342     1.949490338068    -0.012519954968    12.000000000000
         H           -2.411847396658    -2.224717661932    -0.016034954968     1.007825032230
         H           -3.178709396658     1.168206338068    -0.883479954968     1.007825032230
         H           -3.895828396658    -0.212914661932    -0.010076954968     1.007825032230
         H           -3.184409396658     1.151193338068     0.894018045032     1.007825032230
         H            1.349263603342     2.988060338068    -0.016276954968     1.007825032230
         H            3.593329203342    -0.818660661932    -0.197519654968     1.007825032230
         H            2.399996103342    -2.128270461932    -0.199290854968     1.007825032230

  Basis Set: AUG-CC-PVTZ
    Blend: AUG-CC-PVTZ
  Basis Set: (AUG-CC-PVTZ AUX)
    Blend: AUG-CC-PVTZ-JKFIT
	 Reference Energy          =    -503.7238789950310434 [Eh]
	 Singles Energy            =      -0.0000000000000000 [Eh]
	 Same-Spin Energy          =      -0.5494159336137751 [Eh]
	 Opposite-Spin Energy      =      -1.6332770024699355 [Eh]
	 Correlation Energy        =      -2.1826929360837104 [Eh]
	 Total Energy              =    -505.9065719311147404 [Eh]

	 ================> DF-SCS-MP2 Energies <==================
	-----------------------------------------------------------
	 SCS Same-Spin Scale       =       0.3333333333333333 [-]
	 SCS Opposite-Spin Scale   =       1.2000000000000000 [-]
	 SCS Same-Spin Energy      =      -0.1831386445379250 [Eh]
	 SCS Opposite-Spin Energy  =      -1.9599324029639225 [Eh]
	 SCS Correlation Energy    =      -2.1430710475018473 [Eh]
	 SCS Total Energy          =    -505.8669500425328920 [Eh]
	-----------------------------------------------------------

  Dipole Moment: [D]
     X:    -2.7490      Y:    -1.1383      Z:    -0.7247     Total:     3.0624

*** Psi4 exiting successfully. Buy a developer a beer!
