                               Psi4 1.3.2 release

  ==> Input File <==

--------------------------------------------------------------------------
#psi4
#
memory 32 gb

molecule  {
0 1
  N       -1.8011107    -0.1638524    -0.0001167
  N       -0.2742869    -1.8608621    -0.0082717
  N       -0.2672930     1.7497910     0.0010540
  N        2.0532340     1.0361840    -0.0078740
  N        2.7268170    -1.1967150     0.0786200
  C       -0.5487760     0.4359060     0.0048010
  C        0.3666280    -0.6257540     0.0082110
  C       -1.5569310    -1.5157420    -0.0063070
  C        1.7257650    -0.2653140     0.0014880
  C       -3.0654680     0.5328540     0.0028660
  C        1.0578830     1.9506280    -0.0091420
  H       -2.3786350    -2.2235800    -0.0126570
  H       -3.1454970     1.1693440    -0.8801020
  H       -3.8626160    -0.2117770    -0.0066990
  H       -3.1511970     1.1523310     0.8973960
  H        1.3824760     2.9891980    -0.0128990
  H        3.6364610    -0.8630510    -0.2195510
  H        2.4794860    -2.1327440    -0.2212610
units angstrom
no_reorient  #important for SAPT in psi4, default
symmetry c1  #important for SAPT in psi4, default
}

set PROPERTIES_ORIGIN ["COM"]
properties('MP2/aug-cc-pvtz', properties = ['dipole'])
--------------------------------------------------------------------------

    Molecular point group: c1
  Charge       = 0
  Multiplicity = 1
  Basis Set: AUG-CC-PVTZ
    Blend: AUG-CC-PVTZ
  Basis Set: (AUG-CC-PVTZ AUX)
    Blend: AUG-CC-PVTZ-JKFIT

    Orbital Energies [Eh]
    ---------------------

    Doubly Occupied:

       1A    -15.633015     2A    -15.581193     3A    -15.568516
       4A    -15.561638     5A    -15.553066     6A    -11.334900
       7A    -11.323631     8A    -11.314951     9A    -11.312102
      10A    -11.287861    11A    -11.253460    12A     -1.365362
      13A     -1.296570    14A     -1.242226    15A     -1.196698
      16A     -1.152566    17A     -1.031387    18A     -0.986063
      19A     -0.889876    20A     -0.872585    21A     -0.802614
      22A     -0.753255    23A     -0.723141    24A     -0.681436
      25A     -0.672972    26A     -0.666222    27A     -0.624677
      28A     -0.607321    29A     -0.596334    30A     -0.591124
      31A     -0.569509    32A     -0.536113    33A     -0.495771
      34A     -0.494083    35A     -0.450631    36A     -0.413718
      37A     -0.408993    38A     -0.369192    39A     -0.308806

  @DF-RHF Final Energy:  -503.72400618312105

   => Energetics <=

    Nuclear Repulsion Energy =            593.7970799537587254
    One-Electron Energy =               -1861.9950185677996615
    Two-Electron Energy =                 764.4739324309200583
    Total Energy =                       -503.7240061831209914
  Basis Set: (AUG-CC-PVTZ AUX)
    Blend: AUG-CC-PVTZ-RI
    Molecular point group: c1

    Geometry (in Angstrom), charge = 0, multiplicity = 1:

       Center              X                  Y                   Z               Mass
    ------------   -----------------  -----------------  -----------------  -----------------
         N           -1.833315630280    -0.163396334327    -0.003146293138    14.003074004430
         N           -0.306491830280    -1.860406034327    -0.011301293138    14.003074004430
         N           -0.299497930280     1.750247065673    -0.001975593138    14.003074004430
         N            2.021029069720     1.036640065673    -0.010903593138    14.003074004430
         N            2.694612069720    -1.196258934327     0.075590406862    14.003074004430
         C           -0.580980930280     0.436362065673     0.001771406862    12.000000000000
         C            0.334423069720    -0.625297934327     0.005181406862    12.000000000000
         C           -1.589135930280    -1.515285934327    -0.009336593138    12.000000000000
         C            1.693560069720    -0.264857934327    -0.001541593138    12.000000000000
         C           -3.097672930280     0.533310065673    -0.000163593138    12.000000000000
         C            1.025678069720     1.951084065673    -0.012171593138    12.000000000000
         H           -2.410839930280    -2.223123934327    -0.015686593138     1.007825032230
         H           -3.177701930280     1.169800065673    -0.883131593138     1.007825032230
         H           -3.894820930280    -0.211320934327    -0.009728593138     1.007825032230
         H           -3.183401930280     1.152787065673     0.894366406862     1.007825032230
         H            1.350271069720     2.989654065673    -0.015928593138     1.007825032230
         H            3.604256069720    -0.862594934327    -0.222580593138     1.007825032230
         H            2.447281069720    -2.132287934327    -0.224290593138     1.007825032230

  Basis Set: AUG-CC-PVTZ
    Blend: AUG-CC-PVTZ
  Basis Set: (AUG-CC-PVTZ AUX)
    Blend: AUG-CC-PVTZ-JKFIT
	 Reference Energy          =    -503.7240061831210483 [Eh]
	 Singles Energy            =      -0.0000000000000000 [Eh]
	 Same-Spin Energy          =      -0.5492246632281667 [Eh]
	 Opposite-Spin Energy      =      -1.6333795547438614 [Eh]
	 Correlation Energy        =      -2.1826042179720280 [Eh]
	 Total Energy              =    -505.9066104010930758 [Eh]

	 ================> DF-SCS-MP2 Energies <==================
	-----------------------------------------------------------
	 SCS Same-Spin Scale       =       0.3333333333333333 [-]
	 SCS Opposite-Spin Scale   =       1.2000000000000000 [-]
	 SCS Same-Spin Energy      =      -0.1830748877427222 [Eh]
	 SCS Opposite-Spin Energy  =      -1.9600554656926337 [Eh]
	 SCS Correlation Energy    =      -2.1431303534353559 [Eh]
	 SCS Total Energy          =    -505.8671365365564156 [Eh]
	-----------------------------------------------------------

  Dipole Moment: [D]
     X:    -2.6803      Y:    -1.1265      Z:    -0.7892     Total:     3.0127

*** Psi4 exiting successfully. Buy a developer a beer!
