                               Psi4 1.3.2 release

  ==> Input File <==

--------------------------------------------------------------------------
#psi4
#
memory 32 gb

molecule  {
0 1
  N       -1.7893040    -0.1617730    -0.0001110
  N       -0.2713240    -1.8496560    -0.0082220
  N       -0.2672930     1.7497910     0.0010540
  N        2.0532340     1.0361840    -0.0078740
  N        2.7268170    -1.1967150     0.0786200
  C       -0.5487760     0.4359060     0.0048010
  C        0.3666280    -0.6257540     0.0082110
  C       -1.5569310    -1.5157420    -0.0063070
  C        1.7257650    -0.2653140     0.0014880
  C       -3.0654680     0.5328540     0.0028660
  C        1.0578830     1.9506280    -0.0091420
  H       -2.3786350    -2.2235800    -0.0126570
  H       -3.1454970     1.1693440    -0.8801020
  H       -3.8626160    -0.2117770    -0.0066990
  H       -3.1511970     1.1523310     0.8973960
  H        1.3824760     2.9891980    -0.0128990
  H        3.6378725    -0.8707313    -0.2237083
  H        2.4872683    -2.1334301    -0.2254076
units angstrom
no_reorient  #important for SAPT in psi4, default
symmetry c1  #important for SAPT in psi4, default
}

set PROPERTIES_ORIGIN ["COM"]
properties('MP2/aug-cc-pvtz', properties = ['dipole'])
--------------------------------------------------------------------------

    Molecular point group: c1
  Charge       = 0
  Multiplicity = 1
  Basis Set: AUG-CC-PVTZ
    Blend: AUG-CC-PVTZ
  Basis Set: (AUG-CC-PVTZ AUX)
    Blend: AUG-CC-PVTZ-JKFIT

    Orbital Energies [Eh]
    ---------------------

    Doubly Occupied:

       1A    -15.633065     2A    -15.580960     3A    -15.567294
       4A    -15.560768     5A    -15.552428     6A    -11.334721
       7A    -11.322507     8A    -11.313044     9A    -11.311577
      10A    -11.288725    11A    -11.251946    12A     -1.367783
      13A     -1.296138    14A     -1.242190    15A     -1.196818
      16A     -1.151942    17A     -1.031434    18A     -0.986058
      19A     -0.890937    20A     -0.872020    21A     -0.803150
      22A     -0.753060    23A     -0.724421    24A     -0.680438
      25A     -0.672818    26A     -0.666388    27A     -0.624777
      28A     -0.606169    29A     -0.596784    30A     -0.591461
      31A     -0.571781    32A     -0.536782    33A     -0.495603
      34A     -0.492629    35A     -0.450487    36A     -0.414289
      37A     -0.408562    38A     -0.368389    39A     -0.307844

  @DF-RHF Final Energy:  -503.72485380685328

   => Energetics <=

    Nuclear Repulsion Energy =            594.3001747594117887
    One-Electron Energy =               -1863.0136828748161406
    Two-Electron Energy =                 764.9886543085509629
    Total Energy =                       -503.7248538068532753
  Basis Set: (AUG-CC-PVTZ AUX)
    Blend: AUG-CC-PVTZ-RI
    Molecular point group: c1

    Geometry (in Angstrom), charge = 0, multiplicity = 1:

       Center              X                  Y                   Z               Mass
    ------------   -----------------  -----------------  -----------------  -----------------
         N           -1.822958486415    -0.162508359827    -0.003089656661    14.003074004430
         N           -0.304978486415    -1.850391359827    -0.011200656661    14.003074004430
         N           -0.300947486415     1.749055640173    -0.001924656661    14.003074004430
         N            2.019579513585     1.035448640173    -0.010852656661    14.003074004430
         N            2.693162513585    -1.197450359827     0.075641343339    14.003074004430
         C           -0.582430486415     0.435170640173     0.001822343339    12.000000000000
         C            0.332973513585    -0.626489359827     0.005232343339    12.000000000000
         C           -1.590585486415    -1.516477359827    -0.009285656661    12.000000000000
         C            1.692110513585    -0.266049359827    -0.001490656661    12.000000000000
         C           -3.099122486415     0.532118640173    -0.000112656661    12.000000000000
         C            1.024228513585     1.949892640173    -0.012120656661    12.000000000000
         H           -2.412289486415    -2.224315359827    -0.015635656661     1.007825032230
         H           -3.179151486415     1.168608640173    -0.883080656661     1.007825032230
         H           -3.896270486415    -0.212512359827    -0.009677656661     1.007825032230
         H           -3.184851486415     1.151595640173     0.894417343339     1.007825032230
         H            1.348821513585     2.988462640173    -0.015877656661     1.007825032230
         H            3.604218013585    -0.871466659827    -0.226686956661     1.007825032230
         H            2.453613813585    -2.134165459827    -0.228386256661     1.007825032230

  Basis Set: AUG-CC-PVTZ
    Blend: AUG-CC-PVTZ
  Basis Set: (AUG-CC-PVTZ AUX)
    Blend: AUG-CC-PVTZ-JKFIT
	 Reference Energy          =    -503.7248538068532753 [Eh]
	 Singles Energy            =      -0.0000000000000000 [Eh]
	 Same-Spin Energy          =      -0.5492564949601023 [Eh]
	 Opposite-Spin Energy      =      -1.6331126214770046 [Eh]
	 Correlation Energy        =      -2.1823691164371071 [Eh]
	 Total Energy              =    -505.9072229232903624 [Eh]

	 ================> DF-SCS-MP2 Energies <==================
	-----------------------------------------------------------
	 SCS Same-Spin Scale       =       0.3333333333333333 [-]
	 SCS Opposite-Spin Scale   =       1.2000000000000000 [-]
	 SCS Same-Spin Energy      =      -0.1830854983200341 [Eh]
	 SCS Opposite-Spin Energy  =      -1.9597351457724055 [Eh]
	 SCS Correlation Energy    =      -2.1428206440924398 [Eh]
	 SCS Total Energy          =    -505.8676744509457421 [Eh]
	-----------------------------------------------------------

  Dipole Moment: [D]
     X:    -2.7319      Y:    -1.1608      Z:    -0.7994     Total:     3.0741

*** Psi4 exiting successfully. Buy a developer a beer!
