                               Psi4 1.3.2 release

  ==> Input File <==

--------------------------------------------------------------------------
#psi4
#
memory 32 gb

molecule  {
0 1
  N       -1.7893040    -0.1617730    -0.0001110
  N       -0.2282219    -1.8711794    -0.0078577
  N       -0.2672930     1.7497910     0.0010540
  N        2.0532340     1.0361840    -0.0078740
  N        2.7268170    -1.1967150     0.0786200
  C       -0.5111714     0.4672047     0.0054773
  C        0.3666280    -0.6257540     0.0082110
  C       -1.5569310    -1.5157420    -0.0063070
  C        1.7257650    -0.2653140     0.0014880
  C       -3.0654680     0.5328540     0.0028660
  C        1.0578830     1.9506280    -0.0091420
  H       -2.3786350    -2.2235800    -0.0126570
  H       -3.1454970     1.1693440    -0.8801020
  H       -3.8626160    -0.2117770    -0.0066990
  H       -3.1511970     1.1523310     0.8973960
  H        1.3824760     2.9891980    -0.0128990
  H        3.6364610    -0.8630510    -0.2195510
  H        2.4794860    -2.1327440    -0.2212610
units angstrom
no_reorient  #important for SAPT in psi4, default
symmetry c1  #important for SAPT in psi4, default
}

set PROPERTIES_ORIGIN ["COM"]
properties('MP2/aug-cc-pvtz', properties = ['dipole'])
--------------------------------------------------------------------------

    Molecular point group: c1
  Charge       = 0
  Multiplicity = 1
  Basis Set: AUG-CC-PVTZ
    Blend: AUG-CC-PVTZ
  Basis Set: (AUG-CC-PVTZ AUX)
    Blend: AUG-CC-PVTZ-JKFIT

    Orbital Energies [Eh]
    ---------------------

    Doubly Occupied:

       1A    -15.634085     2A    -15.579665     3A    -15.570790
       4A    -15.562987     5A    -15.555193     6A    -11.331878
       7A    -11.331151     8A    -11.314441     9A    -11.313040
      10A    -11.287910    11A    -11.253662    12A     -1.357263
      13A     -1.297751    14A     -1.248043    15A     -1.187947
      16A     -1.157584    17A     -1.027225    18A     -0.983564
      19A     -0.888342    20A     -0.874171    21A     -0.803635
      22A     -0.753837    23A     -0.719830    24A     -0.680585
      25A     -0.670658    26A     -0.661726    27A     -0.624340
      28A     -0.605010    29A     -0.596072    30A     -0.590332
      31A     -0.562403    32A     -0.531793    33A     -0.499931
      34A     -0.497962    35A     -0.455319    36A     -0.414688
      37A     -0.408033    38A     -0.374469    39A     -0.301117

  @DF-RHF Final Energy:  -503.71386003868236

   => Energetics <=

    Nuclear Repulsion Energy =            593.4395263031225340
    One-Electron Energy =               -1861.2899028046265357
    Two-Electron Energy =                 764.1365164628215325
    Total Energy =                       -503.7138600386823555
  Basis Set: (AUG-CC-PVTZ AUX)
    Blend: AUG-CC-PVTZ-RI
    Molecular point group: c1

    Geometry (in Angstrom), charge = 0, multiplicity = 1:

       Center              X                  Y                   Z               Mass
    ------------   -----------------  -----------------  -----------------  -----------------
         N           -1.829972307677    -0.163062612351    -0.003234459620    14.003074004430
         N           -0.268890207677    -1.872469012351    -0.010981159620    14.003074004430
         N           -0.307961307677     1.748501387649    -0.002069459620    14.003074004430
         N            2.012565692323     1.034894387649    -0.010997459620    14.003074004430
         N            2.686148692323    -1.198004612351     0.075496540380    14.003074004430
         C           -0.551839707677     0.465915087649     0.002353840380    12.000000000000
         C            0.325959692323    -0.627043612351     0.005087540380    12.000000000000
         C           -1.597599307677    -1.517031612351    -0.009430459620    12.000000000000
         C            1.685096692323    -0.266603612351    -0.001635459620    12.000000000000
         C           -3.106136307677     0.531564387649    -0.000257459620    12.000000000000
         C            1.017214692323     1.949338387649    -0.012265459620    12.000000000000
         H           -2.419303307677    -2.224869612351    -0.015780459620     1.007825032230
         H           -3.186165307677     1.168054387649    -0.883225459620     1.007825032230
         H           -3.903284307677    -0.213066612351    -0.009822459620     1.007825032230
         H           -3.191865307677     1.151041387649     0.894272540380     1.007825032230
         H            1.341807692323     2.987908387649    -0.016022459620     1.007825032230
         H            3.595792692323    -0.864340612351    -0.222674459620     1.007825032230
         H            2.438817692323    -2.134033612351    -0.224384459620     1.007825032230

  Basis Set: AUG-CC-PVTZ
    Blend: AUG-CC-PVTZ
  Basis Set: (AUG-CC-PVTZ AUX)
    Blend: AUG-CC-PVTZ-JKFIT
	 Reference Energy          =    -503.7138600386823555 [Eh]
	 Singles Energy            =      -0.0000000000000000 [Eh]
	 Same-Spin Energy          =      -0.5509473263909034 [Eh]
	 Opposite-Spin Energy      =      -1.6362836303402519 [Eh]
	 Correlation Energy        =      -2.1872309567311552 [Eh]
	 Total Energy              =    -505.9010909954134831 [Eh]

	 ================> DF-SCS-MP2 Energies <==================
	-----------------------------------------------------------
	 SCS Same-Spin Scale       =       0.3333333333333333 [-]
	 SCS Opposite-Spin Scale   =       1.2000000000000000 [-]
	 SCS Same-Spin Energy      =      -0.1836491087969678 [Eh]
	 SCS Opposite-Spin Energy  =      -1.9635403564083023 [Eh]
	 SCS Correlation Energy    =      -2.1471894652052699 [Eh]
	 SCS Total Energy          =    -505.8610495038876138 [Eh]
	-----------------------------------------------------------

  Dipole Moment: [D]
     X:    -2.6881      Y:    -0.9684      Z:    -0.7880     Total:     2.9639

*** Psi4 exiting successfully. Buy a developer a beer!
