                               Psi4 1.3.2 release

  ==> Input File <==

--------------------------------------------------------------------------
#psi4
#
memory 32 gb

molecule  {
0 1
  N       -1.7893040    -0.1617730    -0.0001110
  N       -0.2905618    -1.9164795    -0.0087838
  N       -0.2672930     1.7497910     0.0010540
  N        2.0532340     1.0361840    -0.0078740
  N        2.7268170    -1.1967150     0.0786200
  C       -0.5487760     0.4359060     0.0048010
  C        0.3666280    -0.6257540     0.0082110
  C       -1.5569310    -1.5157420    -0.0063070
  C        1.7257650    -0.2653140     0.0014880
  C       -3.0654680     0.5328540     0.0028660
  C        1.0578830     1.9506280    -0.0091420
  H       -2.3404620    -2.2656133    -0.0129779
  H       -3.1454970     1.1693440    -0.8801020
  H       -3.8626160    -0.2117770    -0.0066990
  H       -3.1511970     1.1523310     0.8973960
  H        1.3824760     2.9891980    -0.0128990
  H        3.6364610    -0.8630510    -0.2195510
  H        2.4794860    -2.1327440    -0.2212610
units angstrom
no_reorient  #important for SAPT in psi4, default
symmetry c1  #important for SAPT in psi4, default
}

set PROPERTIES_ORIGIN ["COM"]
properties('MP2/aug-cc-pvtz', properties = ['dipole'])
--------------------------------------------------------------------------

    Molecular point group: c1
  Charge       = 0
  Multiplicity = 1
  Basis Set: AUG-CC-PVTZ
    Blend: AUG-CC-PVTZ
  Basis Set: (AUG-CC-PVTZ AUX)
    Blend: AUG-CC-PVTZ-JKFIT

    Orbital Energies [Eh]
    ---------------------

    Doubly Occupied:

       1A    -15.634035     2A    -15.580730     3A    -15.573945
       4A    -15.562471     5A    -15.553012     6A    -11.334893
       7A    -11.324251     8A    -11.317722     9A    -11.313516
      10A    -11.289369    11A    -11.255578    12A     -1.363527
      13A     -1.296661    14A     -1.241085    15A     -1.190079
      16A     -1.152487    17A     -1.034330    18A     -0.983803
      19A     -0.887355    20A     -0.874430    21A     -0.801202
      22A     -0.753360    23A     -0.721390    24A     -0.682555
      25A     -0.669857    26A     -0.666119    27A     -0.619649
      28A     -0.605917    29A     -0.593003    30A     -0.586221
      31A     -0.571767    32A     -0.536267    33A     -0.497625
      34A     -0.495263    35A     -0.449465    36A     -0.414475
      37A     -0.408965    38A     -0.367723    39A     -0.313887

  @DF-RHF Final Energy:  -503.71920419084819

   => Energetics <=

    Nuclear Repulsion Energy =            592.4091723692699816
    One-Electron Energy =               -1859.2207760273377062
    Two-Electron Energy =                 763.0923994672195931
    Total Energy =                       -503.7192041908481315
  Basis Set: (AUG-CC-PVTZ AUX)
    Blend: AUG-CC-PVTZ-RI
    Molecular point group: c1

    Geometry (in Angstrom), charge = 0, multiplicity = 1:

       Center              X                  Y                   Z               Mass
    ------------   -----------------  -----------------  -----------------  -----------------
         N           -1.821347282686    -0.156003604910    -0.003090854354    14.003074004430
         N           -0.322605082686    -1.910710104910    -0.011763654354    14.003074004430
         N           -0.299336282686     1.755560395090    -0.001925854354    14.003074004430
         N            2.021190717314     1.041953395090    -0.010853854354    14.003074004430
         N            2.694773717314    -1.190945604910     0.075640145646    14.003074004430
         C           -0.580819282686     0.441675395090     0.001821145646    12.000000000000
         C            0.334584717314    -0.619984604910     0.005231145646    12.000000000000
         C           -1.588974282686    -1.509972604910    -0.009286854354    12.000000000000
         C            1.693721717314    -0.259544604910    -0.001491854354    12.000000000000
         C           -3.097511282686     0.538623395090    -0.000113854354    12.000000000000
         C            1.025839717314     1.956397395090    -0.012121854354    12.000000000000
         H           -2.372505282686    -2.259843904910    -0.015957754354     1.007825032230
         H           -3.177540282686     1.175113395090    -0.883081854354     1.007825032230
         H           -3.894659282686    -0.206007604910    -0.009678854354     1.007825032230
         H           -3.183240282686     1.158100395090     0.894416145646     1.007825032230
         H            1.350432717314     2.994967395090    -0.015878854354     1.007825032230
         H            3.604417717314    -0.857281604910    -0.222530854354     1.007825032230
         H            2.447442717314    -2.126974604910    -0.224240854354     1.007825032230

  Basis Set: AUG-CC-PVTZ
    Blend: AUG-CC-PVTZ
  Basis Set: (AUG-CC-PVTZ AUX)
    Blend: AUG-CC-PVTZ-JKFIT
	 Reference Energy          =    -503.7192041908481883 [Eh]
	 Singles Energy            =      -0.0000000000000000 [Eh]
	 Same-Spin Energy          =      -0.5486375823467928 [Eh]
	 Opposite-Spin Energy      =      -1.6338302074884670 [Eh]
	 Correlation Energy        =      -2.1824677898352598 [Eh]
	 Total Energy              =    -505.9016719806834317 [Eh]

	 ================> DF-SCS-MP2 Energies <==================
	-----------------------------------------------------------
	 SCS Same-Spin Scale       =       0.3333333333333333 [-]
	 SCS Opposite-Spin Scale   =       1.2000000000000000 [-]
	 SCS Same-Spin Energy      =      -0.1828791941155976 [Eh]
	 SCS Opposite-Spin Energy  =      -1.9605962489861604 [Eh]
	 SCS Correlation Energy    =      -2.1434754431017580 [Eh]
	 SCS Total Energy          =    -505.8626796339499379 [Eh]
	-----------------------------------------------------------

  Dipole Moment: [D]
     X:    -2.6583      Y:    -1.0420      Z:    -0.7892     Total:     2.9622

*** Psi4 exiting successfully. Buy a developer a beer!
