                               Psi4 1.3.2 release

  ==> Input File <==

--------------------------------------------------------------------------
#psi4
#
memory 32 gb

molecule  {
0 1
  N       -1.8143233    -0.2058847    -0.0006123
  N       -0.2713240    -1.8496560    -0.0082220
  N       -0.2672930     1.7497910     0.0010540
  N        2.0532340     1.0361840    -0.0078740
  N        2.7268170    -1.1967150     0.0786200
  C       -0.5487760     0.4359060     0.0048010
  C        0.3666280    -0.6257540     0.0082110
  C       -1.5569310    -1.5157420    -0.0063070
  C        1.7257650    -0.2653140     0.0014880
  C       -3.0654680     0.5328540     0.0028660
  C        1.0578830     1.9506280    -0.0091420
  H       -2.3786350    -2.2235800    -0.0126570
  H       -3.1454970     1.1693440    -0.8801020
  H       -3.8361412    -0.2391430    -0.0068864
  H       -3.1511970     1.1523310     0.8973960
  H        1.3824760     2.9891980    -0.0128990
  H        3.6364610    -0.8630510    -0.2195510
  H        2.4794860    -2.1327440    -0.2212610
units angstrom
no_reorient  #important for SAPT in psi4, default
symmetry c1  #important for SAPT in psi4, default
}

set PROPERTIES_ORIGIN ["COM"]
properties('MP2/aug-cc-pvtz', properties = ['dipole'])
--------------------------------------------------------------------------

    Molecular point group: c1
  Charge       = 0
  Multiplicity = 1
  Basis Set: AUG-CC-PVTZ
    Blend: AUG-CC-PVTZ
  Basis Set: (AUG-CC-PVTZ AUX)
    Blend: AUG-CC-PVTZ-JKFIT

    Orbital Energies [Eh]
    ---------------------

    Doubly Occupied:

       1A    -15.633728     2A    -15.581003     3A    -15.563781
       4A    -15.561284     5A    -15.554293     6A    -11.334550
       7A    -11.320698     8A    -11.314866     9A    -11.311747
      10A    -11.290120    11A    -11.253466    12A     -1.367782
      13A     -1.298158    14A     -1.241920    15A     -1.195314
      16A     -1.153543    17A     -1.030093    18A     -0.988425
      19A     -0.892490    20A     -0.873111    21A     -0.800524
      22A     -0.752274    23A     -0.722761    24A     -0.683808
      25A     -0.674356    26A     -0.666391    27A     -0.624970
      28A     -0.612574    29A     -0.597249    30A     -0.591846
      31A     -0.560455    32A     -0.538773    33A     -0.496005
      34A     -0.493705    35A     -0.449295    36A     -0.412511
      37A     -0.407900    38A     -0.373769    39A     -0.305589

  @DF-RHF Final Energy:  -503.72077096046297

   => Energetics <=

    Nuclear Repulsion Energy =            594.0166212870670961
    One-Electron Energy =               -1862.4245287484172877
    Two-Electron Energy =                 764.6871365008871635
    Total Energy =                       -503.7207709604629144
  Basis Set: (AUG-CC-PVTZ AUX)
    Blend: AUG-CC-PVTZ-RI
    Molecular point group: c1

    Geometry (in Angstrom), charge = 0, multiplicity = 1:

       Center              X                  Y                   Z               Mass
    ------------   -----------------  -----------------  -----------------  -----------------
         N           -1.845744402363    -0.202347925585    -0.003598740050    14.003074004430
         N           -0.302745102363    -1.846119225585    -0.011208440050    14.003074004430
         N           -0.298714102363     1.753327774415    -0.001932440050    14.003074004430
         N            2.021812897637     1.039720774415    -0.010860440050    14.003074004430
         N            2.695395897637    -1.193178225585     0.075633559950    14.003074004430
         C           -0.580197102363     0.439442774415     0.001814559950    12.000000000000
         C            0.335206897637    -0.622217225585     0.005224559950    12.000000000000
         C           -1.588352102363    -1.512205225585    -0.009293440050    12.000000000000
         C            1.694343897637    -0.261777225585    -0.001498440050    12.000000000000
         C           -3.096889102363     0.536390774415    -0.000120440050    12.000000000000
         C            1.026461897637     1.954164774415    -0.012128440050    12.000000000000
         H           -2.410056102363    -2.220043225585    -0.015643440050     1.007825032230
         H           -3.176918102363     1.172880774415    -0.883088440050     1.007825032230
         H           -3.867562302363    -0.235606225585    -0.009872840050     1.007825032230
         H           -3.182618102363     1.155867774415     0.894409559950     1.007825032230
         H            1.351054897637     2.992734774415    -0.015885440050     1.007825032230
         H            3.605039897637    -0.859514225585    -0.222537440050     1.007825032230
         H            2.448064897637    -2.129207225585    -0.224247440050     1.007825032230

  Basis Set: AUG-CC-PVTZ
    Blend: AUG-CC-PVTZ
  Basis Set: (AUG-CC-PVTZ AUX)
    Blend: AUG-CC-PVTZ-JKFIT
	 Reference Energy          =    -503.7207709604629713 [Eh]
	 Singles Energy            =      -0.0000000000000000 [Eh]
	 Same-Spin Energy          =      -0.5496501561369156 [Eh]
	 Opposite-Spin Energy      =      -1.6335688412025933 [Eh]
	 Correlation Energy        =      -2.1832189973395089 [Eh]
	 Total Energy              =    -505.9039899578024801 [Eh]

	 ================> DF-SCS-MP2 Energies <==================
	-----------------------------------------------------------
	 SCS Same-Spin Scale       =       0.3333333333333333 [-]
	 SCS Opposite-Spin Scale   =       1.2000000000000000 [-]
	 SCS Same-Spin Energy      =      -0.1832167187123052 [Eh]
	 SCS Opposite-Spin Energy  =      -1.9602826094431118 [Eh]
	 SCS Correlation Energy    =      -2.1434993281554169 [Eh]
	 SCS Total Energy          =    -505.8642702886183997 [Eh]
	-----------------------------------------------------------

  Dipole Moment: [D]
     X:    -2.6856      Y:    -1.0359      Z:    -0.7884     Total:     2.9845

*** Psi4 exiting successfully. Buy a developer a beer!
