                               Psi4 1.4a3.dev225

  ==> Input File <==

--------------------------------------------------------------------------
#psi4
#
memory 32 gb

molecule  {
0 1
  N       -1.7889380    -0.1640290    -0.0179520
  N       -0.2703210    -1.8482040    -0.0023970
  N       -0.2671710     1.7490810    -0.0033560
  N        2.0541740     1.0368940    -0.0085470
  N        2.7206340    -1.1973270     0.0732090
  C       -0.5486140     0.4351420     0.0045870
  C        0.3650590    -0.6247560     0.0169900
  C       -1.5569260    -1.5161270    -0.0162740
  C        1.7266360    -0.2641570     0.0048060
  C       -3.0641060     0.5324820     0.0177850
  C        1.0564750     1.9508360    -0.0110870
  H       -2.4139882    -2.2586873    -0.0350518
  H       -2.9284720     1.5041700    -0.4579320
  H       -3.8067760    -0.0485880    -0.5312030
  H       -3.3972360     0.6796990     1.0480130
  H        1.3812150     2.9891510    -0.0228070
  H        3.6427950    -0.8729100    -0.1905990
  H        2.4748820    -2.1409930    -0.1987870
units angstrom
no_reorient  #important for SAPT in psi4, default
symmetry c1  #important for SAPT in psi4, default
}

set PROPERTIES_ORIGIN ["COM"]
properties('MP2/aug-cc-pvtz', properties = ['dipole'])
--------------------------------------------------------------------------

    Molecular point group: c1
  Charge       = 0
  Multiplicity = 1
  Basis Set: AUG-CC-PVTZ
    Blend: AUG-CC-PVTZ
  Basis Set: (AUG-CC-PVTZ AUX)
    Blend: AUG-CC-PVTZ-JKFIT

    Orbital Energies [Eh]
    ---------------------

    Doubly Occupied:

       1A    -15.632520     2A    -15.581448     3A    -15.567552
       4A    -15.559994     5A    -15.551671     6A    -11.334913
       7A    -11.326156     8A    -11.312727     9A    -11.311490
      10A    -11.286985    11A    -11.251018    12A     -1.367804
      13A     -1.296135    14A     -1.242881    15A     -1.196765
      16A     -1.151824    17A     -1.029843    18A     -0.985198
      19A     -0.887187    20A     -0.872111    21A     -0.800804
      22A     -0.752715    23A     -0.723606    24A     -0.680046
      25A     -0.673055    26A     -0.666325    27A     -0.622549
      28A     -0.604727    29A     -0.594628    30A     -0.590212
      31A     -0.570847    32A     -0.536861    33A     -0.495668
      34A     -0.491260    35A     -0.450203    36A     -0.414281
      37A     -0.408198    38A     -0.367666    39A     -0.306933

  @DF-RHF Final Energy:  -503.72245808323692

   => Energetics <=

    Nuclear Repulsion Energy =            594.3326743370128042
    One-Electron Energy =               -1863.1166503394736083
    Two-Electron Energy =                 765.0615179192238884
    Total Energy =                       -503.7224580832369156
  Basis Set: (AUG-CC-PVTZ AUX)
    Blend: AUG-CC-PVTZ-RI
    Molecular point group: c1

    Geometry (in Angstrom), charge = 0, multiplicity = 1:

       Center              X                  Y                   Z               Mass
    ------------   -----------------  -----------------  -----------------  -----------------
         N           -1.822076953738    -0.164567204710    -0.020526641077    14.003074004430
         N           -0.303459953738    -1.848742204710    -0.004971641077    14.003074004430
         N           -0.300309953738     1.748542795290    -0.005930641077    14.003074004430
         N            2.021035046262     1.036355795290    -0.011121641077    14.003074004430
         N            2.687495046262    -1.197865204710     0.070634358923    14.003074004430
         C           -0.581752953738     0.434603795290     0.002012358923    12.000000000000
         C            0.331920046262    -0.625294204710     0.014415358923    12.000000000000
         C           -1.590064953738    -1.516665204710    -0.018848641077    12.000000000000
         C            1.693497046262    -0.264695204710     0.002231358923    12.000000000000
         C           -3.097244953738     0.531943795290     0.015210358923    12.000000000000
         C            1.023336046262     1.950297795290    -0.013661641077    12.000000000000
         H           -2.447127153738    -2.259225504710    -0.037626441077     1.007825032230
         H           -2.961610953738     1.503631795290    -0.460506641077     1.007825032230
         H           -3.839914953738    -0.049126204710    -0.533777641077     1.007825032230
         H           -3.430374953738     0.679160795290     1.045438358923     1.007825032230
         H            1.348076046262     2.988612795290    -0.025381641077     1.007825032230
         H            3.609656046262    -0.873448204710    -0.193173641077     1.007825032230
         H            2.441743046262    -2.141531204710    -0.201361641077     1.007825032230

  Basis Set: AUG-CC-PVTZ
    Blend: AUG-CC-PVTZ
  Basis Set: (AUG-CC-PVTZ AUX)
    Blend: AUG-CC-PVTZ-JKFIT
	 Reference Energy          =    -503.7224580832369156 [Eh]
	 Singles Energy            =      -0.0000000000000000 [Eh]
	 Same-Spin Energy          =      -0.5494612807483079 [Eh]
	 Opposite-Spin Energy      =      -1.6333314542629156 [Eh]
	 Correlation Energy        =      -2.1827927350112235 [Eh]
	 Total Energy              =    -505.9052508182481347 [Eh]

	 ================> DF-SCS-MP2 Energies <==================
	-----------------------------------------------------------
	 SCS Same-Spin Scale       =       0.3333333333333333 [-]
	 SCS Opposite-Spin Scale   =       1.2000000000000000 [-]
	 SCS Same-Spin Energy      =      -0.1831537602494360 [Eh]
	 SCS Opposite-Spin Energy  =      -1.9599977451154986 [Eh]
	 SCS Correlation Energy    =      -2.1431515053649344 [Eh]
	 SCS Total Energy          =    -505.8656095886018420 [Eh]
	-----------------------------------------------------------

  Dipole Moment: [D]
     X:    -2.6343      Y:    -1.2079      Z:    -0.7128     Total:     2.9845

*** Psi4 exiting successfully. Buy a developer a beer!
