                               Psi4 1.3.2 release

  ==> Input File <==

--------------------------------------------------------------------------
#psi4
#
memory 32 gb

molecule  {
0 1
  N       -1.7893040    -0.1617730    -0.0001110
  N       -0.2713240    -1.8496560    -0.0082220
  N       -0.2672930     1.7497910     0.0010540
  N        2.0532340     1.0361840    -0.0078740
  N        2.7268170    -1.1967150     0.0786200
  C       -0.5487760     0.4359060     0.0048010
  C        0.3666280    -0.6257540     0.0082110
  C       -1.5569310    -1.5157420    -0.0063070
  C        1.7257650    -0.2653140     0.0014880
  C       -3.0654680     0.5328540     0.0028660
  C        1.0578830     1.9506280    -0.0091420
  H       -2.3786350    -2.2235800    -0.0126570
  H       -3.1454970     1.1693440    -0.8801020
  H       -3.8626160    -0.2117770    -0.0066990
  H       -3.1511970     1.1523310     0.8973960
  H        1.3824760     2.9891980    -0.0128990
  H        3.6416902    -0.8939189    -0.2360407
  H        2.5107222    -2.1350601    -0.2377073
units angstrom
no_reorient  #important for SAPT in psi4, default
symmetry c1  #important for SAPT in psi4, default
}

set PROPERTIES_ORIGIN ["COM"]
properties('MP2/aug-cc-pvtz', properties = ['dipole'])
--------------------------------------------------------------------------

    Molecular point group: c1
  Charge       = 0
  Multiplicity = 1
  Basis Set: AUG-CC-PVTZ
    Blend: AUG-CC-PVTZ
  Basis Set: (AUG-CC-PVTZ AUX)
    Blend: AUG-CC-PVTZ-JKFIT

    Orbital Energies [Eh]
    ---------------------

    Doubly Occupied:

       1A    -15.633033     2A    -15.580810     3A    -15.567146
       4A    -15.560961     5A    -15.552573     6A    -11.335317
       7A    -11.322465     8A    -11.313116     9A    -11.311556
      10A    -11.288721    11A    -11.252144    12A     -1.367778
      13A     -1.296033    14A     -1.241993    15A     -1.196756
      16A     -1.152082    17A     -1.031620    18A     -0.986087
      19A     -0.891539    20A     -0.871812    21A     -0.804227
      22A     -0.751873    23A     -0.725382    24A     -0.680394
      25A     -0.670727    26A     -0.666356    27A     -0.625277
      28A     -0.605304    29A     -0.596894    30A     -0.591583
      31A     -0.571664    32A     -0.536742    33A     -0.495663
      34A     -0.492571    35A     -0.450401    36A     -0.414519
      37A     -0.408545    38A     -0.368378    39A     -0.308044

  @DF-RHF Final Energy:  -503.72446780160976

   => Energetics <=

    Nuclear Repulsion Energy =            594.2182052990070815
    One-Electron Energy =               -1862.8491724331634032
    Two-Electron Energy =                 764.9064993325466730
    Total Energy =                       -503.7244678016097623
  Basis Set: (AUG-CC-PVTZ AUX)
    Blend: AUG-CC-PVTZ-RI
    Molecular point group: c1

    Geometry (in Angstrom), charge = 0, multiplicity = 1:

       Center              X                  Y                   Z               Mass
    ------------   -----------------  -----------------  -----------------  -----------------
         N           -1.823142862711    -0.162340574396    -0.002923125349    14.003074004430
         N           -0.305162862711    -1.850223574396    -0.011034125349    14.003074004430
         N           -0.301131862711     1.749223425604    -0.001758125349    14.003074004430
         N            2.019395137289     1.035616425604    -0.010686125349    14.003074004430
         N            2.692978137289    -1.197282574396     0.075807874651    14.003074004430
         C           -0.582614862711     0.435338425604     0.001988874651    12.000000000000
         C            0.332789137289    -0.626321574396     0.005398874651    12.000000000000
         C           -1.590769862711    -1.516309574396    -0.009119125349    12.000000000000
         C            1.691926137289    -0.265881574396    -0.001324125349    12.000000000000
         C           -3.099306862711     0.532286425604     0.000053874651    12.000000000000
         C            1.024044137289     1.950060425604    -0.011954125349    12.000000000000
         H           -2.412473862711    -2.224147574396    -0.015469125349     1.007825032230
         H           -3.179335862711     1.168776425604    -0.882914125349     1.007825032230
         H           -3.896454862711    -0.212344574396    -0.009511125349     1.007825032230
         H           -3.185035862711     1.151763425604     0.894583874651     1.007825032230
         H            1.348637137289     2.988630425604    -0.015711125349     1.007825032230
         H            3.607851337289    -0.894486474396    -0.238852825349     1.007825032230
         H            2.476883337289    -2.135627674396    -0.240519425349     1.007825032230

  Basis Set: AUG-CC-PVTZ
    Blend: AUG-CC-PVTZ
  Basis Set: (AUG-CC-PVTZ AUX)
    Blend: AUG-CC-PVTZ-JKFIT
	 Reference Energy          =    -503.7244678016097623 [Eh]
	 Singles Energy            =      -0.0000000000000000 [Eh]
	 Same-Spin Energy          =      -0.5492283324732256 [Eh]
	 Opposite-Spin Energy      =      -1.6330999246244478 [Eh]
	 Correlation Energy        =      -2.1823282570976734 [Eh]
	 Total Energy              =    -505.9067960587074140 [Eh]

	 ================> DF-SCS-MP2 Energies <==================
	-----------------------------------------------------------
	 SCS Same-Spin Scale       =       0.3333333333333333 [-]
	 SCS Opposite-Spin Scale   =       1.2000000000000000 [-]
	 SCS Same-Spin Energy      =      -0.1830761108244085 [Eh]
	 SCS Opposite-Spin Energy  =      -1.9597199095493372 [Eh]
	 SCS Correlation Energy    =      -2.1427960203737455 [Eh]
	 SCS Total Energy          =    -505.8672638219834994 [Eh]
	-----------------------------------------------------------

  Dipole Moment: [D]
     X:    -2.7270      Y:    -1.1689      Z:    -0.8303     Total:     3.0809

*** Psi4 exiting successfully. Buy a developer a beer!
