                               Psi4 1.4a3.dev225

  ==> Input File <==

--------------------------------------------------------------------------
#psi4
#
memory 32 gb

molecule  {
0 1
  N       -1.7889380    -0.1640290    -0.0179520
  N       -0.2703210    -1.8482040    -0.0023970
  N       -0.2671710     1.7490810    -0.0033560
  N        2.0541740     1.0368940    -0.0085470
  N        2.7206340    -1.1973270     0.0732090
  C       -0.5936300     0.4133959     0.0037690
  C        0.3650590    -0.6247560     0.0169900
  C       -1.5569260    -1.5161270    -0.0162740
  C        1.7266360    -0.2641570     0.0048060
  C       -3.0641060     0.5324820     0.0177850
  C        1.0564750     1.9508360    -0.0110870
  H       -2.3762040    -2.2259510    -0.0342240
  H       -2.9284720     1.5041700    -0.4579320
  H       -3.8067760    -0.0485880    -0.5312030
  H       -3.3972360     0.6796990     1.0480130
  H        1.3812150     2.9891510    -0.0228070
  H        3.6427950    -0.8729100    -0.1905990
  H        2.4748820    -2.1409930    -0.1987870
units angstrom
no_reorient  #important for SAPT in psi4, default
symmetry c1  #important for SAPT in psi4, default
}

set PROPERTIES_ORIGIN ["COM"]
properties('MP2/aug-cc-pvtz', properties = ['dipole'])
--------------------------------------------------------------------------

    Molecular point group: c1
  Charge       = 0
  Multiplicity = 1
  Basis Set: AUG-CC-PVTZ
    Blend: AUG-CC-PVTZ
  Basis Set: (AUG-CC-PVTZ AUX)
    Blend: AUG-CC-PVTZ-JKFIT

    Orbital Energies [Eh]
    ---------------------

    Doubly Occupied:

       1A    -15.637108     2A    -15.581185     3A    -15.570469
       4A    -15.557903     5A    -15.548461     6A    -11.334710
       7A    -11.319456     8A    -11.312353     9A    -11.309435
      10A    -11.290613    11A    -11.250133    12A     -1.378598
      13A     -1.293297    14A     -1.237153    15A     -1.201615
      16A     -1.146056    17A     -1.029905    18A     -0.991609
      19A     -0.893733    20A     -0.868671    21A     -0.803111
      22A     -0.754098    23A     -0.727749    24A     -0.681182
      25A     -0.674074    26A     -0.672716    27A     -0.623646
      28A     -0.605361    29A     -0.595053    30A     -0.591479
      31A     -0.580752    32A     -0.539388    33A     -0.491321
      34A     -0.488209    35A     -0.447691    36A     -0.417385
      37A     -0.404535    38A     -0.362287    39A     -0.306912

  @DF-RHF Final Energy:  -503.72154136808189

   => Energetics <=

    Nuclear Repulsion Energy =            594.5925364653350016
    One-Electron Energy =               -1863.5893296574349733
    Two-Electron Energy =                 765.2752518240182553
    Total Energy =                       -503.7215413680818301
  Basis Set: (AUG-CC-PVTZ AUX)
    Blend: AUG-CC-PVTZ-RI
    Molecular point group: c1

    Geometry (in Angstrom), charge = 0, multiplicity = 1:

       Center              X                  Y                   Z               Mass
    ------------   -----------------  -----------------  -----------------  -----------------
         N           -1.818708659325    -0.163037986791    -0.020466389425    14.003074004430
         N           -0.300091659325    -1.847212986791    -0.004911389425    14.003074004430
         N           -0.296941659325     1.750072013209    -0.005870389425    14.003074004430
         N            2.024403340675     1.037885013209    -0.011061389425    14.003074004430
         N            2.690863340675    -1.196335986791     0.070694610575    14.003074004430
         C           -0.623400659325     0.414386913209     0.001254610575    12.000000000000
         C            0.335288340675    -0.623764986791     0.014475610575    12.000000000000
         C           -1.586696659325    -1.515135986791    -0.018788389425    12.000000000000
         C            1.696865340675    -0.263165986791     0.002291610575    12.000000000000
         C           -3.093876659325     0.533473013209     0.015270610575    12.000000000000
         C            1.026704340675     1.951827013209    -0.013601389425    12.000000000000
         H           -2.405974659325    -2.224959986791    -0.036738389425     1.007825032230
         H           -2.958242659325     1.505161013209    -0.460446389425     1.007825032230
         H           -3.836546659325    -0.047596986791    -0.533717389425     1.007825032230
         H           -3.427006659325     0.680690013209     1.045498610575     1.007825032230
         H            1.351444340675     2.990142013209    -0.025321389425     1.007825032230
         H            3.613024340675    -0.871918986791    -0.193113389425     1.007825032230
         H            2.445111340675    -2.140001986791    -0.201301389425     1.007825032230

  Basis Set: AUG-CC-PVTZ
    Blend: AUG-CC-PVTZ
  Basis Set: (AUG-CC-PVTZ AUX)
    Blend: AUG-CC-PVTZ-JKFIT
	 Reference Energy          =    -503.7215413680818870 [Eh]
	 Singles Energy            =      -0.0000000000000000 [Eh]
	 Same-Spin Energy          =      -0.5493830316882173 [Eh]
	 Opposite-Spin Energy      =      -1.6330889503351131 [Eh]
	 Correlation Energy        =      -2.1824719820233307 [Eh]
	 Total Energy              =    -505.9040133501052310 [Eh]

	 ================> DF-SCS-MP2 Energies <==================
	-----------------------------------------------------------
	 SCS Same-Spin Scale       =       0.3333333333333333 [-]
	 SCS Opposite-Spin Scale   =       1.2000000000000000 [-]
	 SCS Same-Spin Energy      =      -0.1831276772294058 [Eh]
	 SCS Opposite-Spin Energy  =      -1.9597067404021358 [Eh]
	 SCS Correlation Energy    =      -2.1428344176315415 [Eh]
	 SCS Total Energy          =    -505.8643757857134347 [Eh]
	-----------------------------------------------------------

  Dipole Moment: [D]
     X:    -2.8347      Y:    -1.2983      Z:    -0.7143     Total:     3.1986

*** Psi4 exiting successfully. Buy a developer a beer!
