                               Psi4 1.3.2 release

  ==> Input File <==

--------------------------------------------------------------------------
#psi4
#
memory 32 gb

molecule  {
0 1
  N       -1.7893040    -0.1617730    -0.0001110
  N       -0.2713240    -1.8496560    -0.0082220
  N       -0.2672930     1.7497910     0.0010540
  N        2.0532340     1.0361840    -0.0078740
  N        2.7268170    -1.1967150     0.0786200
  C       -0.5487760     0.4359060     0.0048010
  C        0.3666280    -0.6257540     0.0082110
  C       -1.5907608    -1.3186260    -0.0054050
  C        1.7257650    -0.2653140     0.0014880
  C       -3.0654680     0.5328540     0.0028660
  C        1.0578830     1.9506280    -0.0091420
  H       -2.3786350    -2.2235800    -0.0126570
  H       -3.1454970     1.1693440    -0.8801020
  H       -3.8626160    -0.2117770    -0.0066990
  H       -3.1511970     1.1523310     0.8973960
  H        1.3824760     2.9891980    -0.0128990
  H        3.6364610    -0.8630510    -0.2195510
  H        2.4794860    -2.1327440    -0.2212610
units angstrom
no_reorient  #important for SAPT in psi4, default
symmetry c1  #important for SAPT in psi4, default
}

set PROPERTIES_ORIGIN ["COM"]
properties('MP2/aug-cc-pvtz', properties = ['dipole'])
--------------------------------------------------------------------------

    Molecular point group: c1
  Charge       = 0
  Multiplicity = 1
  Basis Set: AUG-CC-PVTZ
    Blend: AUG-CC-PVTZ
  Basis Set: (AUG-CC-PVTZ AUX)
    Blend: AUG-CC-PVTZ-JKFIT

    Orbital Energies [Eh]
    ---------------------

    Doubly Occupied:

       1A    -15.651909     2A    -15.578283     3A    -15.564671
       4A    -15.553865     5A    -15.551064     6A    -11.329399
       7A    -11.321250     8A    -11.307557     9A    -11.305039
      10A    -11.304336    11A    -11.254203    12A     -1.429164
      13A     -1.301915    14A     -1.237811    15A     -1.191925
      16A     -1.153633    17A     -1.025267    18A     -1.019781
      19A     -0.911799    20A     -0.865772    21A     -0.801121
      22A     -0.758290    23A     -0.719140    24A     -0.701028
      25A     -0.695419    26A     -0.671000    27A     -0.624106
      28A     -0.609368    29A     -0.598201    30A     -0.585773
      31A     -0.552418    32A     -0.536243    33A     -0.493394
      34A     -0.492897    35A     -0.446109    36A     -0.414324
      37A     -0.409994    38A     -0.380085    39A     -0.288069

  @DF-RHF Final Energy:  -503.65876134397320

   => Energetics <=

    Nuclear Repulsion Energy =            597.8607586429030789
    One-Electron Energy =               -1869.7677946270314351
    Two-Electron Energy =                 768.2482746401552731
    Total Energy =                       -503.6587613439731967
  Basis Set: (AUG-CC-PVTZ AUX)
    Blend: AUG-CC-PVTZ-RI
    Molecular point group: c1

    Geometry (in Angstrom), charge = 0, multiplicity = 1:

       Center              X                  Y                   Z               Mass
    ------------   -----------------  -----------------  -----------------  -----------------
         N           -1.820173063881    -0.178432566940    -0.003218407313    14.003074004430
         N           -0.302193063881    -1.866315566940    -0.011329407313    14.003074004430
         N           -0.298162063881     1.733131433060    -0.002053407313    14.003074004430
         N            2.022364936119     1.019524433060    -0.010981407313    14.003074004430
         N            2.695947936119    -1.213374566940     0.075512592687    14.003074004430
         C           -0.579645063881     0.419246433060     0.001693592687    12.000000000000
         C            0.335758936119    -0.642413566940     0.005103592687    12.000000000000
         C           -1.621629863881    -1.335285566940    -0.008512407313    12.000000000000
         C            1.694895936119    -0.281973566940    -0.001619407313    12.000000000000
         C           -3.096337063881     0.516194433060    -0.000241407313    12.000000000000
         C            1.027013936119     1.933968433060    -0.012249407313    12.000000000000
         H           -2.409504063881    -2.240239566940    -0.015764407313     1.007825032230
         H           -3.176366063881     1.152684433060    -0.883209407313     1.007825032230
         H           -3.893485063881    -0.228436566940    -0.009806407313     1.007825032230
         H           -3.182066063881     1.135671433060     0.894288592687     1.007825032230
         H            1.351606936119     2.972538433060    -0.016006407313     1.007825032230
         H            3.605591936119    -0.879710566940    -0.222658407313     1.007825032230
         H            2.448616936119    -2.149403566940    -0.224368407313     1.007825032230

  Basis Set: AUG-CC-PVTZ
    Blend: AUG-CC-PVTZ
  Basis Set: (AUG-CC-PVTZ AUX)
    Blend: AUG-CC-PVTZ-JKFIT
	 Reference Energy          =    -503.6587613439731967 [Eh]
	 Singles Energy            =      -0.0000000000000000 [Eh]
	 Same-Spin Energy          =      -0.5528256046245670 [Eh]
	 Opposite-Spin Energy      =      -1.6375738648086307 [Eh]
	 Correlation Energy        =      -2.1903994694331974 [Eh]
	 Total Energy              =    -505.8491608134063995 [Eh]

	 ================> DF-SCS-MP2 Energies <==================
	-----------------------------------------------------------
	 SCS Same-Spin Scale       =       0.3333333333333333 [-]
	 SCS Opposite-Spin Scale   =       1.2000000000000000 [-]
	 SCS Same-Spin Energy      =      -0.1842752015415223 [Eh]
	 SCS Opposite-Spin Energy  =      -1.9650886377703567 [Eh]
	 SCS Correlation Energy    =      -2.1493638393118788 [Eh]
	 SCS Total Energy          =    -505.8081251832850853 [Eh]
	-----------------------------------------------------------

  Dipole Moment: [D]
     X:    -3.2607      Y:    -0.6187      Z:    -0.7864     Total:     3.4108

*** Psi4 exiting successfully. Buy a developer a beer!
