                               Psi4 1.4a3.dev225

  ==> Input File <==

--------------------------------------------------------------------------
#psi4
#
memory 32 gb

molecule  {
0 1
  N       -1.7889380    -0.1640290    -0.0179520
  N       -0.2703210    -1.8482040    -0.0023970
  N       -0.2671710     1.7490810    -0.0033560
  N        2.0541740     1.0368940    -0.0085470
  N        2.7206340    -1.1973270     0.0732090
  C       -0.5486140     0.4351420     0.0045870
  C        0.3650590    -0.6247560     0.0169900
  C       -1.5569260    -1.5161270    -0.0162740
  C        1.7266360    -0.2641570     0.0048060
  C       -3.0641060     0.5324820     0.0177850
  C        1.0417274     1.9643455    -0.0111245
  H       -2.3762040    -2.2259510    -0.0342240
  H       -2.9284720     1.5041700    -0.4579320
  H       -3.8067760    -0.0485880    -0.5312030
  H       -3.3972360     0.6796990     1.0480130
  H        1.3812150     2.9891510    -0.0228070
  H        3.6427950    -0.8729100    -0.1905990
  H        2.4748820    -2.1409930    -0.1987870
units angstrom
no_reorient  #important for SAPT in psi4, default
symmetry c1  #important for SAPT in psi4, default
}

set PROPERTIES_ORIGIN ["COM"]
properties('MP2/aug-cc-pvtz', properties = ['dipole'])
--------------------------------------------------------------------------

    Molecular point group: c1
  Charge       = 0
  Multiplicity = 1
  Basis Set: AUG-CC-PVTZ
    Blend: AUG-CC-PVTZ
  Basis Set: (AUG-CC-PVTZ AUX)
    Blend: AUG-CC-PVTZ-JKFIT

    Orbital Energies [Eh]
    ---------------------

    Doubly Occupied:

       1A    -15.632800     2A    -15.580544     3A    -15.567513
       4A    -15.560703     5A    -15.550906     6A    -11.333783
       7A    -11.320644     8A    -11.312592     9A    -11.311575
      10A    -11.287359    11A    -11.251104    12A     -1.367806
      13A     -1.293971    14A     -1.244339    15A     -1.196635
      16A     -1.148358    17A     -1.031487    18A     -0.985375
      19A     -0.888544    20A     -0.873442    21A     -0.802961
      22A     -0.753254    23A     -0.725429    24A     -0.681424
      25A     -0.673798    26A     -0.666470    27A     -0.625098
      28A     -0.605226    29A     -0.595988    30A     -0.593074
      31A     -0.571766    32A     -0.535791    33A     -0.496672
      34A     -0.491505    35A     -0.450307    36A     -0.413274
      37A     -0.406920    38A     -0.365415    39A     -0.308194

  @DF-RHF Final Energy:  -503.72438646570458

   => Energetics <=

    Nuclear Repulsion Energy =            594.4322899463302292
    One-Electron Energy =               -1863.3092580020665991
    Two-Electron Energy =                 765.1525815900317866
    Total Energy =                       -503.7243864657045833
  Basis Set: (AUG-CC-PVTZ AUX)
    Blend: AUG-CC-PVTZ-RI
    Molecular point group: c1

    Geometry (in Angstrom), charge = 0, multiplicity = 1:

       Center              X                  Y                   Z               Mass
    ------------   -----------------  -----------------  -----------------  -----------------
         N           -1.821145235739    -0.165876027898    -0.020529218907    14.003074004430
         N           -0.302528235739    -1.850051027898    -0.004974218907    14.003074004430
         N           -0.299378235739     1.747233972102    -0.005933218907    14.003074004430
         N            2.021966764261     1.035046972102    -0.011124218907    14.003074004430
         N            2.688426764261    -1.199174027898     0.070631781093    14.003074004430
         C           -0.580821235739     0.433294972102     0.002009781093    12.000000000000
         C            0.332851764261    -0.626603027898     0.014412781093    12.000000000000
         C           -1.589133235739    -1.517974027898    -0.018851218907    12.000000000000
         C            1.694428764261    -0.266004027898     0.002228781093    12.000000000000
         C           -3.096313235739     0.530634972102     0.015207781093    12.000000000000
         C            1.009520164261     1.962498472102    -0.013701718907    12.000000000000
         H           -2.408411235739    -2.227798027898    -0.036801218907     1.007825032230
         H           -2.960679235739     1.502322972102    -0.460509218907     1.007825032230
         H           -3.838983235739    -0.050435027898    -0.533780218907     1.007825032230
         H           -3.429443235739     0.677851972102     1.045435781093     1.007825032230
         H            1.349007764261     2.987303972102    -0.025384218907     1.007825032230
         H            3.610587764261    -0.874757027898    -0.193176218907     1.007825032230
         H            2.442674764261    -2.142840027898    -0.201364218907     1.007825032230

  Basis Set: AUG-CC-PVTZ
    Blend: AUG-CC-PVTZ
  Basis Set: (AUG-CC-PVTZ AUX)
    Blend: AUG-CC-PVTZ-JKFIT
	 Reference Energy          =    -503.7243864657045833 [Eh]
	 Singles Energy            =      -0.0000000000000000 [Eh]
	 Same-Spin Energy          =      -0.5493359045325297 [Eh]
	 Opposite-Spin Energy      =      -1.6330522426259106 [Eh]
	 Correlation Energy        =      -2.1823881471584405 [Eh]
	 Total Energy              =    -505.9067746128630461 [Eh]

	 ================> DF-SCS-MP2 Energies <==================
	-----------------------------------------------------------
	 SCS Same-Spin Scale       =       0.3333333333333333 [-]
	 SCS Opposite-Spin Scale   =       1.2000000000000000 [-]
	 SCS Same-Spin Energy      =      -0.1831119681775099 [Eh]
	 SCS Opposite-Spin Energy  =      -1.9596626911510926 [Eh]
	 SCS Correlation Energy    =      -2.1427746593286026 [Eh]
	 SCS Total Energy          =    -505.8671611250331921 [Eh]
	-----------------------------------------------------------

  Dipole Moment: [D]
     X:    -2.7037      Y:    -1.1547      Z:    -0.7131     Total:     3.0252

*** Psi4 exiting successfully. Buy a developer a beer!
