                               Psi4 1.3.2 release

  ==> Input File <==

--------------------------------------------------------------------------
#psi4
#
memory 32 gb

molecule  {
0 1
  N       -1.7893040    -0.1617730    -0.0001110
  N       -0.2713240    -1.8496560    -0.0082220
  N       -0.2672930     1.7497910     0.0010540
  N        2.0532340     1.0361840    -0.0078740
  N        2.7268170    -1.1967150     0.0786200
  C       -0.5487760     0.4359060     0.0048010
  C        0.3666280    -0.6257540     0.0082110
  C       -1.5400161    -1.6143000    -0.0067580
  C        1.7257650    -0.2653140     0.0014880
  C       -3.0654680     0.5328540     0.0028660
  C        1.0578830     1.9506280    -0.0091420
  H       -2.3786350    -2.2235800    -0.0126570
  H       -3.1454970     1.1693440    -0.8801020
  H       -3.8626160    -0.2117770    -0.0066990
  H       -3.1511970     1.1523310     0.8973960
  H        1.3824760     2.9891980    -0.0128990
  H        3.6364610    -0.8630510    -0.2195510
  H        2.4794860    -2.1327440    -0.2212610
units angstrom
no_reorient  #important for SAPT in psi4, default
symmetry c1  #important for SAPT in psi4, default
}

set PROPERTIES_ORIGIN ["COM"]
properties('MP2/aug-cc-pvtz', properties = ['dipole'])
--------------------------------------------------------------------------

    Molecular point group: c1
  Charge       = 0
  Multiplicity = 1
  Basis Set: AUG-CC-PVTZ
    Blend: AUG-CC-PVTZ
  Basis Set: (AUG-CC-PVTZ AUX)
    Blend: AUG-CC-PVTZ-JKFIT

    Orbital Energies [Eh]
    ---------------------

    Doubly Occupied:

       1A    -15.621632     2A    -15.582080     3A    -15.574676
       4A    -15.558927     5A    -15.551568     6A    -11.336581
       7A    -11.324199     8A    -11.314825     9A    -11.314196
      10A    -11.281067    11A    -11.251798    12A     -1.353495
      13A     -1.293026    14A     -1.244852    15A     -1.196293
      16A     -1.150164    17A     -1.035946    18A     -0.972583
      19A     -0.892499    20A     -0.866804    21A     -0.805690
      22A     -0.752318    23A     -0.721490    24A     -0.680884
      25A     -0.672288    26A     -0.655122    27A     -0.640591
      28A     -0.602090    29A     -0.596948    30A     -0.590631
      31A     -0.567880    32A     -0.532835    33A     -0.497461
      34A     -0.487399    35A     -0.450822    36A     -0.415781
      37A     -0.407652    38A     -0.361187    39A     -0.315599

  @DF-RHF Final Energy:  -503.71689362093360

   => Energetics <=

    Nuclear Repulsion Energy =            592.8033428401740821
    One-Electron Energy =               -1860.0967075278990706
    Two-Electron Energy =                 763.5764710667913278
    Total Energy =                       -503.7168936209336607
  Basis Set: (AUG-CC-PVTZ AUX)
    Blend: AUG-CC-PVTZ-RI
    Molecular point group: c1

    Geometry (in Angstrom), charge = 0, multiplicity = 1:

       Center              X                  Y                   Z               Mass
    ------------   -----------------  -----------------  -----------------  -----------------
         N           -1.824257962296    -0.154631100898    -0.003109492144    14.003074004430
         N           -0.306277962296    -1.842514100898    -0.011220492144    14.003074004430
         N           -0.302246962296     1.756932899102    -0.001944492144    14.003074004430
         N            2.018280037704     1.043325899102    -0.010872492144    14.003074004430
         N            2.691863037704    -1.189573100898     0.075621507856    14.003074004430
         C           -0.583729962296     0.443047899102     0.001802507856    12.000000000000
         C            0.331674037704    -0.618612100898     0.005212507856    12.000000000000
         C           -1.574970062296    -1.607158100898    -0.009756492144    12.000000000000
         C            1.690811037704    -0.258172100898    -0.001510492144    12.000000000000
         C           -3.100421962296     0.539995899102    -0.000132492144    12.000000000000
         C            1.022929037704     1.957769899102    -0.012140492144    12.000000000000
         H           -2.413588962296    -2.216438100898    -0.015655492144     1.007825032230
         H           -3.180450962296     1.176485899102    -0.883100492144     1.007825032230
         H           -3.897569962296    -0.204635100898    -0.009697492144     1.007825032230
         H           -3.186150962296     1.159472899102     0.894397507856     1.007825032230
         H            1.347522037704     2.996339899102    -0.015897492144     1.007825032230
         H            3.601507037704    -0.855909100898    -0.222549492144     1.007825032230
         H            2.444532037704    -2.125602100898    -0.224259492144     1.007825032230

  Basis Set: AUG-CC-PVTZ
    Blend: AUG-CC-PVTZ
  Basis Set: (AUG-CC-PVTZ AUX)
    Blend: AUG-CC-PVTZ-JKFIT
	 Reference Energy          =    -503.7168936209336039 [Eh]
	 Singles Energy            =      -0.0000000000000000 [Eh]
	 Same-Spin Energy          =      -0.5478571603659310 [Eh]
	 Opposite-Spin Energy      =      -1.6320701265556683 [Eh]
	 Correlation Energy        =      -2.1799272869215995 [Eh]
	 Total Energy              =    -505.8968209078552150 [Eh]

	 ================> DF-SCS-MP2 Energies <==================
	-----------------------------------------------------------
	 SCS Same-Spin Scale       =       0.3333333333333333 [-]
	 SCS Opposite-Spin Scale   =       1.2000000000000000 [-]
	 SCS Same-Spin Energy      =      -0.1826190534553103 [Eh]
	 SCS Opposite-Spin Energy  =      -1.9584841518668019 [Eh]
	 SCS Correlation Energy    =      -2.1411032053221124 [Eh]
	 SCS Total Energy          =    -505.8579968262557145 [Eh]
	-----------------------------------------------------------

  Dipole Moment: [D]
     X:    -2.5143      Y:    -1.4858      Z:    -0.7905     Total:     3.0255

*** Psi4 exiting successfully. Buy a developer a beer!
