                               Psi4 1.4a3.dev225

  ==> Input File <==

--------------------------------------------------------------------------
#psi4
#
memory 32 gb

molecule  {
0 1
  N       -1.7889380    -0.1640290    -0.0179520
  N       -0.2703210    -1.8482040    -0.0023970
  N       -0.2671710     1.7490810    -0.0033560
  N        2.0541740     1.0368940    -0.0085470
  N        2.7206340    -1.1973270     0.0732090
  C       -0.5486140     0.4351420     0.0045870
  C        0.3650590    -0.6247560     0.0169900
  C       -1.5569260    -1.5161270    -0.0162740
  C        1.7266360    -0.2641570     0.0048060
  C       -3.0202385     0.5085211     0.0165556
  C        1.0564750     1.9508360    -0.0110870
  H       -2.3762040    -2.2259510    -0.0342240
  H       -2.9284720     1.5041700    -0.4579320
  H       -3.8067760    -0.0485880    -0.5312030
  H       -3.3972360     0.6796990     1.0480130
  H        1.3812150     2.9891510    -0.0228070
  H        3.6427950    -0.8729100    -0.1905990
  H        2.4748820    -2.1409930    -0.1987870
units angstrom
no_reorient  #important for SAPT in psi4, default
symmetry c1  #important for SAPT in psi4, default
}

set PROPERTIES_ORIGIN ["COM"]
properties('MP2/aug-cc-pvtz', properties = ['dipole'])
--------------------------------------------------------------------------

    Molecular point group: c1
  Charge       = 0
  Multiplicity = 1
  Basis Set: AUG-CC-PVTZ
    Blend: AUG-CC-PVTZ
  Basis Set: (AUG-CC-PVTZ AUX)
    Blend: AUG-CC-PVTZ-JKFIT

    Orbital Energies [Eh]
    ---------------------

    Doubly Occupied:

       1A    -15.633281     2A    -15.582358     3A    -15.569299
       4A    -15.561027     5A    -15.552716     6A    -11.335988
       7A    -11.322525     8A    -11.314153     9A    -11.312513
      10A    -11.285877    11A    -11.252251    12A     -1.373230
      13A     -1.298171    14A     -1.244236    15A     -1.203745
      16A     -1.153475    17A     -1.032582    18A     -0.984426
      19A     -0.892491    20A     -0.873779    21A     -0.804517
      22A     -0.755996    23A     -0.728558    24A     -0.686734
      25A     -0.675131    26A     -0.668754    27A     -0.628932
      28A     -0.608032    29A     -0.593417    30A     -0.590137
      31A     -0.564026    32A     -0.532824    33A     -0.496616
      34A     -0.492197    35A     -0.451670    36A     -0.414384
      37A     -0.408713    38A     -0.368279    39A     -0.308215

  @DF-RHF Final Energy:  -503.72246615022959

   => Energetics <=

    Nuclear Repulsion Energy =            595.6737077013847284
    One-Electron Energy =               -1865.6818357249476321
    Two-Electron Energy =                 766.2856618733333107
    Total Energy =                       -503.7224661502295930
  Basis Set: (AUG-CC-PVTZ AUX)
    Blend: AUG-CC-PVTZ-RI
    Molecular point group: c1

    Geometry (in Angstrom), charge = 0, multiplicity = 1:

       Center              X                  Y                   Z               Mass
    ------------   -----------------  -----------------  -----------------  -----------------
         N           -1.825863693609    -0.162859697570    -0.020433272130    14.003074004430
         N           -0.307246693609    -1.847034697570    -0.004878272130    14.003074004430
         N           -0.304096693609     1.750250302430    -0.005837272130    14.003074004430
         N            2.017248306391     1.038063302430    -0.011028272130    14.003074004430
         N            2.683708306391    -1.196157697570     0.070727727870    14.003074004430
         C           -0.585539693609     0.436311302430     0.002105727870    12.000000000000
         C            0.328133306391    -0.623586697570     0.014508727870    12.000000000000
         C           -1.593851693609    -1.514957697570    -0.018755272130    12.000000000000
         C            1.689710306391    -0.262987697570     0.002324727870    12.000000000000
         C           -3.057164193609     0.509690402430     0.014074327870    12.000000000000
         C            1.019549306391     1.952005302430    -0.013568272130    12.000000000000
         H           -2.413129693609    -2.224781697570    -0.036705272130     1.007825032230
         H           -2.965397693609     1.505339302430    -0.460413272130     1.007825032230
         H           -3.843701693609    -0.047418697570    -0.533684272130     1.007825032230
         H           -3.434161693609     0.680868302430     1.045531727870     1.007825032230
         H            1.344289306391     2.990320302430    -0.025288272130     1.007825032230
         H            3.605869306391    -0.871740697570    -0.193080272130     1.007825032230
         H            2.437956306391    -2.139823697570    -0.201268272130     1.007825032230

  Basis Set: AUG-CC-PVTZ
    Blend: AUG-CC-PVTZ
  Basis Set: (AUG-CC-PVTZ AUX)
    Blend: AUG-CC-PVTZ-JKFIT
	 Reference Energy          =    -503.7224661502295930 [Eh]
	 Singles Energy            =      -0.0000000000000000 [Eh]
	 Same-Spin Energy          =      -0.5496667433179938 [Eh]
	 Opposite-Spin Energy      =      -1.6330771616573521 [Eh]
	 Correlation Energy        =      -2.1827439049753457 [Eh]
	 Total Energy              =    -505.9052100552049183 [Eh]

	 ================> DF-SCS-MP2 Energies <==================
	-----------------------------------------------------------
	 SCS Same-Spin Scale       =       0.3333333333333333 [-]
	 SCS Opposite-Spin Scale   =       1.2000000000000000 [-]
	 SCS Same-Spin Energy      =      -0.1832222477726646 [Eh]
	 SCS Opposite-Spin Energy  =      -1.9596925939888223 [Eh]
	 SCS Correlation Energy    =      -2.1429148417614869 [Eh]
	 SCS Total Energy          =    -505.8653809919910600 [Eh]
	-----------------------------------------------------------

  Dipole Moment: [D]
     X:    -2.4711      Y:    -1.2571      Z:    -0.7267     Total:     2.8661

*** Psi4 exiting successfully. Buy a developer a beer!
