                               Psi4 1.4a3.dev225

  ==> Input File <==

--------------------------------------------------------------------------
#psi4
#
memory 32 gb

molecule  {
0 1
  N       -1.7889380    -0.1640290    -0.0179520
  N       -0.2703210    -1.8482040    -0.0023970
  N       -0.2671710     1.7490810    -0.0033560
  N        2.0541740     1.0368940    -0.0085470
  N        2.7206340    -1.1973270     0.0732090
  C       -0.5486140     0.4351420     0.0045870
  C        0.3977040    -0.6626256     0.0174332
  C       -1.5569260    -1.5161270    -0.0162740
  C        1.7266360    -0.2641570     0.0048060
  C       -3.0641060     0.5324820     0.0177850
  C        1.0564750     1.9508360    -0.0110870
  H       -2.3762040    -2.2259510    -0.0342240
  H       -2.9284720     1.5041700    -0.4579320
  H       -3.8067760    -0.0485880    -0.5312030
  H       -3.3972360     0.6796990     1.0480130
  H        1.3812150     2.9891510    -0.0228070
  H        3.6427950    -0.8729100    -0.1905990
  H        2.4748820    -2.1409930    -0.1987870
units angstrom
no_reorient  #important for SAPT in psi4, default
symmetry c1  #important for SAPT in psi4, default
}

set PROPERTIES_ORIGIN ["COM"]
properties('MP2/aug-cc-pvtz', properties = ['dipole'])
--------------------------------------------------------------------------

    Molecular point group: c1
  Charge       = 0
  Multiplicity = 1
  Basis Set: AUG-CC-PVTZ
    Blend: AUG-CC-PVTZ
  Basis Set: (AUG-CC-PVTZ AUX)
    Blend: AUG-CC-PVTZ-JKFIT

    Orbital Energies [Eh]
    ---------------------

    Doubly Occupied:

       1A    -15.635151     2A    -15.577360     3A    -15.567863
       4A    -15.561043     5A    -15.552009     6A    -11.330733
       7A    -11.321919     8A    -11.318554     9A    -11.311706
      10A    -11.288565    11A    -11.253347    12A     -1.366916
      13A     -1.295766    14A     -1.243603    15A     -1.199355
      16A     -1.151306    17A     -1.027242    18A     -0.988160
      19A     -0.892320    20A     -0.874784    21A     -0.797415
      22A     -0.753042    23A     -0.727867    24A     -0.681395
      25A     -0.674469    26A     -0.666405    27A     -0.626123
      28A     -0.604111    29A     -0.596191    30A     -0.593111
      31A     -0.571921    32A     -0.536543    33A     -0.496800
      34A     -0.492189    35A     -0.448957    36A     -0.416236
      37A     -0.406752    38A     -0.366602    39A     -0.302819

  @DF-RHF Final Energy:  -503.72047979283741

   => Energetics <=

    Nuclear Repulsion Energy =            594.1525224174757795
    One-Electron Energy =               -1862.7126993016381675
    Two-Electron Energy =                 764.8396970913250925
    Total Energy =                       -503.7204797928374091
  Basis Set: (AUG-CC-PVTZ AUX)
    Blend: AUG-CC-PVTZ-RI
    Molecular point group: c1

    Geometry (in Angstrom), charge = 0, multiplicity = 1:

       Center              X                  Y                   Z               Mass
    ------------   -----------------  -----------------  -----------------  -----------------
         N           -1.824960293402    -0.161740060907    -0.020567914784    14.003074004430
         N           -0.306343293402    -1.845915060907    -0.005012914784    14.003074004430
         N           -0.303193293402     1.751369939093    -0.005971914784    14.003074004430
         N            2.018151706598     1.039182939093    -0.011162914784    14.003074004430
         N            2.684611706598    -1.195038060907     0.070593085216    14.003074004430
         C           -0.584636293402     0.437430939093     0.001971085216    12.000000000000
         C            0.361681706598    -0.660336660907     0.014817285216    12.000000000000
         C           -1.592948293402    -1.513838060907    -0.018889914784    12.000000000000
         C            1.690613706598    -0.261868060907     0.002190085216    12.000000000000
         C           -3.100128293402     0.534770939093     0.015169085216    12.000000000000
         C            1.020452706598     1.953124939093    -0.013702914784    12.000000000000
         H           -2.412226293402    -2.223662060907    -0.036839914784     1.007825032230
         H           -2.964494293402     1.506458939093    -0.460547914784     1.007825032230
         H           -3.842798293402    -0.046299060907    -0.533818914784     1.007825032230
         H           -3.433258293402     0.681987939093     1.045397085216     1.007825032230
         H            1.345192706598     2.991439939093    -0.025422914784     1.007825032230
         H            3.606772706598    -0.870621060907    -0.193214914784     1.007825032230
         H            2.438859706598    -2.138704060907    -0.201402914784     1.007825032230

  Basis Set: AUG-CC-PVTZ
    Blend: AUG-CC-PVTZ
  Basis Set: (AUG-CC-PVTZ AUX)
    Blend: AUG-CC-PVTZ-JKFIT
	 Reference Energy          =    -503.7204797928374091 [Eh]
	 Singles Energy            =      -0.0000000000000000 [Eh]
	 Same-Spin Energy          =      -0.5501429977741465 [Eh]
	 Opposite-Spin Energy      =      -1.6336982323873031 [Eh]
	 Correlation Energy        =      -2.1838412301614496 [Eh]
	 Total Energy              =    -505.9043210229988858 [Eh]

	 ================> DF-SCS-MP2 Energies <==================
	-----------------------------------------------------------
	 SCS Same-Spin Scale       =       0.3333333333333333 [-]
	 SCS Opposite-Spin Scale   =       1.2000000000000000 [-]
	 SCS Same-Spin Energy      =      -0.1833809992580488 [Eh]
	 SCS Opposite-Spin Energy  =      -1.9604378788647636 [Eh]
	 SCS Correlation Energy    =      -2.1438188781228122 [Eh]
	 SCS Total Energy          =    -505.8642986709602383 [Eh]
	-----------------------------------------------------------

  Dipole Moment: [D]
     X:    -2.7741      Y:    -1.1815      Z:    -0.7132     Total:     3.0984

*** Psi4 exiting successfully. Buy a developer a beer!
