                               Psi4 1.3.2 release

  ==> Input File <==

--------------------------------------------------------------------------
#psi4
#
memory 32 gb

molecule  {
0 1
  N       -1.7893040    -0.1617730    -0.0001110
  N       -0.2713240    -1.8496560    -0.0082220
  N       -0.2672930     1.7497910     0.0010540
  N        2.0532340     1.0361840    -0.0078740
  N        2.7268170    -1.1967150     0.0786200
  C       -0.5487760     0.4359060     0.0048010
  C        0.3666280    -0.6257540     0.0082110
  C       -1.4863875    -1.5017252    -0.0062301
  C        1.7257650    -0.2653140     0.0014880
  C       -3.0273648     0.5986906     0.0031759
  C        1.0578830     1.9506280    -0.0091420
  H       -2.3786350    -2.2235800    -0.0126570
  H       -3.1454970     1.1693440    -0.8801020
  H       -3.8626160    -0.2117770    -0.0066990
  H       -3.1511970     1.1523310     0.8973960
  H        1.3824760     2.9891980    -0.0128990
  H        3.6364610    -0.8630510    -0.2195510
  H        2.4794860    -2.1327440    -0.2212610
units angstrom
no_reorient  #important for SAPT in psi4, default
symmetry c1  #important for SAPT in psi4, default
}

set PROPERTIES_ORIGIN ["COM"]
properties('MP2/aug-cc-pvtz', properties = ['dipole'])
--------------------------------------------------------------------------

    Molecular point group: c1
  Charge       = 0
  Multiplicity = 1
  Basis Set: AUG-CC-PVTZ
    Blend: AUG-CC-PVTZ
  Basis Set: (AUG-CC-PVTZ AUX)
    Blend: AUG-CC-PVTZ-JKFIT

    Orbital Energies [Eh]
    ---------------------

    Doubly Occupied:

       1A    -15.628571     2A    -15.580905     3A    -15.564841
       4A    -15.560264     5A    -15.551822     6A    -11.333808
       7A    -11.322123     8A    -11.312546     9A    -11.312071
      10A    -11.290593    11A    -11.251629    12A     -1.377238
      13A     -1.296952    14A     -1.247639    15A     -1.209422
      16A     -1.151359    17A     -1.033266    18A     -0.988042
      19A     -0.884178    20A     -0.875662    21A     -0.798493
      22A     -0.753905    23A     -0.724057    24A     -0.681964
      25A     -0.676509    26A     -0.671395    27A     -0.625518
      28A     -0.604289    29A     -0.602534    30A     -0.582839
      31A     -0.549759    32A     -0.545238    33A     -0.498159
      34A     -0.495606    35A     -0.451897    36A     -0.420766
      37A     -0.409739    38A     -0.368249    39A     -0.313281

  @DF-RHF Final Energy:  -503.71441608490272

   => Energetics <=

    Nuclear Repulsion Energy =            596.0802514016958185
    One-Electron Energy =               -1866.4950796695370627
    Two-Electron Energy =                 766.7004121829384076
    Total Energy =                       -503.7144160849027230
  Basis Set: (AUG-CC-PVTZ AUX)
    Blend: AUG-CC-PVTZ-RI
    Molecular point group: c1

    Geometry (in Angstrom), charge = 0, multiplicity = 1:

       Center              X                  Y                   Z               Mass
    ------------   -----------------  -----------------  -----------------  -----------------
         N           -1.831642281927    -0.168993043033    -0.003176934220    14.003074004430
         N           -0.313662281927    -1.856876043033    -0.011287934220    14.003074004430
         N           -0.309631281927     1.742570956967    -0.002011934220    14.003074004430
         N            2.010895718073     1.028963956967    -0.010939934220    14.003074004430
         N            2.684478718073    -1.203935043033     0.075554065780    14.003074004430
         C           -0.591114281927     0.428685956967     0.001735065780    12.000000000000
         C            0.324289718073    -0.632974043033     0.005145065780    12.000000000000
         C           -1.528725781927    -1.508945243033    -0.009296034220    12.000000000000
         C            1.683426718073    -0.272534043033    -0.001577934220    12.000000000000
         C           -3.069703081927     0.591470556967     0.000109965780    12.000000000000
         C            1.015544718073     1.943407956967    -0.012207934220    12.000000000000
         H           -2.420973281927    -2.230800043033    -0.015722934220     1.007825032230
         H           -3.187835281927     1.162123956967    -0.883167934220     1.007825032230
         H           -3.904954281927    -0.218997043033    -0.009764934220     1.007825032230
         H           -3.193535281927     1.145110956967     0.894330065780     1.007825032230
         H            1.340137718073     2.981977956967    -0.015964934220     1.007825032230
         H            3.594122718073    -0.870271043033    -0.222616934220     1.007825032230
         H            2.437147718073    -2.139964043033    -0.224326934220     1.007825032230

  Basis Set: AUG-CC-PVTZ
    Blend: AUG-CC-PVTZ
  Basis Set: (AUG-CC-PVTZ AUX)
    Blend: AUG-CC-PVTZ-JKFIT
	 Reference Energy          =    -503.7144160849027230 [Eh]
	 Singles Energy            =      -0.0000000000000000 [Eh]
	 Same-Spin Energy          =      -0.5480597592331367 [Eh]
	 Opposite-Spin Energy      =      -1.6310393877202394 [Eh]
	 Correlation Energy        =      -2.1790991469533760 [Eh]
	 Total Energy              =    -505.8935152318560995 [Eh]

	 ================> DF-SCS-MP2 Energies <==================
	-----------------------------------------------------------
	 SCS Same-Spin Scale       =       0.3333333333333333 [-]
	 SCS Opposite-Spin Scale   =       1.2000000000000000 [-]
	 SCS Same-Spin Energy      =      -0.1826865864110455 [Eh]
	 SCS Opposite-Spin Energy  =      -1.9572472652642872 [Eh]
	 SCS Correlation Energy    =      -2.1399338516753326 [Eh]
	 SCS Total Energy          =    -505.8543499365780463 [Eh]
	-----------------------------------------------------------

  Dipole Moment: [D]
     X:    -2.5961      Y:    -1.1707      Z:    -0.7901     Total:     2.9555

*** Psi4 exiting successfully. Buy a developer a beer!
