                               Psi4 1.3.2 release

  ==> Input File <==

--------------------------------------------------------------------------
#psi4
#
memory 32 gb

molecule  {
0 1
  N       -1.7893040    -0.1617730    -0.0001110
  N       -0.2606190    -1.8551739    -0.0084302
  N       -0.2672930     1.7497910     0.0010540
  N        2.0532340     1.0361840    -0.0078740
  N        2.7268170    -1.1967150     0.0786200
  C       -0.5487760     0.4359060     0.0048010
  C        0.3666280    -0.6257540     0.0082110
  C       -1.5569310    -1.5157420    -0.0063070
  C        1.7288569    -0.2771862     0.0012370
  C       -3.0654680     0.5328540     0.0028660
  C        1.0578830     1.9506280    -0.0091420
  H       -2.3786350    -2.2235800    -0.0126570
  H       -3.1454970     1.1693440    -0.8801020
  H       -3.8626160    -0.2117770    -0.0066990
  H       -3.1511970     1.1523310     0.8973960
  H        1.3824760     2.9891980    -0.0128990
  H        3.6364610    -0.8630510    -0.2195510
  H        2.4794860    -2.1327440    -0.2212610
units angstrom
no_reorient  #important for SAPT in psi4, default
symmetry c1  #important for SAPT in psi4, default
}

set PROPERTIES_ORIGIN ["COM"]
properties('MP2/aug-cc-pvtz', properties = ['dipole'])
--------------------------------------------------------------------------

    Molecular point group: c1
  Charge       = 0
  Multiplicity = 1
  Basis Set: AUG-CC-PVTZ
    Blend: AUG-CC-PVTZ
  Basis Set: (AUG-CC-PVTZ AUX)
    Blend: AUG-CC-PVTZ-JKFIT

    Orbital Energies [Eh]
    ---------------------

    Doubly Occupied:

       1A    -15.634225     2A    -15.582874     3A    -15.568520
       4A    -15.559543     5A    -15.551810     6A    -11.334726
       7A    -11.323971     8A    -11.313012     9A    -11.310503
      10A    -11.289100    11A    -11.251631    12A     -1.366526
      13A     -1.294798    14A     -1.243776    15A     -1.196336
      16A     -1.150202    17A     -1.029916    18A     -0.986810
      19A     -0.890418    20A     -0.870126    21A     -0.803797
      22A     -0.753690    23A     -0.724617    24A     -0.681571
      25A     -0.672785    26A     -0.666182    27A     -0.624499
      28A     -0.605867    29A     -0.596055    30A     -0.591192
      31A     -0.571679    32A     -0.536303    33A     -0.496275
      34A     -0.492374    35A     -0.449698    36A     -0.413840
      37A     -0.408277    38A     -0.367474    39A     -0.305953

  @DF-RHF Final Energy:  -503.72299487897095

   => Energetics <=

    Nuclear Repulsion Energy =            594.0183197239571200
    One-Electron Energy =               -1862.4607301586836456
    Two-Electron Energy =                 764.7194155557556314
    Total Energy =                       -503.7229948789708942
  Basis Set: (AUG-CC-PVTZ AUX)
    Blend: AUG-CC-PVTZ-RI
    Molecular point group: c1

    Geometry (in Angstrom), charge = 0, multiplicity = 1:

       Center              X                  Y                   Z               Mass
    ------------   -----------------  -----------------  -----------------  -----------------
         N           -1.824150810775    -0.161090892269    -0.003106034443    14.003074004430
         N           -0.295465810775    -1.854491792269    -0.011425234443    14.003074004430
         N           -0.302139810775     1.750473107731    -0.001941034443    14.003074004430
         N            2.018387189225     1.036866107731    -0.010869034443    14.003074004430
         N            2.691970189225    -1.196032892269     0.075624965557    14.003074004430
         C           -0.583622810775     0.436588107731     0.001805965557    12.000000000000
         C            0.331781189225    -0.625071892269     0.005215965557    12.000000000000
         C           -1.591777810775    -1.515059892269    -0.009302034443    12.000000000000
         C            1.694010089225    -0.276504092269    -0.001758034443    12.000000000000
         C           -3.100314810775     0.533536107731    -0.000129034443    12.000000000000
         C            1.023036189225     1.951310107731    -0.012137034443    12.000000000000
         H           -2.413481810775    -2.222897892269    -0.015652034443     1.007825032230
         H           -3.180343810775     1.170026107731    -0.883097034443     1.007825032230
         H           -3.897462810775    -0.211094892269    -0.009694034443     1.007825032230
         H           -3.186043810775     1.153013107731     0.894400965557     1.007825032230
         H            1.347629189225     2.989880107731    -0.015894034443     1.007825032230
         H            3.601614189225    -0.862368892269    -0.222546034443     1.007825032230
         H            2.444639189225    -2.132061892269    -0.224256034443     1.007825032230

  Basis Set: AUG-CC-PVTZ
    Blend: AUG-CC-PVTZ
  Basis Set: (AUG-CC-PVTZ AUX)
    Blend: AUG-CC-PVTZ-JKFIT
	 Reference Energy          =    -503.7229948789709510 [Eh]
	 Singles Energy            =      -0.0000000000000000 [Eh]
	 Same-Spin Energy          =      -0.5496871703185933 [Eh]
	 Opposite-Spin Energy      =      -1.6339726923638720 [Eh]
	 Correlation Energy        =      -2.1836598626824655 [Eh]
	 Total Energy              =    -505.9066547416534263 [Eh]

	 ================> DF-SCS-MP2 Energies <==================
	-----------------------------------------------------------
	 SCS Same-Spin Scale       =       0.3333333333333333 [-]
	 SCS Opposite-Spin Scale   =       1.2000000000000000 [-]
	 SCS Same-Spin Energy      =      -0.1832290567728644 [Eh]
	 SCS Opposite-Spin Energy  =      -1.9607672308366464 [Eh]
	 SCS Correlation Energy    =      -2.1439962876095109 [Eh]
	 SCS Total Energy          =    -505.8669911665804761 [Eh]
	-----------------------------------------------------------

  Dipole Moment: [D]
     X:    -2.6912      Y:    -1.2118      Z:    -0.7853     Total:     3.0541

*** Psi4 exiting successfully. Buy a developer a beer!
