                               Psi4 1.3.2 release

  ==> Input File <==

--------------------------------------------------------------------------
#psi4
#
memory 32 gb

molecule  {
0 1
  N       -1.7893040    -0.1617730    -0.0001110
  N       -0.2713240    -1.8496560    -0.0082220
  N       -0.2672930     1.7497910     0.0010540
  N        2.0532340     1.0361840    -0.0078740
  N        2.7268170    -1.1967150     0.0786200
  C       -0.5852696     0.4033133     0.0051210
  C        0.3666280    -0.6257540     0.0082110
  C       -1.5569310    -1.5157420    -0.0063070
  C        1.7375174    -0.3129664     0.0017388
  C       -3.0654680     0.5328540     0.0028660
  C        1.0578830     1.9506280    -0.0091420
  H       -2.3786350    -2.2235800    -0.0126570
  H       -3.1454970     1.1693440    -0.8801020
  H       -3.8626160    -0.2117770    -0.0066990
  H       -3.1511970     1.1523310     0.8973960
  H        1.3824760     2.9891980    -0.0128990
  H        3.6364610    -0.8630510    -0.2195510
  H        2.4794860    -2.1327440    -0.2212610
units angstrom
no_reorient  #important for SAPT in psi4, default
symmetry c1  #important for SAPT in psi4, default
}

set PROPERTIES_ORIGIN ["COM"]
properties('MP2/aug-cc-pvtz', properties = ['dipole'])
--------------------------------------------------------------------------

    Molecular point group: c1
  Charge       = 0
  Multiplicity = 1
  Basis Set: AUG-CC-PVTZ
    Blend: AUG-CC-PVTZ
  Basis Set: (AUG-CC-PVTZ AUX)
    Blend: AUG-CC-PVTZ-JKFIT

    Orbital Energies [Eh]
    ---------------------

    Doubly Occupied:

       1A    -15.636347     2A    -15.589648     3A    -15.568307
       4A    -15.553664     5A    -15.546923     6A    -11.337758
       7A    -11.319563     8A    -11.311735     9A    -11.305709
      10A    -11.291268    11A    -11.249425    12A     -1.377313
      13A     -1.292662    14A     -1.241278    15A     -1.204107
      16A     -1.137078    17A     -1.030307    18A     -0.991944
      19A     -0.892708    20A     -0.861702    21A     -0.807113
      22A     -0.755302    23A     -0.730759    24A     -0.684382
      25A     -0.673517    26A     -0.670813    27A     -0.625821
      28A     -0.603627    29A     -0.595630    30A     -0.590879
      31A     -0.579005    32A     -0.540889    33A     -0.493455
      34A     -0.486457    35A     -0.441470    36A     -0.417324
      37A     -0.402389    38A     -0.358020    39A     -0.306972

  @DF-RHF Final Energy:  -503.71698133386280

   => Energetics <=

    Nuclear Repulsion Energy =            594.1071349650840148
    One-Electron Energy =               -1862.6416869006641264
    Two-Electron Energy =                 764.8175706017173070
    Total Energy =                       -503.7169813338628046
  Basis Set: (AUG-CC-PVTZ AUX)
    Blend: AUG-CC-PVTZ-RI
    Molecular point group: c1

    Geometry (in Angstrom), charge = 0, multiplicity = 1:

       Center              X                  Y                   Z               Mass
    ------------   -----------------  -----------------  -----------------  -----------------
         N           -1.820904687237    -0.156105271328    -0.003191746038    14.003074004430
         N           -0.302924687237    -1.843988271328    -0.011302746038    14.003074004430
         N           -0.298893687237     1.755458728672    -0.002026746038    14.003074004430
         N            2.021633312763     1.041851728672    -0.010954746038    14.003074004430
         N            2.695216312763    -1.191047271328     0.075539253962    14.003074004430
         C           -0.616870287237     0.408981028672     0.002040253962    12.000000000000
         C            0.335027312763    -0.620086271328     0.005130253962    12.000000000000
         C           -1.588531687237    -1.510074271328    -0.009387746038    12.000000000000
         C            1.705916712763    -0.307298671328    -0.001341946038    12.000000000000
         C           -3.097068687237     0.538521728672    -0.000214746038    12.000000000000
         C            1.026282312763     1.956295728672    -0.012222746038    12.000000000000
         H           -2.410235687237    -2.217912271328    -0.015737746038     1.007825032230
         H           -3.177097687237     1.175011728672    -0.883182746038     1.007825032230
         H           -3.894216687237    -0.206109271328    -0.009779746038     1.007825032230
         H           -3.182797687237     1.157998728672     0.894315253962     1.007825032230
         H            1.350875312763     2.994865728672    -0.015979746038     1.007825032230
         H            3.604860312763    -0.857383271328    -0.222631746038     1.007825032230
         H            2.447885312763    -2.127076271328    -0.224341746038     1.007825032230

  Basis Set: AUG-CC-PVTZ
    Blend: AUG-CC-PVTZ
  Basis Set: (AUG-CC-PVTZ AUX)
    Blend: AUG-CC-PVTZ-JKFIT
	 Reference Energy          =    -503.7169813338628046 [Eh]
	 Singles Energy            =      -0.0000000000000000 [Eh]
	 Same-Spin Energy          =      -0.5494507595044869 [Eh]
	 Opposite-Spin Energy      =      -1.6337851249777877 [Eh]
	 Correlation Energy        =      -2.1832358844822748 [Eh]
	 Total Energy              =    -505.9002172183450625 [Eh]

	 ================> DF-SCS-MP2 Energies <==================
	-----------------------------------------------------------
	 SCS Same-Spin Scale       =       0.3333333333333333 [-]
	 SCS Opposite-Spin Scale   =       1.2000000000000000 [-]
	 SCS Same-Spin Energy      =      -0.1831502531681623 [Eh]
	 SCS Opposite-Spin Energy  =      -1.9605421499733451 [Eh]
	 SCS Correlation Energy    =      -2.1436924031415074 [Eh]
	 SCS Total Energy          =    -505.8606737370043334 [Eh]
	-----------------------------------------------------------

  Dipole Moment: [D]
     X:    -2.6177      Y:    -1.5582      Z:    -0.7752     Total:     3.1435

*** Psi4 exiting successfully. Buy a developer a beer!
