                               Psi4 1.3.2 release

  ==> Input File <==

--------------------------------------------------------------------------
#psi4
#
memory 32 gb

molecule  {
0 1
  N       -1.7419094    -0.1544890     0.0000828
  N       -0.2713240    -1.8496560    -0.0082220
  N       -0.2672930     1.7497910     0.0010540
  N        2.0532340     1.0361840    -0.0078740
  N        2.7268170    -1.1967150     0.0786200
  C       -0.5487760     0.4359060     0.0048010
  C        0.3666280    -0.6257540     0.0082110
  C       -1.5569310    -1.5157420    -0.0063070
  C        1.7257650    -0.2653140     0.0014880
  C       -3.0654680     0.5328540     0.0028660
  C        1.0578830     1.9506280    -0.0091420
  H       -2.3534306    -2.2518261    -0.0127191
  H       -3.1454970     1.1693440    -0.8801020
  H       -3.8626160    -0.2117770    -0.0066990
  H       -3.1511970     1.1523310     0.8973960
  H        1.3824760     2.9891980    -0.0128990
  H        3.6364610    -0.8630510    -0.2195510
  H        2.4794860    -2.1327440    -0.2212610
units angstrom
no_reorient  #important for SAPT in psi4, default
symmetry c1  #important for SAPT in psi4, default
}

set PROPERTIES_ORIGIN ["COM"]
properties('MP2/aug-cc-pvtz', properties = ['dipole'])
--------------------------------------------------------------------------

    Molecular point group: c1
  Charge       = 0
  Multiplicity = 1
  Basis Set: AUG-CC-PVTZ
    Blend: AUG-CC-PVTZ
  Basis Set: (AUG-CC-PVTZ AUX)
    Blend: AUG-CC-PVTZ-JKFIT

    Orbital Energies [Eh]
    ---------------------

    Doubly Occupied:

       1A    -15.633847     2A    -15.580058     3A    -15.567234
       4A    -15.558172     5A    -15.550028     6A    -11.333327
       7A    -11.319333     8A    -11.310919     9A    -11.308304
      10A    -11.292709    11A    -11.248207    12A     -1.375176
      13A     -1.294980    14A     -1.241517    15A     -1.193385
      16A     -1.149555    17A     -1.033568    18A     -0.984485
      19A     -0.891946    20A     -0.871779    21A     -0.802372
      22A     -0.754475    23A     -0.726315    24A     -0.678878
      25A     -0.671921    26A     -0.667349    27A     -0.621063
      28A     -0.601942    29A     -0.595596    30A     -0.591028
      31A     -0.578979    32A     -0.539093    33A     -0.494697
      34A     -0.489903    35A     -0.449730    36A     -0.416007
      37A     -0.407481    38A     -0.364807    39A     -0.307928

  @DF-RHF Final Energy:  -503.72267404043089

   => Energetics <=

    Nuclear Repulsion Energy =            595.1791853364071585
    One-Electron Energy =               -1864.8075298059873148
    Two-Electron Energy =                 765.9056704291491542
    Total Energy =                       -503.7226740404308885
  Basis Set: (AUG-CC-PVTZ AUX)
    Blend: AUG-CC-PVTZ-RI
    Molecular point group: c1

    Geometry (in Angstrom), charge = 0, multiplicity = 1:

       Center              X                  Y                   Z               Mass
    ------------   -----------------  -----------------  -----------------  -----------------
         N           -1.780124195749    -0.155774189115    -0.002969782182    14.003074004430
         N           -0.309538795749    -1.850941189115    -0.011274582182    14.003074004430
         N           -0.305507795749     1.748505810885    -0.001998582182    14.003074004430
         N            2.015019204251     1.034898810885    -0.010926582182    14.003074004430
         N            2.688602204251    -1.198000189115     0.075567417818    14.003074004430
         C           -0.586990795749     0.434620810885     0.001748417818    12.000000000000
         C            0.328413204251    -0.627039189115     0.005158417818    12.000000000000
         C           -1.595145795749    -1.517027189115    -0.009359582182    12.000000000000
         C            1.687550204251    -0.266599189115    -0.001564582182    12.000000000000
         C           -3.103682795749     0.531568810885    -0.000186582182    12.000000000000
         C            1.019668204251     1.949342810885    -0.012194582182    12.000000000000
         H           -2.391645395749    -2.253111289115    -0.015771682182     1.007825032230
         H           -3.183711795749     1.168058810885    -0.883154582182     1.007825032230
         H           -3.900830795749    -0.213062189115    -0.009751582182     1.007825032230
         H           -3.189411795749     1.151045810885     0.894343417818     1.007825032230
         H            1.344261204251     2.987912810885    -0.015951582182     1.007825032230
         H            3.598246204251    -0.864336189115    -0.222603582182     1.007825032230
         H            2.441271204251    -2.134029189115    -0.224313582182     1.007825032230

  Basis Set: AUG-CC-PVTZ
    Blend: AUG-CC-PVTZ
  Basis Set: (AUG-CC-PVTZ AUX)
    Blend: AUG-CC-PVTZ-JKFIT
	 Reference Energy          =    -503.7226740404308885 [Eh]
	 Singles Energy            =      -0.0000000000000000 [Eh]
	 Same-Spin Energy          =      -0.5490423524795998 [Eh]
	 Opposite-Spin Energy      =      -1.6326291821720562 [Eh]
	 Correlation Energy        =      -2.1816715346516560 [Eh]
	 Total Energy              =    -505.9043455750825160 [Eh]

	 ================> DF-SCS-MP2 Energies <==================
	-----------------------------------------------------------
	 SCS Same-Spin Scale       =       0.3333333333333333 [-]
	 SCS Opposite-Spin Scale   =       1.2000000000000000 [-]
	 SCS Same-Spin Energy      =      -0.1830141174931999 [Eh]
	 SCS Opposite-Spin Energy  =      -1.9591550186064675 [Eh]
	 SCS Correlation Energy    =      -2.1421691360996675 [Eh]
	 SCS Total Energy          =    -505.8648431765305418 [Eh]
	-----------------------------------------------------------

  Dipole Moment: [D]
     X:    -2.8938      Y:    -1.1979      Z:    -0.7884     Total:     3.2296

*** Psi4 exiting successfully. Buy a developer a beer!
