                               Psi4 1.4a3.dev225

  ==> Input File <==

--------------------------------------------------------------------------
#psi4
#
memory 32 gb

molecule  {
0 1
  N       -1.7889380    -0.1640290    -0.0179520
  N       -0.2703210    -1.8482040    -0.0023970
  N       -0.2671710     1.7490810    -0.0033560
  N        2.0541740     1.0368940    -0.0085470
  N        2.7206340    -1.1973270     0.0732090
  C       -0.5486140     0.4351420     0.0045870
  C        0.3650590    -0.6247560     0.0169900
  C       -1.5569260    -1.5161270    -0.0162740
  C        1.7266360    -0.2641570     0.0048060
  C       -3.0641060     0.5324820     0.0177850
  C        1.0564750     1.9508360    -0.0110870
  H       -2.3762040    -2.2259510    -0.0342240
  H       -2.9284720     1.5041700    -0.4579320
  H       -3.8408078    -0.0752147    -0.5563596
  H       -3.3972360     0.6796990     1.0480130
  H        1.3812150     2.9891510    -0.0228070
  H        3.6427950    -0.8729100    -0.1905990
  H        2.4748820    -2.1409930    -0.1987870
units angstrom
no_reorient  #important for SAPT in psi4, default
symmetry c1  #important for SAPT in psi4, default
}

set PROPERTIES_ORIGIN ["COM"]
properties('MP2/aug-cc-pvtz', properties = ['dipole'])
--------------------------------------------------------------------------

    Molecular point group: c1
  Charge       = 0
  Multiplicity = 1
  Basis Set: AUG-CC-PVTZ
    Blend: AUG-CC-PVTZ
  Basis Set: (AUG-CC-PVTZ AUX)
    Blend: AUG-CC-PVTZ-JKFIT

    Orbital Energies [Eh]
    ---------------------

    Doubly Occupied:

       1A    -15.632541     2A    -15.581532     3A    -15.567462
       4A    -15.560090     5A    -15.551746     6A    -11.334983
       7A    -11.320965     8A    -11.312840     9A    -11.311606
      10A    -11.292815    11A    -11.250954    12A     -1.367841
      13A     -1.296235    14A     -1.242969    15A     -1.196481
      16A     -1.151885    17A     -1.030708    18A     -0.981878
      19A     -0.890580    20A     -0.872188    21A     -0.801903
      22A     -0.753354    23A     -0.724919    24A     -0.680714
      25A     -0.673795    26A     -0.665175    27A     -0.625050
      28A     -0.605683    29A     -0.595353    30A     -0.590258
      31A     -0.566498    32A     -0.536179    33A     -0.495737
      34A     -0.491353    35A     -0.450496    36A     -0.414262
      37A     -0.408195    38A     -0.367678    39A     -0.307014

  @DF-RHF Final Energy:  -503.72285659700617

   => Energetics <=

    Nuclear Repulsion Energy =            594.3754722088663129
    One-Electron Energy =               -1863.1928261011732957
    Two-Electron Energy =                 765.0944972953008119
    Total Energy =                       -503.7228565970061709
  Basis Set: (AUG-CC-PVTZ AUX)
    Blend: AUG-CC-PVTZ-RI
    Molecular point group: c1

    Geometry (in Angstrom), charge = 0, multiplicity = 1:

       Center              X                  Y                   Z               Mass
    ------------   -----------------  -----------------  -----------------  -----------------
         N           -1.822102322752    -0.164608510150    -0.020362160298    14.003074004430
         N           -0.303485322752    -1.848783510150    -0.004807160298    14.003074004430
         N           -0.300335322752     1.748501489850    -0.005766160298    14.003074004430
         N            2.021009677248     1.036314489850    -0.010957160298    14.003074004430
         N            2.687469677248    -1.197906510150     0.070798839702    14.003074004430
         C           -0.581778322752     0.434562489850     0.002176839702    12.000000000000
         C            0.331894677248    -0.625335510150     0.014579839702    12.000000000000
         C           -1.590090322752    -1.516706510150    -0.018684160298    12.000000000000
         C            1.693471677248    -0.264736510150     0.002395839702    12.000000000000
         C           -3.097270322752     0.531902489850     0.015374839702    12.000000000000
         C            1.023310677248     1.950256489850    -0.013497160298    12.000000000000
         H           -2.409368322752    -2.226530510150    -0.036634160298     1.007825032230
         H           -2.961636322752     1.503590489850    -0.460342160298     1.007825032230
         H           -3.873972122752    -0.075794210150    -0.558769760298     1.007825032230
         H           -3.430400322752     0.679119489850     1.045602839702     1.007825032230
         H            1.348050677248     2.988571489850    -0.025217160298     1.007825032230
         H            3.609630677248    -0.873489510150    -0.193009160298     1.007825032230
         H            2.441717677248    -2.141572510150    -0.201197160298     1.007825032230

  Basis Set: AUG-CC-PVTZ
    Blend: AUG-CC-PVTZ
  Basis Set: (AUG-CC-PVTZ AUX)
    Blend: AUG-CC-PVTZ-JKFIT
	 Reference Energy          =    -503.7228565970061709 [Eh]
	 Singles Energy            =      -0.0000000000000000 [Eh]
	 Same-Spin Energy          =      -0.5493296716134830 [Eh]
	 Opposite-Spin Energy      =      -1.6332546113807527 [Eh]
	 Correlation Energy        =      -2.1825842829942355 [Eh]
	 Total Energy              =    -505.9054408800004126 [Eh]

	 ================> DF-SCS-MP2 Energies <==================
	-----------------------------------------------------------
	 SCS Same-Spin Scale       =       0.3333333333333333 [-]
	 SCS Opposite-Spin Scale   =       1.2000000000000000 [-]
	 SCS Same-Spin Energy      =      -0.1831098905378277 [Eh]
	 SCS Opposite-Spin Energy  =      -1.9599055336569031 [Eh]
	 SCS Correlation Energy    =      -2.1430154241947306 [Eh]
	 SCS Total Energy          =    -505.8658720212009143 [Eh]
	-----------------------------------------------------------

  Dipole Moment: [D]
     X:    -2.6140      Y:    -1.2025      Z:    -0.7065     Total:     2.9628

*** Psi4 exiting successfully. Buy a developer a beer!
