                               Psi4 1.3.2 release

  ==> Input File <==

--------------------------------------------------------------------------
#psi4
#
memory 32 gb

molecule  {
0 1
  N       -1.7893040    -0.1617730    -0.0001110
  N       -0.2713240    -1.8496560    -0.0082220
  N       -0.2672930     1.7497910     0.0010540
  N        2.1207847     1.0173216    -0.0036166
  N        2.7741874    -1.1429148     0.0801619
  C       -0.5487760     0.4359060     0.0048010
  C        0.3666280    -0.6257540     0.0082110
  C       -1.5569310    -1.5157420    -0.0063070
  C        1.7257650    -0.2653140     0.0014880
  C       -3.0654680     0.5328540     0.0028660
  C        1.0578830     1.9506280    -0.0091420
  H       -2.3786350    -2.2235800    -0.0126570
  H       -3.1454970     1.1693440    -0.8801020
  H       -3.8626160    -0.2117770    -0.0066990
  H       -3.1511970     1.1523310     0.8973960
  H        1.3824760     2.9891980    -0.0128990
  H        3.6364610    -0.8630510    -0.2195510
  H        2.4794860    -2.1327440    -0.2212610
units angstrom
no_reorient  #important for SAPT in psi4, default
symmetry c1  #important for SAPT in psi4, default
}

set PROPERTIES_ORIGIN ["COM"]
properties('MP2/aug-cc-pvtz', properties = ['dipole'])
--------------------------------------------------------------------------

    Molecular point group: c1
  Charge       = 0
  Multiplicity = 1
  Basis Set: AUG-CC-PVTZ
    Blend: AUG-CC-PVTZ
  Basis Set: (AUG-CC-PVTZ AUX)
    Blend: AUG-CC-PVTZ-JKFIT

    Orbital Energies [Eh]
    ---------------------

    Doubly Occupied:

       1A    -15.635739     2A    -15.576356     3A    -15.569834
       4A    -15.566743     5A    -15.557481     6A    -11.332570
       7A    -11.323164     8A    -11.319107     9A    -11.316077
      10A    -11.290486    11A    -11.255462    12A     -1.369250
      13A     -1.291382    14A     -1.243338    15A     -1.198729
      16A     -1.142358    17A     -1.031673    18A     -0.987982
      19A     -0.886863    20A     -0.874556    21A     -0.805075
      22A     -0.747156    23A     -0.728687    24A     -0.686327
      25A     -0.668303    26A     -0.658086    27A     -0.622820
      28A     -0.606708    29A     -0.594602    30A     -0.587787
      31A     -0.569469    32A     -0.535564    33A     -0.495875
      34A     -0.494424    35A     -0.457354    36A     -0.415474
      37A     -0.410591    38A     -0.365615    39A     -0.310074

  @DF-RHF Final Energy:  -503.70870153487721

   => Energetics <=

    Nuclear Repulsion Energy =            592.6890872473201171
    One-Electron Energy =               -1859.7373003004404381
    Two-Electron Energy =                 763.3395115182431709
    Total Energy =                       -503.7087015348772638
  Basis Set: (AUG-CC-PVTZ AUX)
    Blend: AUG-CC-PVTZ-RI
    Molecular point group: c1

    Geometry (in Angstrom), charge = 0, multiplicity = 1:

       Center              X                  Y                   Z               Mass
    ------------   -----------------  -----------------  -----------------  -----------------
         N           -1.833691574007    -0.165846844978    -0.003690561056    14.003074004430
         N           -0.315711574007    -1.853729844978    -0.011801561056    14.003074004430
         N           -0.311680574007     1.745717155022    -0.002525561056    14.003074004430
         N            2.076397125993     1.013247755022    -0.007196161056    14.003074004430
         N            2.729799825993    -1.146988644978     0.076582338944    14.003074004430
         C           -0.593163574007     0.431832155022     0.001221438944    12.000000000000
         C            0.322240425993    -0.629827844978     0.004631438944    12.000000000000
         C           -1.601318574007    -1.519815844978    -0.009886561056    12.000000000000
         C            1.681377425993    -0.269387844978    -0.002091561056    12.000000000000
         C           -3.109855574007     0.528780155022    -0.000713561056    12.000000000000
         C            1.013495425993     1.946554155022    -0.012721561056    12.000000000000
         H           -2.423022574007    -2.227653844978    -0.016236561056     1.007825032230
         H           -3.189884574007     1.165270155022    -0.883681561056     1.007825032230
         H           -3.907003574007    -0.215850844978    -0.010278561056     1.007825032230
         H           -3.195584574007     1.148257155022     0.893816438944     1.007825032230
         H            1.338088425993     2.985124155022    -0.016478561056     1.007825032230
         H            3.592073425993    -0.867124844978    -0.223130561056     1.007825032230
         H            2.435098425993    -2.136817844978    -0.224840561056     1.007825032230

  Basis Set: AUG-CC-PVTZ
    Blend: AUG-CC-PVTZ
  Basis Set: (AUG-CC-PVTZ AUX)
    Blend: AUG-CC-PVTZ-JKFIT
	 Reference Energy          =    -503.7087015348772070 [Eh]
	 Singles Energy            =      -0.0000000000000000 [Eh]
	 Same-Spin Energy          =      -0.5497661590163478 [Eh]
	 Opposite-Spin Energy      =      -1.6355949452099685 [Eh]
	 Correlation Energy        =      -2.1853611042263164 [Eh]
	 Total Energy              =    -505.8940626391035380 [Eh]

	 ================> DF-SCS-MP2 Energies <==================
	-----------------------------------------------------------
	 SCS Same-Spin Scale       =       0.3333333333333333 [-]
	 SCS Opposite-Spin Scale   =       1.2000000000000000 [-]
	 SCS Same-Spin Energy      =      -0.1832553863387826 [Eh]
	 SCS Opposite-Spin Energy  =      -1.9627139342519622 [Eh]
	 SCS Correlation Energy    =      -2.1459693205907446 [Eh]
	 SCS Total Energy          =    -505.8546708554679299 [Eh]
	-----------------------------------------------------------

  Dipole Moment: [D]
     X:    -3.0443      Y:    -1.1060      Z:    -0.7973     Total:     3.3357

*** Psi4 exiting successfully. Buy a developer a beer!
