                               Psi4 1.4a3.dev225

  ==> Input File <==

--------------------------------------------------------------------------
#psi4
#
memory 32 gb

molecule  {
0 1
  N       -1.7889380    -0.1640290    -0.0179520
  N       -0.2703210    -1.8482040    -0.0023970
  N       -0.2671710     1.7490810    -0.0033560
  N        2.0541740     1.0368940    -0.0085470
  N        2.7206340    -1.1973270     0.0732090
  C       -0.5486140     0.4351420     0.0045870
  C        0.3650590    -0.6247560     0.0169900
  C       -1.5569260    -1.5161270    -0.0162740
  C        1.7266360    -0.2641570     0.0048060
  C       -3.0641060     0.5324820     0.0177850
  C        1.0712226     1.9373265    -0.0110495
  H       -2.3762040    -2.2259510    -0.0342240
  H       -2.9284720     1.5041700    -0.4579320
  H       -3.8067760    -0.0485880    -0.5312030
  H       -3.3972360     0.6796990     1.0480130
  H        1.3812150     2.9891510    -0.0228070
  H        3.6427950    -0.8729100    -0.1905990
  H        2.4748820    -2.1409930    -0.1987870
units angstrom
no_reorient  #important for SAPT in psi4, default
symmetry c1  #important for SAPT in psi4, default
}

set PROPERTIES_ORIGIN ["COM"]
properties('MP2/aug-cc-pvtz', properties = ['dipole'])
--------------------------------------------------------------------------

    Molecular point group: c1
  Charge       = 0
  Multiplicity = 1
  Basis Set: AUG-CC-PVTZ
    Blend: AUG-CC-PVTZ
  Basis Set: (AUG-CC-PVTZ AUX)
    Blend: AUG-CC-PVTZ-JKFIT

    Orbital Energies [Eh]
    ---------------------

    Doubly Occupied:

       1A    -15.631376     2A    -15.582255     3A    -15.567078
       4A    -15.559016     5A    -15.552166     6A    -11.335835
       7A    -11.321095     8A    -11.312411     9A    -11.311161
      10A    -11.286721    11A    -11.250409    12A     -1.367479
      13A     -1.298613    14A     -1.241306    15A     -1.196490
      16A     -1.155008    17A     -1.030032    18A     -0.985173
      19A     -0.892412    20A     -0.870560    21A     -0.802727
      22A     -0.754466    23A     -0.724108    24A     -0.681624
      25A     -0.673911    26A     -0.665951    27A     -0.624729
      28A     -0.606719    29A     -0.595163    30A     -0.590865
      31A     -0.570788    32A     -0.537754    33A     -0.494604
      34A     -0.490843    35A     -0.450249    36A     -0.414927
      37A     -0.409025    38A     -0.369664    39A     -0.305460

  @DF-RHF Final Energy:  -503.72473259573428

   => Energetics <=

    Nuclear Repulsion Energy =            594.7858576417971790
    One-Electron Energy =               -1864.0008392264037411
    Two-Electron Energy =                 765.4902489888721675
    Total Energy =                       -503.7247325957342809
  Basis Set: (AUG-CC-PVTZ AUX)
    Blend: AUG-CC-PVTZ-RI
    Molecular point group: c1

    Geometry (in Angstrom), charge = 0, multiplicity = 1:

       Center              X                  Y                   Z               Mass
    ------------   -----------------  -----------------  -----------------  -----------------
         N           -1.823519570314    -0.163701024986    -0.020535256333    14.003074004430
         N           -0.304902570314    -1.847876024986    -0.004980256333    14.003074004430
         N           -0.301752570314     1.749408975014    -0.005939256333    14.003074004430
         N            2.019592429686     1.037221975014    -0.011130256333    14.003074004430
         N            2.686052429686    -1.196999024986     0.070625743667    14.003074004430
         C           -0.583195570314     0.435469975014     0.002003743667    12.000000000000
         C            0.330477429686    -0.624428024986     0.014406743667    12.000000000000
         C           -1.591507570314    -1.515799024986    -0.018857256333    12.000000000000
         C            1.692054429686    -0.263829024986     0.002222743667    12.000000000000
         C           -3.098687570314     0.532809975014     0.015201743667    12.000000000000
         C            1.036641029686     1.937654475014    -0.013632756333    12.000000000000
         H           -2.410785570314    -2.225623024986    -0.036807256333     1.007825032230
         H           -2.963053570314     1.504497975014    -0.460515256333     1.007825032230
         H           -3.841357570314    -0.048260024986    -0.533786256333     1.007825032230
         H           -3.431817570314     0.680026975014     1.045429743667     1.007825032230
         H            1.346633429686     2.989478975014    -0.025390256333     1.007825032230
         H            3.608213429686    -0.872582024986    -0.193182256333     1.007825032230
         H            2.440300429686    -2.140665024986    -0.201370256333     1.007825032230

  Basis Set: AUG-CC-PVTZ
    Blend: AUG-CC-PVTZ
  Basis Set: (AUG-CC-PVTZ AUX)
    Blend: AUG-CC-PVTZ-JKFIT
	 Reference Energy          =    -503.7247325957342809 [Eh]
	 Singles Energy            =      -0.0000000000000000 [Eh]
	 Same-Spin Energy          =      -0.5492868381921994 [Eh]
	 Opposite-Spin Energy      =      -1.6327829302171564 [Eh]
	 Correlation Energy        =      -2.1820697684093560 [Eh]
	 Total Energy              =    -505.9068023641436298 [Eh]

	 ================> DF-SCS-MP2 Energies <==================
	-----------------------------------------------------------
	 SCS Same-Spin Scale       =       0.3333333333333333 [-]
	 SCS Opposite-Spin Scale   =       1.2000000000000000 [-]
	 SCS Same-Spin Energy      =      -0.1830956127307331 [Eh]
	 SCS Opposite-Spin Energy  =      -1.9593395162605876 [Eh]
	 SCS Correlation Energy    =      -2.1424351289913206 [Eh]
	 SCS Total Energy          =    -505.8671677247256184 [Eh]
	-----------------------------------------------------------

  Dipole Moment: [D]
     X:    -2.5732      Y:    -1.2524      Z:    -0.7127     Total:     2.9492

*** Psi4 exiting successfully. Buy a developer a beer!
