                               Psi4 1.3.2 release

  ==> Input File <==

--------------------------------------------------------------------------
#psi4
#
memory 32 gb

molecule  {
0 1
  N       -1.7893040    -0.1617730    -0.0001110
  N       -0.2713240    -1.8496560    -0.0082220
  N       -0.2705964     1.7729498     0.0010493
  N        2.0532340     1.0361840    -0.0078740
  N        2.7268170    -1.1967150     0.0786200
  C       -0.5487760     0.4359060     0.0048010
  C        0.3666280    -0.6257540     0.0082110
  C       -1.5569310    -1.5157420    -0.0063070
  C        1.7257650    -0.2653140     0.0014880
  C       -3.0654680     0.5328540     0.0028660
  C        1.0578830     1.9506280    -0.0091420
  H       -2.3786350    -2.2235800    -0.0126570
  H       -3.1454970     1.1693440    -0.8801020
  H       -3.8626160    -0.2117770    -0.0066990
  H       -3.1511970     1.1523310     0.8973960
  H        1.3643015     2.9947051    -0.0127697
  H        3.6364610    -0.8630510    -0.2195510
  H        2.4794860    -2.1327440    -0.2212610
units angstrom
no_reorient  #important for SAPT in psi4, default
symmetry c1  #important for SAPT in psi4, default
}

set PROPERTIES_ORIGIN ["COM"]
properties('MP2/aug-cc-pvtz', properties = ['dipole'])
--------------------------------------------------------------------------

    Molecular point group: c1
  Charge       = 0
  Multiplicity = 1
  Basis Set: AUG-CC-PVTZ
    Blend: AUG-CC-PVTZ
  Basis Set: (AUG-CC-PVTZ AUX)
    Blend: AUG-CC-PVTZ-JKFIT

    Orbital Energies [Eh]
    ---------------------

    Doubly Occupied:

       1A    -15.634131     2A    -15.582136     3A    -15.568057
       4A    -15.562997     5A    -15.552320     6A    -11.336027
       7A    -11.322560     8A    -11.314722     9A    -11.311045
      10A    -11.289003    11A    -11.252858    12A     -1.367379
      13A     -1.295432    14A     -1.240346    15A     -1.197346
      16A     -1.150335    17A     -1.032126    18A     -0.986466
      19A     -0.890714    20A     -0.869695    21A     -0.803191
      22A     -0.752923    23A     -0.724157    24A     -0.680890
      25A     -0.671736    26A     -0.666126    27A     -0.624455
      28A     -0.607061    29A     -0.595790    30A     -0.590420
      31A     -0.571203    32A     -0.537353    33A     -0.494240
      34A     -0.492477    35A     -0.450544    36A     -0.414820
      37A     -0.410052    38A     -0.367418    39A     -0.309662

  @DF-RHF Final Energy:  -503.72326498149107

   => Energetics <=

    Nuclear Repulsion Energy =            593.6870141195316819
    One-Electron Energy =               -1861.7801327153642887
    Two-Electron Energy =                 764.3698536143414231
    Total Energy =                       -503.7232649814910701
  Basis Set: (AUG-CC-PVTZ AUX)
    Blend: AUG-CC-PVTZ-RI
    Molecular point group: c1

    Geometry (in Angstrom), charge = 0, multiplicity = 1:

       Center              X                  Y                   Z               Mass
    ------------   -----------------  -----------------  -----------------  -----------------
         N           -1.822463147712    -0.164777603278    -0.003146229864    14.003074004430
         N           -0.304483147712    -1.852660603278    -0.011257229864    14.003074004430
         N           -0.303755547712     1.769945196722    -0.001985929864    14.003074004430
         N            2.020074852288     1.033179396722    -0.010909229864    14.003074004430
         N            2.693657852288    -1.199719603278     0.075584770136    14.003074004430
         C           -0.581935147712     0.432901396722     0.001765770136    12.000000000000
         C            0.333468852288    -0.628758603278     0.005175770136    12.000000000000
         C           -1.590090147712    -1.518746603278    -0.009342229864    12.000000000000
         C            1.692605852288    -0.268318603278    -0.001547229864    12.000000000000
         C           -3.098627147712     0.529849396722    -0.000169229864    12.000000000000
         C            1.024723852288     1.947623396722    -0.012177229864    12.000000000000
         H           -2.411794147712    -2.226584603278    -0.015692229864     1.007825032230
         H           -3.178656147712     1.166339396722    -0.883137229864     1.007825032230
         H           -3.895775147712    -0.214781603278    -0.009734229864     1.007825032230
         H           -3.184356147712     1.149326396722     0.894360770136     1.007825032230
         H            1.331142352288     2.991700496722    -0.015804929864     1.007825032230
         H            3.603301852288    -0.866055603278    -0.222586229864     1.007825032230
         H            2.446326852288    -2.135748603278    -0.224296229864     1.007825032230

  Basis Set: AUG-CC-PVTZ
    Blend: AUG-CC-PVTZ
  Basis Set: (AUG-CC-PVTZ AUX)
    Blend: AUG-CC-PVTZ-JKFIT
	 Reference Energy          =    -503.7232649814910701 [Eh]
	 Singles Energy            =      -0.0000000000000000 [Eh]
	 Same-Spin Energy          =      -0.5492809951438471 [Eh]
	 Opposite-Spin Energy      =      -1.6336487202784769 [Eh]
	 Correlation Energy        =      -2.1829297154223237 [Eh]
	 Total Energy              =    -505.9061946969134169 [Eh]

	 ================> DF-SCS-MP2 Energies <==================
	-----------------------------------------------------------
	 SCS Same-Spin Scale       =       0.3333333333333333 [-]
	 SCS Opposite-Spin Scale   =       1.2000000000000000 [-]
	 SCS Same-Spin Energy      =      -0.1830936650479490 [Eh]
	 SCS Opposite-Spin Energy  =      -1.9603784643341722 [Eh]
	 SCS Correlation Energy    =      -2.1434721293821211 [Eh]
	 SCS Total Energy          =    -505.8667371108732027 [Eh]
	-----------------------------------------------------------

  Dipole Moment: [D]
     X:    -2.7276      Y:    -1.2233      Z:    -0.7883     Total:     3.0916

*** Psi4 exiting successfully. Buy a developer a beer!
