                               Psi4 1.4a3.dev225

  ==> Input File <==

--------------------------------------------------------------------------
#psi4
#
memory 32 gb

molecule  {
0 1
  N       -1.7889380    -0.1640290    -0.0179520
  N       -0.2703210    -1.8482040    -0.0023970
  N       -0.2671710     1.7490810    -0.0033560
  N        2.0541740     1.0368940    -0.0085470
  N        2.7206340    -1.1973270     0.0732090
  C       -0.5486140     0.4351420     0.0045870
  C        0.3650590    -0.6247560     0.0169900
  C       -1.5569260    -1.5161270    -0.0162740
  C        1.7266360    -0.2641570     0.0048060
  C       -3.0641060     0.5324820     0.0177850
  C        1.0564750     1.9508360    -0.0110870
  H       -2.3762040    -2.2259510    -0.0342240
  H       -2.9284720     1.5041700    -0.4579320
  H       -3.8067760    -0.0485880    -0.5312030
  H       -3.3972360     0.6796990     1.0480130
  H        1.3812150     2.9891510    -0.0228070
  H        3.5972576    -0.8889301    -0.1775719
  H        2.4748820    -2.1409930    -0.1987870
units angstrom
no_reorient  #important for SAPT in psi4, default
symmetry c1  #important for SAPT in psi4, default
}

set PROPERTIES_ORIGIN ["COM"]
properties('MP2/aug-cc-pvtz', properties = ['dipole'])
--------------------------------------------------------------------------

    Molecular point group: c1
  Charge       = 0
  Multiplicity = 1
  Basis Set: AUG-CC-PVTZ
    Blend: AUG-CC-PVTZ
  Basis Set: (AUG-CC-PVTZ AUX)
    Blend: AUG-CC-PVTZ-JKFIT

    Orbital Energies [Eh]
    ---------------------

    Doubly Occupied:

       1A    -15.632256     2A    -15.576765     3A    -15.567463
       4A    -15.560149     5A    -15.551871     6A    -11.334982
       7A    -11.321063     8A    -11.312677     9A    -11.311624
      10A    -11.287167    11A    -11.250862    12A     -1.367837
      13A     -1.297479    14A     -1.245660    15A     -1.198028
      16A     -1.153761    17A     -1.031773    18A     -0.985758
      19A     -0.891993    20A     -0.872533    21A     -0.804927
      22A     -0.756223    23A     -0.727266    24A     -0.687258
      25A     -0.674811    26A     -0.666366    27A     -0.625189
      28A     -0.608562    29A     -0.595278    30A     -0.592868
      31A     -0.571707    32A     -0.537145    33A     -0.496083
      34A     -0.491417    35A     -0.450535    36A     -0.414523
      37A     -0.408404    38A     -0.367792    39A     -0.307210

  @DF-RHF Final Energy:  -503.72448236917529

   => Energetics <=

    Nuclear Repulsion Energy =            594.9008238272434710
    One-Electron Energy =               -1864.1800798347157979
    Two-Electron Energy =                 765.5547736382968651
    Total Energy =                       -503.7244823691753481
  Basis Set: (AUG-CC-PVTZ AUX)
    Blend: AUG-CC-PVTZ-RI
    Molecular point group: c1

    Geometry (in Angstrom), charge = 0, multiplicity = 1:

       Center              X                  Y                   Z               Mass
    ------------   -----------------  -----------------  -----------------  -----------------
         N           -1.822024536341    -0.164680218653    -0.020620310503    14.003074004430
         N           -0.303407536341    -1.848855218653    -0.005065310503    14.003074004430
         N           -0.300257536341     1.748429781347    -0.006024310503    14.003074004430
         N            2.021087463659     1.036242781347    -0.011215310503    14.003074004430
         N            2.687547463659    -1.197978218653     0.070540689497    14.003074004430
         C           -0.581700536341     0.434490781347     0.001918689497    12.000000000000
         C            0.331972463659    -0.625407218653     0.014321689497    12.000000000000
         C           -1.590012536341    -1.516778218653    -0.018942310503    12.000000000000
         C            1.693549463659    -0.264808218653     0.002137689497    12.000000000000
         C           -3.097192536341     0.531830781347     0.015116689497    12.000000000000
         C            1.023388463659     1.950184781347    -0.013755310503    12.000000000000
         H           -2.409290536341    -2.226602218653    -0.036892310503     1.007825032230
         H           -2.961558536341     1.503518781347    -0.460600310503     1.007825032230
         H           -3.839862536341    -0.049239218653    -0.533871310503     1.007825032230
         H           -3.430322536341     0.679047781347     1.045344689497     1.007825032230
         H            1.348128463659     2.988499781347    -0.025475310503     1.007825032230
         H            3.564171063659    -0.889581318653    -0.180240210503     1.007825032230
         H            2.441795463659    -2.141644218653    -0.201455310503     1.007825032230

  Basis Set: AUG-CC-PVTZ
    Blend: AUG-CC-PVTZ
  Basis Set: (AUG-CC-PVTZ AUX)
    Blend: AUG-CC-PVTZ-JKFIT
	 Reference Energy          =    -503.7244823691752913 [Eh]
	 Singles Energy            =      -0.0000000000000000 [Eh]
	 Same-Spin Energy          =      -0.5489994746767157 [Eh]
	 Opposite-Spin Energy      =      -1.6320840828010232 [Eh]
	 Correlation Energy        =      -2.1810835574777387 [Eh]
	 Total Energy              =    -505.9055659266530256 [Eh]

	 ================> DF-SCS-MP2 Energies <==================
	-----------------------------------------------------------
	 SCS Same-Spin Scale       =       0.3333333333333333 [-]
	 SCS Opposite-Spin Scale   =       1.2000000000000000 [-]
	 SCS Same-Spin Energy      =      -0.1829998248922386 [Eh]
	 SCS Opposite-Spin Energy  =      -1.9585008993612278 [Eh]
	 SCS Correlation Energy    =      -2.1415007242534663 [Eh]
	 SCS Total Energy          =    -505.8659830934287811 [Eh]
	-----------------------------------------------------------

  Dipole Moment: [D]
     X:    -2.6939      Y:    -1.2134      Z:    -0.7049     Total:     3.0375

*** Psi4 exiting successfully. Buy a developer a beer!
