                               Psi4 1.4a3.dev225

  ==> Input File <==

--------------------------------------------------------------------------
#psi4
#
memory 32 gb

molecule  {
0 1
  N       -1.7889380    -0.1640290    -0.0179520
  N       -0.2703210    -1.8482040    -0.0023970
  N       -0.2671710     1.7490810    -0.0033560
  N        2.0541740     1.0368940    -0.0085470
  N        2.7206340    -1.1973270     0.0732090
  C       -0.5486140     0.4351420     0.0045870
  C        0.3650590    -0.6247560     0.0169900
  C       -1.5569260    -1.5161270    -0.0162740
  C        1.6783041    -0.2769572     0.0052385
  C       -3.0641060     0.5324820     0.0177850
  C        1.0564750     1.9508360    -0.0110870
  H       -2.3762040    -2.2259510    -0.0342240
  H       -2.9284720     1.5041700    -0.4579320
  H       -3.8067760    -0.0485880    -0.5312030
  H       -3.3972360     0.6796990     1.0480130
  H        1.3812150     2.9891510    -0.0228070
  H        3.6427950    -0.8729100    -0.1905990
  H        2.4748820    -2.1409930    -0.1987870
units angstrom
no_reorient  #important for SAPT in psi4, default
symmetry c1  #important for SAPT in psi4, default
}

set PROPERTIES_ORIGIN ["COM"]
properties('MP2/aug-cc-pvtz', properties = ['dipole'])
--------------------------------------------------------------------------

    Molecular point group: c1
  Charge       = 0
  Multiplicity = 1
  Basis Set: AUG-CC-PVTZ
    Blend: AUG-CC-PVTZ
  Basis Set: (AUG-CC-PVTZ AUX)
    Blend: AUG-CC-PVTZ-JKFIT

    Orbital Energies [Eh]
    ---------------------

    Doubly Occupied:

       1A    -15.634667     2A    -15.576188     3A    -15.569234
       4A    -15.560753     5A    -15.553790     6A    -11.330988
       7A    -11.325223     8A    -11.318299     9A    -11.310513
      10A    -11.289032    11A    -11.248986    12A     -1.371213
      13A     -1.292197    14A     -1.238470    15A     -1.196118
      16A     -1.145297    17A     -1.039356    18A     -0.989419
      19A     -0.894510    20A     -0.872697    21A     -0.803458
      22A     -0.752398    23A     -0.722009    24A     -0.682754
      25A     -0.669134    26A     -0.667303    27A     -0.620747
      28A     -0.611217    29A     -0.595806    30A     -0.592954
      31A     -0.573237    32A     -0.533288    33A     -0.494084
      34A     -0.493237    35A     -0.451729    36A     -0.416105
      37A     -0.410168    38A     -0.366308    39A     -0.312988

  @DF-RHF Final Energy:  -503.72129859513223

   => Energetics <=

    Nuclear Repulsion Energy =            595.0469122796976080
    One-Electron Energy =               -1864.4846730914227919
    Two-Electron Energy =                 765.7164622165929586
    Total Energy =                       -503.7212985951322253
  Basis Set: (AUG-CC-PVTZ AUX)
    Blend: AUG-CC-PVTZ-RI
    Molecular point group: c1

    Geometry (in Angstrom), charge = 0, multiplicity = 1:

       Center              X                  Y                   Z               Mass
    ------------   -----------------  -----------------  -----------------  -----------------
         N           -1.818441732638    -0.163758122938    -0.020567053445    14.003074004430
         N           -0.299824732638    -1.847933122938    -0.005012053445    14.003074004430
         N           -0.296674732638     1.749351877062    -0.005971053445    14.003074004430
         N            2.024670267362     1.037164877062    -0.011162053445    14.003074004430
         N            2.691130267362    -1.197056122938     0.070593946555    14.003074004430
         C           -0.578117732638     0.435412877062     0.001971946555    12.000000000000
         C            0.335555267362    -0.624485122938     0.014374946555    12.000000000000
         C           -1.586429732638    -1.515856122938    -0.018889053445    12.000000000000
         C            1.648800367362    -0.276686322938     0.002623446555    12.000000000000
         C           -3.093609732638     0.532752877062     0.015169946555    12.000000000000
         C            1.026971267362     1.951106877062    -0.013702053445    12.000000000000
         H           -2.405707732638    -2.225680122938    -0.036839053445     1.007825032230
         H           -2.957975732638     1.504440877062    -0.460547053445     1.007825032230
         H           -3.836279732638    -0.048317122938    -0.533818053445     1.007825032230
         H           -3.426739732638     0.679969877062     1.045397946555     1.007825032230
         H            1.351711267362     2.989421877062    -0.025422053445     1.007825032230
         H            3.613291267362    -0.872639122938    -0.193214053445     1.007825032230
         H            2.445378267362    -2.140722122938    -0.201402053445     1.007825032230

  Basis Set: AUG-CC-PVTZ
    Blend: AUG-CC-PVTZ
  Basis Set: (AUG-CC-PVTZ AUX)
    Blend: AUG-CC-PVTZ-JKFIT
	 Reference Energy          =    -503.7212985951322253 [Eh]
	 Singles Energy            =      -0.0000000000000000 [Eh]
	 Same-Spin Energy          =      -0.5492258147417585 [Eh]
	 Opposite-Spin Energy      =      -1.6333033105807040 [Eh]
	 Correlation Energy        =      -2.1825291253224623 [Eh]
	 Total Energy              =    -505.9038277204546716 [Eh]

	 ================> DF-SCS-MP2 Energies <==================
	-----------------------------------------------------------
	 SCS Same-Spin Scale       =       0.3333333333333333 [-]
	 SCS Opposite-Spin Scale   =       1.2000000000000000 [-]
	 SCS Same-Spin Energy      =      -0.1830752715805861 [Eh]
	 SCS Opposite-Spin Energy  =      -1.9599639726968447 [Eh]
	 SCS Correlation Energy    =      -2.1430392442774311 [Eh]
	 SCS Total Energy          =    -505.8643378394096430 [Eh]
	-----------------------------------------------------------

  Dipole Moment: [D]
     X:    -2.9251      Y:    -1.1175      Z:    -0.7183     Total:     3.2127

*** Psi4 exiting successfully. Buy a developer a beer!
