                               Psi4 1.3.2 release

  ==> Input File <==

--------------------------------------------------------------------------
#psi4
#
memory 32 gb

molecule  {
0 1
  N       -1.7893040    -0.1617730    -0.0001110
  N       -0.2713240    -1.8496560    -0.0082220
  N       -0.2672930     1.7497910     0.0010540
  N        2.0532340     1.0361840    -0.0078740
  N        2.7268170    -1.1967150     0.0786200
  C       -0.5487760     0.4359060     0.0048010
  C        0.3666280    -0.6257540     0.0082110
  C       -1.5569310    -1.5157420    -0.0063070
  C        1.7257650    -0.2653140     0.0014880
  C       -3.0654680     0.5328540     0.0028660
  C        0.9842428     2.0182824    -0.0092358
  H       -2.3786350    -2.2235800    -0.0126570
  H       -3.1454970     1.1693440    -0.8801020
  H       -3.8626160    -0.2117770    -0.0066990
  H       -3.1511970     1.1523310     0.8973960
  H        1.3824760     2.9891980    -0.0128990
  H        3.6364610    -0.8630510    -0.2195510
  H        2.4794860    -2.1327440    -0.2212610
units angstrom
no_reorient  #important for SAPT in psi4, default
symmetry c1  #important for SAPT in psi4, default
}

set PROPERTIES_ORIGIN ["COM"]
properties('MP2/aug-cc-pvtz', properties = ['dipole'])
--------------------------------------------------------------------------

    Molecular point group: c1
  Charge       = 0
  Multiplicity = 1
  Basis Set: AUG-CC-PVTZ
    Blend: AUG-CC-PVTZ
  Basis Set: (AUG-CC-PVTZ AUX)
    Blend: AUG-CC-PVTZ-JKFIT

    Orbital Energies [Eh]
    ---------------------

    Doubly Occupied:

       1A    -15.636405     2A    -15.576832     3A    -15.568400
       4A    -15.564402     5A    -15.548427     6A    -11.329333
       7A    -11.321531     8A    -11.313371     9A    -11.311740
      10A    -11.290249    11A    -11.253759    12A     -1.368864
      13A     -1.290037    14A     -1.249347    15A     -1.197619
      16A     -1.134430    17A     -1.035042    18A     -0.986396
      19A     -0.882594    20A     -0.879494    21A     -0.802509
      22A     -0.750599    23A     -0.728180    24A     -0.679429
      25A     -0.675980    26A     -0.667815    27A     -0.625343
      28A     -0.605636    29A     -0.600760    30A     -0.591639
      31A     -0.573345    32A     -0.532480    33A     -0.502311
      34A     -0.493441    35A     -0.449748    36A     -0.410533
      37A     -0.400165    38A     -0.358228    39A     -0.313785

  @DF-RHF Final Energy:  -503.71364209749379

   => Energetics <=

    Nuclear Repulsion Energy =            593.5199437336669916
    One-Electron Energy =               -1861.4667772534635333
    Two-Electron Energy =                 764.2331914223028662
    Total Energy =                       -503.7136420974937892
  Basis Set: (AUG-CC-PVTZ AUX)
    Blend: AUG-CC-PVTZ-RI
    Molecular point group: c1

    Geometry (in Angstrom), charge = 0, multiplicity = 1:

       Center              X                  Y                   Z               Mass
    ------------   -----------------  -----------------  -----------------  -----------------
         N           -1.816968365856    -0.168011035537    -0.003138246392    14.003074004430
         N           -0.298988365856    -1.855894035537    -0.011249246392    14.003074004430
         N           -0.294957365856     1.743552964463    -0.001973246392    14.003074004430
         N            2.025569634144     1.029945964463    -0.010901246392    14.003074004430
         N            2.699152634144    -1.202953035537     0.075592753608    14.003074004430
         C           -0.576440365856     0.429667964463     0.001773753608    12.000000000000
         C            0.338963634144    -0.631992035537     0.005183753608    12.000000000000
         C           -1.584595365856    -1.521980035537    -0.009334246392    12.000000000000
         C            1.698100634144    -0.271552035537    -0.001539246392    12.000000000000
         C           -3.093132365856     0.526615964463    -0.000161246392    12.000000000000
         C            0.956578434144     2.012044364463    -0.012263046392    12.000000000000
         H           -2.406299365856    -2.229818035537    -0.015684246392     1.007825032230
         H           -3.173161365856     1.163105964463    -0.883129246392     1.007825032230
         H           -3.890280365856    -0.218015035537    -0.009726246392     1.007825032230
         H           -3.178861365856     1.146092964463     0.894368753608     1.007825032230
         H            1.354811634144     2.982959964463    -0.015926246392     1.007825032230
         H            3.608796634144    -0.869289035537    -0.222578246392     1.007825032230
         H            2.451821634144    -2.138982035537    -0.224288246392     1.007825032230

  Basis Set: AUG-CC-PVTZ
    Blend: AUG-CC-PVTZ
  Basis Set: (AUG-CC-PVTZ AUX)
    Blend: AUG-CC-PVTZ-JKFIT
	 Reference Energy          =    -503.7136420974937892 [Eh]
	 Singles Energy            =      -0.0000000000000000 [Eh]
	 Same-Spin Energy          =      -0.5493703844459992 [Eh]
	 Opposite-Spin Energy      =      -1.6342656929036083 [Eh]
	 Correlation Energy        =      -2.1836360773496075 [Eh]
	 Total Energy              =    -505.8972781748433931 [Eh]

	 ================> DF-SCS-MP2 Energies <==================
	-----------------------------------------------------------
	 SCS Same-Spin Scale       =       0.3333333333333333 [-]
	 SCS Opposite-Spin Scale   =       1.2000000000000000 [-]
	 SCS Same-Spin Energy      =      -0.1831234614819997 [Eh]
	 SCS Opposite-Spin Energy  =      -1.9611188314843300 [Eh]
	 SCS Correlation Energy    =      -2.1442422929663296 [Eh]
	 SCS Total Energy          =    -505.8578843904601285 [Eh]
	-----------------------------------------------------------

  Dipole Moment: [D]
     X:    -3.0519      Y:    -0.8941      Z:    -0.7898     Total:     3.2768

*** Psi4 exiting successfully. Buy a developer a beer!
