                               Psi4 1.3.2 release

  ==> Input File <==

--------------------------------------------------------------------------
#psi4
#
memory 32 gb

molecule  {
0 1
  N       -1.7893040    -0.1617730    -0.0001110
  N       -0.2713240    -1.8496560    -0.0082220
  N       -0.2672930     1.7497910     0.0010540
  N        2.0532340     1.0361840    -0.0078740
  N        2.7268170    -1.1967150     0.0786200
  C       -0.5487760     0.4359060     0.0048010
  C        0.3666280    -0.6257540     0.0082110
  C       -1.5569310    -1.5157420    -0.0063070
  C        1.7103194    -0.2815294     0.0098433
  C       -3.0654680     0.5328540     0.0028660
  C        1.0578830     1.9506280    -0.0091420
  H       -2.3786350    -2.2235800    -0.0126570
  H       -3.1454970     1.1693440    -0.8801020
  H       -3.8626160    -0.2117770    -0.0066990
  H       -3.1511970     1.1523310     0.8973960
  H        1.3824760     2.9891980    -0.0128990
  H        3.6432886    -0.8789900    -0.2160332
  H        2.4794860    -2.1327440    -0.2212610
units angstrom
no_reorient  #important for SAPT in psi4, default
symmetry c1  #important for SAPT in psi4, default
}

set PROPERTIES_ORIGIN ["COM"]
properties('MP2/aug-cc-pvtz', properties = ['dipole'])
--------------------------------------------------------------------------

    Molecular point group: c1
  Charge       = 0
  Multiplicity = 1
  Basis Set: AUG-CC-PVTZ
    Blend: AUG-CC-PVTZ
  Basis Set: (AUG-CC-PVTZ AUX)
    Blend: AUG-CC-PVTZ-JKFIT

    Orbital Energies [Eh]
    ---------------------

    Doubly Occupied:

       1A    -15.633702     2A    -15.580929     3A    -15.567614
       4A    -15.559726     5A    -15.552600     6A    -11.333961
       7A    -11.323704     8A    -11.315167     9A    -11.310313
      10A    -11.289205    11A    -11.250937    12A     -1.368681
      13A     -1.293169    14A     -1.242089    15A     -1.197317
      16A     -1.147941    17A     -1.034066    18A     -0.987517
      19A     -0.891764    20A     -0.871164    21A     -0.803819
      22A     -0.752662    23A     -0.724249    24A     -0.682503
      25A     -0.670322    26A     -0.666965    27A     -0.623768
      28A     -0.607771    29A     -0.596856    30A     -0.592000
      31A     -0.572080    32A     -0.535324    33A     -0.495835
      34A     -0.492465    35A     -0.449551    36A     -0.414605
      37A     -0.409148    38A     -0.366685    39A     -0.309366

  @DF-RHF Final Energy:  -503.72389008181233

   => Energetics <=

    Nuclear Repulsion Energy =            594.3823715860113452
    One-Electron Energy =               -1863.1774444952272916
    Two-Electron Energy =                 765.0711828274035042
    Total Energy =                       -503.7238900818123284
  Basis Set: (AUG-CC-PVTZ AUX)
    Blend: AUG-CC-PVTZ-RI
    Molecular point group: c1

    Geometry (in Angstrom), charge = 0, multiplicity = 1:

       Center              X                  Y                   Z               Mass
    ------------   -----------------  -----------------  -----------------  -----------------
         N           -1.821699133543    -0.161151839677    -0.003842173572    14.003074004430
         N           -0.303719133543    -1.849034839677    -0.011953173572    14.003074004430
         N           -0.299688133543     1.750412160323    -0.002677173572    14.003074004430
         N            2.020838866457     1.036805160323    -0.011605173572    14.003074004430
         N            2.694421866457    -1.196093839677     0.074888826428    14.003074004430
         C           -0.581171133543     0.436527160323     0.001069826428    12.000000000000
         C            0.334232866457    -0.625132839677     0.004479826428    12.000000000000
         C           -1.589326133543    -1.515120839677    -0.010038173572    12.000000000000
         C            1.677924266457    -0.280908239677     0.006112126428    12.000000000000
         C           -3.097863133543     0.533475160323    -0.000865173572    12.000000000000
         C            1.025487866457     1.951249160323    -0.012873173572    12.000000000000
         H           -2.411030133543    -2.222958839677    -0.016388173572     1.007825032230
         H           -3.177892133543     1.169965160323    -0.883833173572     1.007825032230
         H           -3.895011133543    -0.211155839677    -0.010430173572     1.007825032230
         H           -3.183592133543     1.152952160323     0.893664826428     1.007825032230
         H            1.350080866457     2.989819160323    -0.016630173572     1.007825032230
         H            3.610893466457    -0.878368839677    -0.219764373572     1.007825032230
         H            2.447090866457    -2.132122839677    -0.224992173572     1.007825032230

  Basis Set: AUG-CC-PVTZ
    Blend: AUG-CC-PVTZ
  Basis Set: (AUG-CC-PVTZ AUX)
    Blend: AUG-CC-PVTZ-JKFIT
	 Reference Energy          =    -503.7238900818123284 [Eh]
	 Singles Energy            =      -0.0000000000000000 [Eh]
	 Same-Spin Energy          =      -0.5492521865695826 [Eh]
	 Opposite-Spin Energy      =      -1.6333018802076733 [Eh]
	 Correlation Energy        =      -2.1825540667772558 [Eh]
	 Total Energy              =    -505.9064441485895713 [Eh]

	 ================> DF-SCS-MP2 Energies <==================
	-----------------------------------------------------------
	 SCS Same-Spin Scale       =       0.3333333333333333 [-]
	 SCS Opposite-Spin Scale   =       1.2000000000000000 [-]
	 SCS Same-Spin Energy      =      -0.1830840621898609 [Eh]
	 SCS Opposite-Spin Energy  =      -1.9599622562492078 [Eh]
	 SCS Correlation Energy    =      -2.1430463184390689 [Eh]
	 SCS Total Energy          =    -505.8669364002514044 [Eh]
	-----------------------------------------------------------

  Dipole Moment: [D]
     X:    -2.7592      Y:    -1.2093      Z:    -0.7777     Total:     3.1113

*** Psi4 exiting successfully. Buy a developer a beer!
