                               Psi4 1.3.2 release

  ==> Input File <==

--------------------------------------------------------------------------
#psi4
#
memory 32 gb

molecule  {
0 1
  N       -1.7893040    -0.1617730    -0.0001110
  N       -0.2713240    -1.8496560    -0.0082220
  N       -0.2672930     1.7497910     0.0010540
  N        2.0452162     1.0275329    -0.0078342
  N        2.7268170    -1.1967150     0.0786200
  C       -0.5487760     0.4359060     0.0048010
  C        0.3666280    -0.6257540     0.0082110
  C       -1.5569310    -1.5157420    -0.0063070
  C        1.7257650    -0.2653140     0.0014880
  C       -3.0654680     0.5328540     0.0028660
  C        1.0578830     1.9506280    -0.0091420
  H       -2.3786350    -2.2235800    -0.0126570
  H       -3.1454970     1.1693440    -0.8801020
  H       -3.8626160    -0.2117770    -0.0066990
  H       -3.1511970     1.1523310     0.8973960
  H        1.3734005     2.9919911    -0.0128933
  H        3.6364610    -0.8630510    -0.2195510
  H        2.4794860    -2.1327440    -0.2212610
units angstrom
no_reorient  #important for SAPT in psi4, default
symmetry c1  #important for SAPT in psi4, default
}

set PROPERTIES_ORIGIN ["COM"]
properties('MP2/aug-cc-pvtz', properties = ['dipole'])
--------------------------------------------------------------------------

    Molecular point group: c1
  Charge       = 0
  Multiplicity = 1
  Basis Set: AUG-CC-PVTZ
    Blend: AUG-CC-PVTZ
  Basis Set: (AUG-CC-PVTZ AUX)
    Blend: AUG-CC-PVTZ-JKFIT

    Orbital Energies [Eh]
    ---------------------

    Doubly Occupied:

       1A    -15.632872     2A    -15.580259     3A    -15.567028
       4A    -15.560959     5A    -15.551183     6A    -11.333224
       7A    -11.322171     8A    -11.312342     9A    -11.312028
      10A    -11.288592    11A    -11.251592    12A     -1.367647
      13A     -1.297764    14A     -1.242220    15A     -1.196571
      16A     -1.152716    17A     -1.031297    18A     -0.985789
      19A     -0.890797    20A     -0.872814    21A     -0.802880
      22A     -0.753821    23A     -0.724010    24A     -0.680535
      25A     -0.673572    26A     -0.666255    27A     -0.625192
      28A     -0.606602    29A     -0.597034    30A     -0.591817
      31A     -0.571788    32A     -0.537264    33A     -0.495305
      34A     -0.492923    35A     -0.450097    36A     -0.413935
      37A     -0.407742    38A     -0.368474    39A     -0.307730

  @DF-RHF Final Energy:  -503.72515509038681

   => Energetics <=

    Nuclear Repulsion Energy =            594.6483609876838727
    One-Electron Energy =               -1863.7133507272176303
    Two-Electron Energy =                 765.3398346491469511
    Total Energy =                       -503.7251550903868065
  Basis Set: (AUG-CC-PVTZ AUX)
    Blend: AUG-CC-PVTZ-RI
    Molecular point group: c1

    Geometry (in Angstrom), charge = 0, multiplicity = 1:

       Center              X                  Y                   Z               Mass
    ------------   -----------------  -----------------  -----------------  -----------------
         N           -1.822081811180    -0.161771155406    -0.003149574395    14.003074004430
         N           -0.304101811180    -1.849654155406    -0.011260574395    14.003074004430
         N           -0.300070811180     1.749792844594    -0.001984574395    14.003074004430
         N            2.012438388820     1.027534744594    -0.010872774395    14.003074004430
         N            2.694039188820    -1.196713155406     0.075581425605    14.003074004430
         C           -0.581553811180     0.435907844594     0.001762425605    12.000000000000
         C            0.333850188820    -0.625752155406     0.005172425605    12.000000000000
         C           -1.589708811180    -1.515740155406    -0.009345574395    12.000000000000
         C            1.692987188820    -0.265312155406    -0.001550574395    12.000000000000
         C           -3.098245811180     0.532855844594    -0.000172574395    12.000000000000
         C            1.025105188820     1.950629844594    -0.012180574395    12.000000000000
         H           -2.411412811180    -2.223578155406    -0.015695574395     1.007825032230
         H           -3.178274811180     1.169345844594    -0.883140574395     1.007825032230
         H           -3.895393811180    -0.211775155406    -0.009737574395     1.007825032230
         H           -3.183974811180     1.152332844594     0.894357425605     1.007825032230
         H            1.340622688820     2.991992944594    -0.015931874395     1.007825032230
         H            3.603683188820    -0.863049155406    -0.222589574395     1.007825032230
         H            2.446708188820    -2.132742155406    -0.224299574395     1.007825032230

  Basis Set: AUG-CC-PVTZ
    Blend: AUG-CC-PVTZ
  Basis Set: (AUG-CC-PVTZ AUX)
    Blend: AUG-CC-PVTZ-JKFIT
	 Reference Energy          =    -503.7251550903868065 [Eh]
	 Singles Energy            =      -0.0000000000000000 [Eh]
	 Same-Spin Energy          =      -0.5492935346647009 [Eh]
	 Opposite-Spin Energy      =      -1.6329692889708718 [Eh]
	 Correlation Energy        =      -2.1822628236355728 [Eh]
	 Total Energy              =    -505.9074179140224032 [Eh]

	 ================> DF-SCS-MP2 Energies <==================
	-----------------------------------------------------------
	 SCS Same-Spin Scale       =       0.3333333333333333 [-]
	 SCS Opposite-Spin Scale   =       1.2000000000000000 [-]
	 SCS Same-Spin Energy      =      -0.1830978448882336 [Eh]
	 SCS Opposite-Spin Energy  =      -1.9595631467650461 [Eh]
	 SCS Correlation Energy    =      -2.1426609916532797 [Eh]
	 SCS Total Energy          =    -505.8678160820400649 [Eh]
	-----------------------------------------------------------

  Dipole Moment: [D]
     X:    -2.7288      Y:    -1.1163      Z:    -0.7904     Total:     3.0524

*** Psi4 exiting successfully. Buy a developer a beer!
