                               Psi4 1.3.2 release

  ==> Input File <==

--------------------------------------------------------------------------
#psi4
#
memory 32 gb

molecule  {
0 1
  N       -1.7944724    -0.1509246    -0.0001296
  N       -0.2713240    -1.8496560    -0.0082220
  N       -0.2672930     1.7497910     0.0010540
  N        2.0532340     1.0361840    -0.0078740
  N        2.7268170    -1.1967150     0.0786200
  C       -0.5487760     0.4359060     0.0048010
  C        0.3758577    -0.6177252     0.0082481
  C       -1.5569310    -1.5157420    -0.0063070
  C        1.7257650    -0.2653140     0.0014880
  C       -3.0654680     0.5328540     0.0028660
  C        1.0578830     1.9506280    -0.0091420
  H       -2.3786350    -2.2235800    -0.0126570
  H       -3.1454970     1.1693440    -0.8801020
  H       -3.8626160    -0.2117770    -0.0066990
  H       -3.1511970     1.1523310     0.8973960
  H        1.3824760     2.9891980    -0.0128990
  H        3.6364610    -0.8630510    -0.2195510
  H        2.4794860    -2.1327440    -0.2212610
units angstrom
no_reorient  #important for SAPT in psi4, default
symmetry c1  #important for SAPT in psi4, default
}

set PROPERTIES_ORIGIN ["COM"]
properties('MP2/aug-cc-pvtz', properties = ['dipole'])
--------------------------------------------------------------------------

    Molecular point group: c1
  Charge       = 0
  Multiplicity = 1
  Basis Set: AUG-CC-PVTZ
    Blend: AUG-CC-PVTZ
  Basis Set: (AUG-CC-PVTZ AUX)
    Blend: AUG-CC-PVTZ-JKFIT

    Orbital Energies [Eh]
    ---------------------

    Doubly Occupied:

       1A    -15.632663     2A    -15.580766     3A    -15.569315
       4A    -15.560580     5A    -15.552281     6A    -11.333453
       7A    -11.324279     8A    -11.314756     9A    -11.311731
      10A    -11.287709    11A    -11.251803    12A     -1.365509
      13A     -1.296288    14A     -1.242183    15A     -1.196583
      16A     -1.151976    17A     -1.032507    18A     -0.985972
      19A     -0.890032    20A     -0.872599    21A     -0.803378
      22A     -0.753639    23A     -0.723165    24A     -0.680349
      25A     -0.673096    26A     -0.666436    27A     -0.625362
      28A     -0.607567    29A     -0.597093    30A     -0.591917
      31A     -0.572378    32A     -0.535384    33A     -0.495537
      34A     -0.492762    35A     -0.449252    36A     -0.414125
      37A     -0.409006    38A     -0.367383    39A     -0.309959

  @DF-RHF Final Energy:  -503.72442516358393

   => Energetics <=

    Nuclear Repulsion Energy =            594.2271629412033462
    One-Electron Energy =               -1862.8616276452769398
    Two-Electron Energy =                 764.9100395404897199
    Total Energy =                       -503.7244251635839873
  Basis Set: (AUG-CC-PVTZ AUX)
    Blend: AUG-CC-PVTZ-RI
    Molecular point group: c1

    Geometry (in Angstrom), charge = 0, multiplicity = 1:

       Center              X                  Y                   Z               Mass
    ------------   -----------------  -----------------  -----------------  -----------------
         N           -1.828322211713    -0.153381890231    -0.003165636501    14.003074004430
         N           -0.305173811713    -1.852113290231    -0.011258036501    14.003074004430
         N           -0.301142811713     1.747333709769    -0.001982036501    14.003074004430
         N            2.019384188287     1.033726709769    -0.010910036501    14.003074004430
         N            2.692967188287    -1.199172290231     0.075583963499    14.003074004430
         C           -0.582625811713     0.433448709769     0.001764963499    12.000000000000
         C            0.342007888287    -0.620182490231     0.005212063499    12.000000000000
         C           -1.590780811713    -1.518199290231    -0.009343036501    12.000000000000
         C            1.691915188287    -0.267771290231    -0.001548036501    12.000000000000
         C           -3.099317811713     0.530396709769    -0.000170036501    12.000000000000
         C            1.024033188287     1.948170709769    -0.012178036501    12.000000000000
         H           -2.412484811713    -2.226037290231    -0.015693036501     1.007825032230
         H           -3.179346811713     1.166886709769    -0.883138036501     1.007825032230
         H           -3.896465811713    -0.214234290231    -0.009735036501     1.007825032230
         H           -3.185046811713     1.149873709769     0.894359963499     1.007825032230
         H            1.348626188287     2.986740709769    -0.015935036501     1.007825032230
         H            3.602611188287    -0.865508290231    -0.222587036501     1.007825032230
         H            2.445636188287    -2.135201290231    -0.224297036501     1.007825032230

  Basis Set: AUG-CC-PVTZ
    Blend: AUG-CC-PVTZ
  Basis Set: (AUG-CC-PVTZ AUX)
    Blend: AUG-CC-PVTZ-JKFIT
	 Reference Energy          =    -503.7244251635839305 [Eh]
	 Singles Energy            =      -0.0000000000000000 [Eh]
	 Same-Spin Energy          =      -0.5491239695892300 [Eh]
	 Opposite-Spin Energy      =      -1.6332057055169389 [Eh]
	 Correlation Energy        =      -2.1823296751061689 [Eh]
	 Total Energy              =    -505.9067548386901194 [Eh]

	 ================> DF-SCS-MP2 Energies <==================
	-----------------------------------------------------------
	 SCS Same-Spin Scale       =       0.3333333333333333 [-]
	 SCS Opposite-Spin Scale   =       1.2000000000000000 [-]
	 SCS Same-Spin Energy      =      -0.1830413231964100 [Eh]
	 SCS Opposite-Spin Energy  =      -1.9598468466203265 [Eh]
	 SCS Correlation Energy    =      -2.1428881698167364 [Eh]
	 SCS Total Energy          =    -505.8673133334006593 [Eh]
	-----------------------------------------------------------

  Dipole Moment: [D]
     X:    -2.7135      Y:    -1.1695      Z:    -0.7900     Total:     3.0586

*** Psi4 exiting successfully. Buy a developer a beer!
