                               Psi4 1.4a3.dev225

  ==> Input File <==

--------------------------------------------------------------------------
#psi4
#
memory 32 gb

molecule  {
0 1
  N       -1.7889380    -0.1640290    -0.0179520
  N       -0.2703210    -1.8482040    -0.0023970
  N       -0.2671710     1.7490810    -0.0033560
  N        2.0541740     1.0368940    -0.0085470
  N        2.7206340    -1.1973270     0.0732090
  C       -0.5590862     0.3862519     0.0048825
  C        0.3650590    -0.6247560     0.0169900
  C       -1.5569260    -1.5161270    -0.0162740
  C        1.7266360    -0.2641570     0.0048060
  C       -3.0641060     0.5324820     0.0177850
  C        1.0564750     1.9508360    -0.0110870
  H       -2.3762040    -2.2259510    -0.0342240
  H       -2.9284720     1.5041700    -0.4579320
  H       -3.8067760    -0.0485880    -0.5312030
  H       -3.3972360     0.6796990     1.0480130
  H        1.3812150     2.9891510    -0.0228070
  H        3.6427950    -0.8729100    -0.1905990
  H        2.4748820    -2.1409930    -0.1987870
units angstrom
no_reorient  #important for SAPT in psi4, default
symmetry c1  #important for SAPT in psi4, default
}

set PROPERTIES_ORIGIN ["COM"]
properties('MP2/aug-cc-pvtz', properties = ['dipole'])
--------------------------------------------------------------------------

    Molecular point group: c1
  Charge       = 0
  Multiplicity = 1
  Basis Set: AUG-CC-PVTZ
    Blend: AUG-CC-PVTZ
  Basis Set: (AUG-CC-PVTZ AUX)
    Blend: AUG-CC-PVTZ-JKFIT

    Orbital Energies [Eh]
    ---------------------

    Doubly Occupied:

       1A    -15.634465     2A    -15.583419     3A    -15.567949
       4A    -15.559068     5A    -15.548471     6A    -11.337320
       7A    -11.319623     8A    -11.308933     9A    -11.308678
      10A    -11.289708    11A    -11.248048    12A     -1.375554
      13A     -1.293924    14A     -1.235618    15A     -1.199927
      16A     -1.144239    17A     -1.034675    18A     -0.990109
      19A     -0.891886    20A     -0.866041    21A     -0.807588
      22A     -0.753909    23A     -0.725807    24A     -0.681812
      25A     -0.670618    26A     -0.669626    27A     -0.624016
      28A     -0.609533    29A     -0.595135    30A     -0.591376
      31A     -0.577029    32A     -0.539266    33A     -0.489711
      34A     -0.487764    35A     -0.448329    36A     -0.414764
      37A     -0.407042    38A     -0.363509    39A     -0.312186

  @DF-RHF Final Energy:  -503.72200553817135

   => Energetics <=

    Nuclear Repulsion Energy =            594.9037707451525421
    One-Electron Energy =               -1864.2382088775123066
    Two-Electron Energy =                 765.6124325941884763
    Total Energy =                       -503.7220055381712882
  Basis Set: (AUG-CC-PVTZ AUX)
    Blend: AUG-CC-PVTZ-RI
    Molecular point group: c1

    Geometry (in Angstrom), charge = 0, multiplicity = 1:

       Center              X                  Y                   Z               Mass
    ------------   -----------------  -----------------  -----------------  -----------------
         N           -1.821489401232    -0.160852921502    -0.020556025080    14.003074004430
         N           -0.302872401232    -1.845027921502    -0.005001025080    14.003074004430
         N           -0.299722401232     1.752257078498    -0.005960025080    14.003074004430
         N            2.021622598768     1.040070078498    -0.011151025080    14.003074004430
         N            2.688082598768    -1.194150921502     0.070604974920    14.003074004430
         C           -0.591637601232     0.389427978498     0.002278474920    12.000000000000
         C            0.332507598768    -0.621579921502     0.014385974920    12.000000000000
         C           -1.589477401232    -1.512950921502    -0.018878025080    12.000000000000
         C            1.694084598768    -0.260980921502     0.002201974920    12.000000000000
         C           -3.096657401232     0.535658078498     0.015180974920    12.000000000000
         C            1.023923598768     1.954012078498    -0.013691025080    12.000000000000
         H           -2.408755401232    -2.222774921502    -0.036828025080     1.007825032230
         H           -2.961023401232     1.507346078498    -0.460536025080     1.007825032230
         H           -3.839327401232    -0.045411921502    -0.533807025080     1.007825032230
         H           -3.429787401232     0.682875078498     1.045408974920     1.007825032230
         H            1.348663598768     2.992327078498    -0.025411025080     1.007825032230
         H            3.610243598768    -0.869733921502    -0.193203025080     1.007825032230
         H            2.442330598768    -2.137816921502    -0.201391025080     1.007825032230

  Basis Set: AUG-CC-PVTZ
    Blend: AUG-CC-PVTZ
  Basis Set: (AUG-CC-PVTZ AUX)
    Blend: AUG-CC-PVTZ-JKFIT
	 Reference Energy          =    -503.7220055381713451 [Eh]
	 Singles Energy            =      -0.0000000000000000 [Eh]
	 Same-Spin Energy          =      -0.5487989852188778 [Eh]
	 Opposite-Spin Energy      =      -1.6329147110076585 [Eh]
	 Correlation Energy        =      -2.1817136962265362 [Eh]
	 Total Energy              =    -505.9037192343978973 [Eh]

	 ================> DF-SCS-MP2 Energies <==================
	-----------------------------------------------------------
	 SCS Same-Spin Scale       =       0.3333333333333333 [-]
	 SCS Opposite-Spin Scale   =       1.2000000000000000 [-]
	 SCS Same-Spin Energy      =      -0.1829329950729593 [Eh]
	 SCS Opposite-Spin Energy  =      -1.9594976532091901 [Eh]
	 SCS Correlation Energy    =      -2.1424306482821494 [Eh]
	 SCS Total Energy          =    -505.8644361864534744 [Eh]
	-----------------------------------------------------------

  Dipole Moment: [D]
     X:    -2.7096      Y:    -1.2825      Z:    -0.7123     Total:     3.0813

*** Psi4 exiting successfully. Buy a developer a beer!
