                               Psi4 1.4a3.dev225

  ==> Input File <==

--------------------------------------------------------------------------
#psi4
#
memory 32 gb

molecule  {
0 1
  N       -1.7889380    -0.1640290    -0.0179520
  N       -0.2703210    -1.8482040    -0.0023970
  N       -0.2671710     1.7490810    -0.0033560
  N        2.0541740     1.0368940    -0.0085470
  N        2.7206340    -1.1973270     0.0732090
  C       -0.5486140     0.4351420     0.0045870
  C        0.3881011    -0.5803875     0.0176931
  C       -1.5569260    -1.5161270    -0.0162740
  C        1.7266360    -0.2641570     0.0048060
  C       -3.0641060     0.5324820     0.0177850
  C        1.0564750     1.9508360    -0.0110870
  H       -2.3762040    -2.2259510    -0.0342240
  H       -2.9284720     1.5041700    -0.4579320
  H       -3.8067760    -0.0485880    -0.5312030
  H       -3.3972360     0.6796990     1.0480130
  H        1.3812150     2.9891510    -0.0228070
  H        3.6427950    -0.8729100    -0.1905990
  H        2.4748820    -2.1409930    -0.1987870
units angstrom
no_reorient  #important for SAPT in psi4, default
symmetry c1  #important for SAPT in psi4, default
}

set PROPERTIES_ORIGIN ["COM"]
properties('MP2/aug-cc-pvtz', properties = ['dipole'])
--------------------------------------------------------------------------

    Molecular point group: c1
  Charge       = 0
  Multiplicity = 1
  Basis Set: AUG-CC-PVTZ
    Blend: AUG-CC-PVTZ
  Basis Set: (AUG-CC-PVTZ AUX)
    Blend: AUG-CC-PVTZ-JKFIT

    Orbital Energies [Eh]
    ---------------------

    Doubly Occupied:

       1A    -15.630896     2A    -15.581213     3A    -15.568187
       4A    -15.559958     5A    -15.551179     6A    -11.331481
       7A    -11.322292     8A    -11.314487     9A    -11.311419
      10A    -11.287343    11A    -11.248215    12A     -1.365209
      13A     -1.297746    14A     -1.241571    15A     -1.188247
      16A     -1.152015    17A     -1.036517    18A     -0.984268
      19A     -0.891801    20A     -0.873487    21A     -0.805104
      22A     -0.754667    23A     -0.719661    24A     -0.682060
      25A     -0.672484    26A     -0.666313    27A     -0.623824
      28A     -0.612964    29A     -0.595697    30A     -0.593115
      31A     -0.572079    32A     -0.535894    33A     -0.494647
      34A     -0.490195    35A     -0.443573    36A     -0.413612
      37A     -0.407355    38A     -0.366554    39A     -0.314582

  @DF-RHF Final Energy:  -503.72312895225389

   => Energetics <=

    Nuclear Repulsion Energy =            594.8042648673822441
    One-Electron Energy =               -1864.0509696157228063
    Two-Electron Energy =                 765.5235757960866749
    Total Energy =                       -503.7231289522538873
  Basis Set: (AUG-CC-PVTZ AUX)
    Blend: AUG-CC-PVTZ-RI
    Molecular point group: c1

    Geometry (in Angstrom), charge = 0, multiplicity = 1:

       Center              X                  Y                   Z               Mass
    ------------   -----------------  -----------------  -----------------  -----------------
         N           -1.824187269402    -0.168360147031    -0.020588836478    14.003074004430
         N           -0.305570269402    -1.852535147031    -0.005033836478    14.003074004430
         N           -0.302420269402     1.744749852969    -0.005992836478    14.003074004430
         N            2.018924730598     1.032562852969    -0.011183836478    14.003074004430
         N            2.685384730598    -1.201658147031     0.070572163522    14.003074004430
         C           -0.583863269402     0.430810852969     0.001950163522    12.000000000000
         C            0.352851830598    -0.584718647031     0.015056263522    12.000000000000
         C           -1.592175269402    -1.520458147031    -0.018910836478    12.000000000000
         C            1.691386730598    -0.268488147031     0.002169163522    12.000000000000
         C           -3.099355269402     0.528150852969     0.015148163522    12.000000000000
         C            1.021225730598     1.946504852969    -0.013723836478    12.000000000000
         H           -2.411453269402    -2.230282147031    -0.036860836478     1.007825032230
         H           -2.963721269402     1.499838852969    -0.460568836478     1.007825032230
         H           -3.842025269402    -0.052919147031    -0.533839836478     1.007825032230
         H           -3.432485269402     0.675367852969     1.045376163522     1.007825032230
         H            1.345965730598     2.984819852969    -0.025443836478     1.007825032230
         H            3.607545730598    -0.877241147031    -0.193235836478     1.007825032230
         H            2.439632730598    -2.145324147031    -0.201423836478     1.007825032230

  Basis Set: AUG-CC-PVTZ
    Blend: AUG-CC-PVTZ
  Basis Set: (AUG-CC-PVTZ AUX)
    Blend: AUG-CC-PVTZ-JKFIT
	 Reference Energy          =    -503.7231289522538873 [Eh]
	 Singles Energy            =      -0.0000000000000000 [Eh]
	 Same-Spin Energy          =      -0.5486068395850610 [Eh]
	 Opposite-Spin Energy      =      -1.6326454469387022 [Eh]
	 Correlation Energy        =      -2.1812522865237631 [Eh]
	 Total Energy              =    -505.9043812387776597 [Eh]

	 ================> DF-SCS-MP2 Energies <==================
	-----------------------------------------------------------
	 SCS Same-Spin Scale       =       0.3333333333333333 [-]
	 SCS Opposite-Spin Scale   =       1.2000000000000000 [-]
	 SCS Same-Spin Energy      =      -0.1828689465283536 [Eh]
	 SCS Opposite-Spin Energy  =      -1.9591745363264426 [Eh]
	 SCS Correlation Energy    =      -2.1420434828547963 [Eh]
	 SCS Total Energy          =    -505.8651724351086614 [Eh]
	-----------------------------------------------------------

  Dipole Moment: [D]
     X:    -2.6218      Y:    -1.1512      Z:    -0.7170     Total:     2.9518

*** Psi4 exiting successfully. Buy a developer a beer!
