                               Psi4 1.3.2 release

  ==> Input File <==

--------------------------------------------------------------------------
#psi4
#
memory 32 gb

molecule  {
0 1
  N       -1.7563257    -0.2258779     0.0003496
  N       -0.2713240    -1.8496560    -0.0082220
  N       -0.1989163     1.7332602     0.0015289
  N        2.0532340     1.0361840    -0.0078740
  N        2.7268170    -1.1967150     0.0786200
  C       -0.5487760     0.4359060     0.0048010
  C        0.3666280    -0.6257540     0.0082110
  C       -1.5569310    -1.5157420    -0.0063070
  C        1.7257650    -0.2653140     0.0014880
  C       -3.0654680     0.5328540     0.0028660
  C        1.0578830     1.9506280    -0.0091420
  H       -2.3786350    -2.2235800    -0.0126570
  H       -3.1454970     1.1693440    -0.8801020
  H       -3.8626160    -0.2117770    -0.0066990
  H       -3.1511970     1.1523310     0.8973960
  H        1.3824760     2.9891980    -0.0128990
  H        3.6364610    -0.8630510    -0.2195510
  H        2.4794860    -2.1327440    -0.2212610
units angstrom
no_reorient  #important for SAPT in psi4, default
symmetry c1  #important for SAPT in psi4, default
}

set PROPERTIES_ORIGIN ["COM"]
properties('MP2/aug-cc-pvtz', properties = ['dipole'])
--------------------------------------------------------------------------

    Molecular point group: c1
  Charge       = 0
  Multiplicity = 1
  Basis Set: AUG-CC-PVTZ
    Blend: AUG-CC-PVTZ
  Basis Set: (AUG-CC-PVTZ AUX)
    Blend: AUG-CC-PVTZ-JKFIT

    Orbital Energies [Eh]
    ---------------------

    Doubly Occupied:

       1A    -15.638762     2A    -15.577685     3A    -15.558024
       4A    -15.554250     5A    -15.545196     6A    -11.330815
       7A    -11.314950     8A    -11.310300     9A    -11.299304
      10A    -11.298163    11A    -11.249708    12A     -1.380694
      13A     -1.304145    14A     -1.245828    15A     -1.188214
      16A     -1.149083    17A     -1.038003    18A     -0.988212
      19A     -0.898183    20A     -0.873673    21A     -0.802280
      22A     -0.756076    23A     -0.724217    24A     -0.685443
      25A     -0.675812    26A     -0.669438    27A     -0.621188
      28A     -0.611302    29A     -0.599194    30A     -0.595284
      31A     -0.568041    32A     -0.544974    33A     -0.501026
      34A     -0.483639    35A     -0.443928    36A     -0.410544
      37A     -0.401114    38A     -0.368220    39A     -0.309490

  @DF-RHF Final Energy:  -503.71715855889011

   => Energetics <=

    Nuclear Repulsion Energy =            596.3490913132267224
    One-Electron Energy =               -1867.1036956141933842
    Two-Electron Energy =                 767.0374457420764429
    Total Energy =                       -503.7171585588901053
  Basis Set: (AUG-CC-PVTZ AUX)
    Blend: AUG-CC-PVTZ-RI
    Molecular point group: c1

    Geometry (in Angstrom), charge = 0, multiplicity = 1:

       Center              X                  Y                   Z               Mass
    ------------   -----------------  -----------------  -----------------  -----------------
         N           -1.799438926941    -0.219095216524    -0.002773074459    14.003074004430
         N           -0.314437226941    -1.842873316524    -0.011344674459    14.003074004430
         N           -0.242029526941     1.740042883476    -0.001593774459    14.003074004430
         N            2.010120773059     1.042966683476    -0.010996674459    14.003074004430
         N            2.683703773059    -1.189932316524     0.075497325541    14.003074004430
         C           -0.591889226941     0.442688683476     0.001678325541    12.000000000000
         C            0.323514773059    -0.618971316524     0.005088325541    12.000000000000
         C           -1.600044226941    -1.508959316524    -0.009429674459    12.000000000000
         C            1.682651773059    -0.258531316524    -0.001634674459    12.000000000000
         C           -3.108581226941     0.539636683476    -0.000256674459    12.000000000000
         C            1.014769773059     1.957410683476    -0.012264674459    12.000000000000
         H           -2.421748226941    -2.216797316524    -0.015779674459     1.007825032230
         H           -3.188610226941     1.176126683476    -0.883224674459     1.007825032230
         H           -3.905729226941    -0.204994316524    -0.009821674459     1.007825032230
         H           -3.194310226941     1.159113683476     0.894273325541     1.007825032230
         H            1.339362773059     2.995980683476    -0.016021674459     1.007825032230
         H            3.593347773059    -0.856268316524    -0.222673674459     1.007825032230
         H            2.436372773059    -2.125961316524    -0.224383674459     1.007825032230

  Basis Set: AUG-CC-PVTZ
    Blend: AUG-CC-PVTZ
  Basis Set: (AUG-CC-PVTZ AUX)
    Blend: AUG-CC-PVTZ-JKFIT
	 Reference Energy          =    -503.7171585588901053 [Eh]
	 Singles Energy            =      -0.0000000000000000 [Eh]
	 Same-Spin Energy          =      -0.5488399319016959 [Eh]
	 Opposite-Spin Energy      =      -1.6307549370841792 [Eh]
	 Correlation Energy        =      -2.1795948689858751 [Eh]
	 Total Energy              =    -505.8967534278759786 [Eh]

	 ================> DF-SCS-MP2 Energies <==================
	-----------------------------------------------------------
	 SCS Same-Spin Scale       =       0.3333333333333333 [-]
	 SCS Opposite-Spin Scale   =       1.2000000000000000 [-]
	 SCS Same-Spin Energy      =      -0.1829466439672320 [Eh]
	 SCS Opposite-Spin Energy  =      -1.9569059245010150 [Eh]
	 SCS Correlation Energy    =      -2.1398525684682470 [Eh]
	 SCS Total Energy          =    -505.8570111273583620 [Eh]
	-----------------------------------------------------------

  Dipole Moment: [D]
     X:    -3.1473      Y:    -0.9393      Z:    -0.7891     Total:     3.3779

*** Psi4 exiting successfully. Buy a developer a beer!
