                               Psi4 1.3.2 release

  ==> Input File <==

--------------------------------------------------------------------------
#psi4
#
memory 32 gb

molecule  {
0 1
  N       -1.7893040    -0.1617730    -0.0001110
  N       -0.2713240    -1.8496560    -0.0082220
  N       -0.2672930     1.7497910     0.0010540
  N        2.0532340     1.0361840    -0.0078740
  N        2.7268170    -1.1967150     0.0786200
  C       -0.5385337     0.4141651     0.0046780
  C        0.3666280    -0.6257540     0.0082110
  C       -1.5569310    -1.5157420    -0.0063070
  C        1.7257650    -0.2653140     0.0014880
  C       -3.0773966     0.5104766     0.0027168
  C        1.0578830     1.9506280    -0.0091420
  H       -2.3786350    -2.2235800    -0.0126570
  H       -3.1454970     1.1693440    -0.8801020
  H       -3.8626160    -0.2117770    -0.0066990
  H       -3.1511970     1.1523310     0.8973960
  H        1.3824760     2.9891980    -0.0128990
  H        3.6364610    -0.8630510    -0.2195510
  H        2.4794860    -2.1327440    -0.2212610
units angstrom
no_reorient  #important for SAPT in psi4, default
symmetry c1  #important for SAPT in psi4, default
}

set PROPERTIES_ORIGIN ["COM"]
properties('MP2/aug-cc-pvtz', properties = ['dipole'])
--------------------------------------------------------------------------

    Molecular point group: c1
  Charge       = 0
  Multiplicity = 1
  Basis Set: AUG-CC-PVTZ
    Blend: AUG-CC-PVTZ
  Basis Set: (AUG-CC-PVTZ AUX)
    Blend: AUG-CC-PVTZ-JKFIT

    Orbital Energies [Eh]
    ---------------------

    Doubly Occupied:

       1A    -15.632877     2A    -15.582391     3A    -15.566443
       4A    -15.561022     5A    -15.551598     6A    -11.336267
       7A    -11.321760     8A    -11.311532     9A    -11.310663
      10A    -11.289120    11A    -11.250642    12A     -1.368676
      13A     -1.295735    14A     -1.239812    15A     -1.196950
      16A     -1.149593    17A     -1.034715    18A     -0.986665
      19A     -0.890523    20A     -0.869459    21A     -0.806088
      22A     -0.753636    23A     -0.723470    24A     -0.681040
      25A     -0.672124    26A     -0.664238    27A     -0.623993
      28A     -0.608193    29A     -0.597601    30A     -0.590298
      31A     -0.576692    32A     -0.535515    33A     -0.493472
      34A     -0.491544    35A     -0.450276    36A     -0.413299
      37A     -0.408737    38A     -0.367626    39A     -0.311039

  @DF-RHF Final Energy:  -503.72371972713790

   => Energetics <=

    Nuclear Repulsion Energy =            594.4306037866650740
    One-Electron Energy =               -1863.2780069985683440
    Two-Electron Energy =                 765.1236834847654791
    Total Energy =                       -503.7237197271379046
  Basis Set: (AUG-CC-PVTZ AUX)
    Blend: AUG-CC-PVTZ-RI
    Molecular point group: c1

    Geometry (in Angstrom), charge = 0, multiplicity = 1:

       Center              X                  Y                   Z               Mass
    ------------   -----------------  -----------------  -----------------  -----------------
         N           -1.822760584000    -0.159013443177    -0.003123885368    14.003074004430
         N           -0.304780584000    -1.846896443177    -0.011234885368    14.003074004430
         N           -0.300749584000     1.752550556823    -0.001958885368    14.003074004430
         N            2.019777416000     1.038943556823    -0.010886885368    14.003074004430
         N            2.693360416000    -1.193955443177     0.075607114632    14.003074004430
         C           -0.571990284000     0.416924656823     0.001665114632    12.000000000000
         C            0.333171416000    -0.622994443177     0.005198114632    12.000000000000
         C           -1.590387584000    -1.512982443177    -0.009319885368    12.000000000000
         C            1.692308416000    -0.262554443177    -0.001524885368    12.000000000000
         C           -3.110853184000     0.513236156823    -0.000296085368    12.000000000000
         C            1.024426416000     1.953387556823    -0.012154885368    12.000000000000
         H           -2.412091584000    -2.220820443177    -0.015669885368     1.007825032230
         H           -3.178953584000     1.172103556823    -0.883114885368     1.007825032230
         H           -3.896072584000    -0.209017443177    -0.009711885368     1.007825032230
         H           -3.184653584000     1.155090556823     0.894383114632     1.007825032230
         H            1.349019416000     2.991957556823    -0.015911885368     1.007825032230
         H            3.603004416000    -0.860291443177    -0.222563885368     1.007825032230
         H            2.446029416000    -2.129984443177    -0.224273885368     1.007825032230

  Basis Set: AUG-CC-PVTZ
    Blend: AUG-CC-PVTZ
  Basis Set: (AUG-CC-PVTZ AUX)
    Blend: AUG-CC-PVTZ-JKFIT
	 Reference Energy          =    -503.7237197271379046 [Eh]
	 Singles Energy            =      -0.0000000000000000 [Eh]
	 Same-Spin Energy          =      -0.5489561941633769 [Eh]
	 Opposite-Spin Energy      =      -1.6330674126132010 [Eh]
	 Correlation Energy        =      -2.1820236067765779 [Eh]
	 Total Energy              =    -505.9057433339144723 [Eh]

	 ================> DF-SCS-MP2 Energies <==================
	-----------------------------------------------------------
	 SCS Same-Spin Scale       =       0.3333333333333333 [-]
	 SCS Opposite-Spin Scale   =       1.2000000000000000 [-]
	 SCS Same-Spin Energy      =      -0.1829853980544590 [Eh]
	 SCS Opposite-Spin Energy  =      -1.9596808951358411 [Eh]
	 SCS Correlation Energy    =      -2.1426662931903002 [Eh]
	 SCS Total Energy          =    -505.8663860203282070 [Eh]
	-----------------------------------------------------------

  Dipole Moment: [D]
     X:    -2.7130      Y:    -1.1853      Z:    -0.7883     Total:     3.0638

*** Psi4 exiting successfully. Buy a developer a beer!
