                               Psi4 1.3.2 release

  ==> Input File <==

--------------------------------------------------------------------------
#psi4
#
memory 32 gb

molecule  {
0 1
  N       -1.7773756    -0.1393964     0.0001410
  N       -0.2713240    -1.8496560    -0.0082220
  N       -0.2672930     1.7497910     0.0010540
  N        2.0532340     1.0361840    -0.0078740
  N        2.7268170    -1.1967150     0.0786200
  C       -0.5487760     0.4359060     0.0048010
  C        0.3666280    -0.6257540     0.0082110
  C       -1.5569310    -1.5157420    -0.0063070
  C        1.7257650    -0.2653140     0.0014880
  C       -3.0654680     0.5328540     0.0028660
  C        1.0578830     1.9506280    -0.0091420
  H       -2.3786350    -2.2235800    -0.0126570
  H       -3.1454970     1.1693440    -0.8801020
  H       -3.8754911    -0.1977517    -0.0066009
  H       -3.1511970     1.1523310     0.8973960
  H        1.3824760     2.9891980    -0.0128990
  H        3.6364610    -0.8630510    -0.2195510
  H        2.4794860    -2.1327440    -0.2212610
units angstrom
no_reorient  #important for SAPT in psi4, default
symmetry c1  #important for SAPT in psi4, default
}

set PROPERTIES_ORIGIN ["COM"]
properties('MP2/aug-cc-pvtz', properties = ['dipole'])
--------------------------------------------------------------------------

    Molecular point group: c1
  Charge       = 0
  Multiplicity = 1
  Basis Set: AUG-CC-PVTZ
    Blend: AUG-CC-PVTZ
  Basis Set: (AUG-CC-PVTZ AUX)
    Blend: AUG-CC-PVTZ-JKFIT

    Orbital Energies [Eh]
    ---------------------

    Doubly Occupied:

       1A    -15.632806     2A    -15.580959     3A    -15.570369
       4A    -15.559075     5A    -15.551335     6A    -11.334455
       7A    -11.323401     8A    -11.312032     9A    -11.311437
      10A    -11.288329    11A    -11.251071    12A     -1.368232
      13A     -1.295212    14A     -1.242496    15A     -1.197885
      16A     -1.150983    17A     -1.032207    18A     -0.985294
      19A     -0.889576    20A     -0.871396    21A     -0.803956
      22A     -0.754048    23A     -0.724838    24A     -0.679157
      25A     -0.672764    26A     -0.666676    27A     -0.625410
      28A     -0.602905    29A     -0.596307    30A     -0.591175
      31A     -0.576258    32A     -0.535968    33A     -0.495373
      34A     -0.491906    35A     -0.451106    36A     -0.415617
      37A     -0.408538    38A     -0.365747    39A     -0.308649

  @DF-RHF Final Energy:  -503.72429727260220

   => Energetics <=

    Nuclear Repulsion Energy =            594.4839117700381621
    One-Electron Energy =               -1863.3865243666339211
    Two-Electron Energy =                 765.1783153239933881
    Total Energy =                       -503.7242972726022572
  Basis Set: (AUG-CC-PVTZ AUX)
    Blend: AUG-CC-PVTZ-RI
    Molecular point group: c1

    Geometry (in Angstrom), charge = 0, multiplicity = 1:

       Center              X                  Y                   Z               Mass
    ------------   -----------------  -----------------  -----------------  -----------------
         N           -1.812001392091    -0.142385115796    -0.002918132336    14.003074004430
         N           -0.305949792091    -1.852644715796    -0.011281132336    14.003074004430
         N           -0.301918792091     1.746802284204    -0.002005132336    14.003074004430
         N            2.018608207909     1.033195284204    -0.010933132336    14.003074004430
         N            2.692191207909    -1.199703715796     0.075560867664    14.003074004430
         C           -0.583401792091     0.432917284204     0.001741867664    12.000000000000
         C            0.332002207909    -0.628742715796     0.005151867664    12.000000000000
         C           -1.591556792091    -1.518730715796    -0.009366132336    12.000000000000
         C            1.691139207909    -0.268302715796    -0.001571132336    12.000000000000
         C           -3.100093792091     0.529865284204    -0.000193132336    12.000000000000
         C            1.023257207909     1.947639284204    -0.012201132336    12.000000000000
         H           -2.413260792091    -2.226568715796    -0.015716132336     1.007825032230
         H           -3.180122792091     1.166355284204    -0.883161132336     1.007825032230
         H           -3.910116892091    -0.200740415796    -0.009660032336     1.007825032230
         H           -3.185822792091     1.149342284204     0.894336867664     1.007825032230
         H            1.347850207909     2.986209284204    -0.015958132336     1.007825032230
         H            3.601835207909    -0.866039715796    -0.222610132336     1.007825032230
         H            2.444860207909    -2.135732715796    -0.224320132336     1.007825032230

  Basis Set: AUG-CC-PVTZ
    Blend: AUG-CC-PVTZ
  Basis Set: (AUG-CC-PVTZ AUX)
    Blend: AUG-CC-PVTZ-JKFIT
	 Reference Energy          =    -503.7242972726022003 [Eh]
	 Singles Energy            =      -0.0000000000000000 [Eh]
	 Same-Spin Energy          =      -0.5491303868801419 [Eh]
	 Opposite-Spin Energy      =      -1.6330612808621046 [Eh]
	 Correlation Energy        =      -2.1821916677422464 [Eh]
	 Total Energy              =    -505.9064889403444454 [Eh]

	 ================> DF-SCS-MP2 Energies <==================
	-----------------------------------------------------------
	 SCS Same-Spin Scale       =       0.3333333333333333 [-]
	 SCS Opposite-Spin Scale   =       1.2000000000000000 [-]
	 SCS Same-Spin Energy      =      -0.1830434622933806 [Eh]
	 SCS Opposite-Spin Energy  =      -1.9596735370345253 [Eh]
	 SCS Correlation Energy    =      -2.1427169993279058 [Eh]
	 SCS Total Energy          =    -505.8670142719300884 [Eh]
	-----------------------------------------------------------

  Dipole Moment: [D]
     X:    -2.7655      Y:    -1.2179      Z:    -0.7893     Total:     3.1232

*** Psi4 exiting successfully. Buy a developer a beer!
