                               Psi4 1.4a3.dev225

  ==> Input File <==

--------------------------------------------------------------------------
#psi4
#
memory 32 gb

molecule  {
0 1
  N       -1.7889380    -0.1640290    -0.0179520
  N       -0.2703210    -1.8482040    -0.0023970
  N       -0.2671710     1.7490810    -0.0033560
  N        2.0541740     1.0368940    -0.0085470
  N        2.7206340    -1.1973270     0.0732090
  C       -0.5486140     0.4351420     0.0045870
  C        0.3650590    -0.6247560     0.0169900
  C       -1.5569260    -1.5161270    -0.0162740
  C        1.7266360    -0.2641570     0.0048060
  C       -3.0641060     0.5324820     0.0177850
  C        1.0762463     1.9538496    -0.0112025
  H       -2.3762040    -2.2259510    -0.0342240
  H       -2.9284720     1.5041700    -0.4579320
  H       -3.8067760    -0.0485880    -0.5312030
  H       -3.3972360     0.6796990     1.0480130
  H        1.3812150     2.9891510    -0.0228070
  H        3.6427950    -0.8729100    -0.1905990
  H        2.4748820    -2.1409930    -0.1987870
units angstrom
no_reorient  #important for SAPT in psi4, default
symmetry c1  #important for SAPT in psi4, default
}

set PROPERTIES_ORIGIN ["COM"]
properties('MP2/aug-cc-pvtz', properties = ['dipole'])
--------------------------------------------------------------------------

    Molecular point group: c1
  Charge       = 0
  Multiplicity = 1
  Basis Set: AUG-CC-PVTZ
    Blend: AUG-CC-PVTZ
  Basis Set: (AUG-CC-PVTZ AUX)
    Blend: AUG-CC-PVTZ-JKFIT

    Orbital Energies [Eh]
    ---------------------

    Doubly Occupied:

       1A    -15.631266     2A    -15.581753     3A    -15.566894
       4A    -15.559387     5A    -15.552347     6A    -11.335466
       7A    -11.321101     8A    -11.312126     9A    -11.312009
      10A    -11.286533    11A    -11.250390    12A     -1.367000
      13A     -1.296337    14A     -1.239762    15A     -1.196192
      16A     -1.152255    17A     -1.029895    18A     -0.984945
      19A     -0.892234    20A     -0.871438    21A     -0.802303
      22A     -0.753426    23A     -0.725357    24A     -0.681830
      25A     -0.673610    26A     -0.665640    27A     -0.624746
      28A     -0.606320    29A     -0.595434    30A     -0.592261
      31A     -0.571312    32A     -0.537125    33A     -0.493256
      34A     -0.491887    35A     -0.450466    36A     -0.414094
      37A     -0.407057    38A     -0.368704    39A     -0.304950

  @DF-RHF Final Energy:  -503.72418629880087

   => Energetics <=

    Nuclear Repulsion Energy =            594.3873315542605269
    One-Electron Energy =               -1863.2248197222877479
    Two-Electron Energy =                 765.1133018692263477
    Total Energy =                       -503.7241862988008734
  Basis Set: (AUG-CC-PVTZ AUX)
    Blend: AUG-CC-PVTZ-RI
    Molecular point group: c1

    Geometry (in Angstrom), charge = 0, multiplicity = 1:

       Center              X                  Y                   Z               Mass
    ------------   -----------------  -----------------  -----------------  -----------------
         N           -1.823923973221    -0.165031118276    -0.020522939984    14.003074004430
         N           -0.305306973221    -1.849206118276    -0.004967939984    14.003074004430
         N           -0.302156973221     1.748078881724    -0.005926939984    14.003074004430
         N            2.019188026779     1.035891881724    -0.011117939984    14.003074004430
         N            2.685648026779    -1.198329118276     0.070638060016    14.003074004430
         C           -0.583599973221     0.434139881724     0.002016060016    12.000000000000
         C            0.330073026779    -0.625758118276     0.014419060016    12.000000000000
         C           -1.591911973221    -1.517129118276    -0.018844939984    12.000000000000
         C            1.691650026779    -0.265159118276     0.002235060016    12.000000000000
         C           -3.099091973221     0.531479881724     0.015214060016    12.000000000000
         C            1.041260326779     1.952847481724    -0.013773439984    12.000000000000
         H           -2.411189973221    -2.226953118276    -0.036794939984     1.007825032230
         H           -2.963457973221     1.503167881724    -0.460502939984     1.007825032230
         H           -3.841761973221    -0.049590118276    -0.533773939984     1.007825032230
         H           -3.432221973221     0.678696881724     1.045442060016     1.007825032230
         H            1.346229026779     2.988148881724    -0.025377939984     1.007825032230
         H            3.607809026779    -0.873912118276    -0.193169939984     1.007825032230
         H            2.439896026779    -2.141995118276    -0.201357939984     1.007825032230

  Basis Set: AUG-CC-PVTZ
    Blend: AUG-CC-PVTZ
  Basis Set: (AUG-CC-PVTZ AUX)
    Blend: AUG-CC-PVTZ-JKFIT
	 Reference Energy          =    -503.7241862988008734 [Eh]
	 Singles Energy            =      -0.0000000000000000 [Eh]
	 Same-Spin Energy          =      -0.5494352598435452 [Eh]
	 Opposite-Spin Energy      =      -1.6331218267803664 [Eh]
	 Correlation Energy        =      -2.1825570866239117 [Eh]
	 Total Energy              =    -505.9067433854247611 [Eh]

	 ================> DF-SCS-MP2 Energies <==================
	-----------------------------------------------------------
	 SCS Same-Spin Scale       =       0.3333333333333333 [-]
	 SCS Opposite-Spin Scale   =       1.2000000000000000 [-]
	 SCS Same-Spin Energy      =      -0.1831450866145151 [Eh]
	 SCS Opposite-Spin Energy  =      -1.9597461921364396 [Eh]
	 SCS Correlation Energy    =      -2.1428912787509549 [Eh]
	 SCS Total Energy          =    -505.8670775775518109 [Eh]
	-----------------------------------------------------------

  Dipole Moment: [D]
     X:    -2.5755      Y:    -1.2089      Z:    -0.7134     Total:     2.9332

*** Psi4 exiting successfully. Buy a developer a beer!
