                               Psi4 1.3.2 release

  ==> Input File <==

--------------------------------------------------------------------------
#psi4
#
memory 32 gb

molecule  {
0 1
  N       -1.7893040    -0.1617730    -0.0001110
  N       -0.2713240    -1.8496560    -0.0082220
  N       -0.2672930     1.7497910     0.0010540
  N        2.0532340     1.0361840    -0.0078740
  N        2.7268170    -1.1967150     0.0786200
  C       -0.5487760     0.4359060     0.0048010
  C        0.3666280    -0.6257540     0.0082110
  C       -1.5569310    -1.5157420    -0.0063070
  C        1.7031002    -0.2594001     0.0015501
  C       -3.0654680     0.5328540     0.0028660
  C        1.0420757     1.9331180    -0.0089666
  H       -2.3786350    -2.2235800    -0.0126570
  H       -3.1454970     1.1693440    -0.8801020
  H       -3.8626160    -0.2117770    -0.0066990
  H       -3.1511970     1.1523310     0.8973960
  H        1.3824760     2.9891980    -0.0128990
  H        3.6364610    -0.8630510    -0.2195510
  H        2.4794860    -2.1327440    -0.2212610
units angstrom
no_reorient  #important for SAPT in psi4, default
symmetry c1  #important for SAPT in psi4, default
}

set PROPERTIES_ORIGIN ["COM"]
properties('MP2/aug-cc-pvtz', properties = ['dipole'])
--------------------------------------------------------------------------

    Molecular point group: c1
  Charge       = 0
  Multiplicity = 1
  Basis Set: AUG-CC-PVTZ
    Blend: AUG-CC-PVTZ
  Basis Set: (AUG-CC-PVTZ AUX)
    Blend: AUG-CC-PVTZ-JKFIT

    Orbital Energies [Eh]
    ---------------------

    Doubly Occupied:

       1A    -15.634968     2A    -15.577367     3A    -15.568969
       4A    -15.562076     5A    -15.553236     6A    -11.332541
       7A    -11.324508     8A    -11.315866     9A    -11.310940
      10A    -11.290208    11A    -11.251830    12A     -1.370506
      13A     -1.298507    14A     -1.241955    15A     -1.196798
      16A     -1.152552    17A     -1.035782    18A     -0.988313
      19A     -0.892060    20A     -0.873054    21A     -0.803608
      22A     -0.754275    23A     -0.720691    24A     -0.680330
      25A     -0.670459    26A     -0.668158    27A     -0.622806
      28A     -0.608952    29A     -0.597133    30A     -0.590876
      31A     -0.571863    32A     -0.536212    33A     -0.496544
      34A     -0.492234    35A     -0.452327    36A     -0.416811
      37A     -0.411225    38A     -0.369231    39A     -0.312396

  @DF-RHF Final Energy:  -503.72387769583548

   => Energetics <=

    Nuclear Repulsion Energy =            595.0958491413645106
    One-Electron Energy =               -1864.5431237736488583
    Two-Electron Energy =                 765.7233969364490349
    Total Energy =                       -503.7238776958354265
  Basis Set: (AUG-CC-PVTZ AUX)
    Blend: AUG-CC-PVTZ-RI
    Molecular point group: c1

    Geometry (in Angstrom), charge = 0, multiplicity = 1:

       Center              X                  Y                   Z               Mass
    ------------   -----------------  -----------------  -----------------  -----------------
         N           -1.819799363299    -0.161631448274    -0.003164915716    14.003074004430
         N           -0.301819363299    -1.849514448274    -0.011275915716    14.003074004430
         N           -0.297788363299     1.749932551726    -0.001999915716    14.003074004430
         N            2.022738636701     1.036325551726    -0.010927915716    14.003074004430
         N            2.696321636701    -1.196573448274     0.075566084284    14.003074004430
         C           -0.579271363299     0.436047551726     0.001747084284    12.000000000000
         C            0.336132636701    -0.625612448274     0.005157084284    12.000000000000
         C           -1.587426363299    -1.515600448274    -0.009360915716    12.000000000000
         C            1.672604836701    -0.259258548274    -0.001503815716    12.000000000000
         C           -3.095963363299     0.532995551726    -0.000187915716    12.000000000000
         C            1.011580336701     1.933259551726    -0.012020515716    12.000000000000
         H           -2.409130363299    -2.223438448274    -0.015710915716     1.007825032230
         H           -3.175992363299     1.169485551726    -0.883155915716     1.007825032230
         H           -3.893111363299    -0.211635448274    -0.009752915716     1.007825032230
         H           -3.181692363299     1.152472551726     0.894342084284     1.007825032230
         H            1.351980636701     2.989339551726    -0.015952915716     1.007825032230
         H            3.605965636701    -0.862909448274    -0.222604915716     1.007825032230
         H            2.448990636701    -2.132602448274    -0.224314915716     1.007825032230

  Basis Set: AUG-CC-PVTZ
    Blend: AUG-CC-PVTZ
  Basis Set: (AUG-CC-PVTZ AUX)
    Blend: AUG-CC-PVTZ-JKFIT
	 Reference Energy          =    -503.7238776958354833 [Eh]
	 Singles Energy            =      -0.0000000000000000 [Eh]
	 Same-Spin Energy          =      -0.5490277739824623 [Eh]
	 Opposite-Spin Energy      =      -1.6328161794052138 [Eh]
	 Correlation Energy        =      -2.1818439533876761 [Eh]
	 Total Energy              =    -505.9057216492231532 [Eh]

	 ================> DF-SCS-MP2 Energies <==================
	-----------------------------------------------------------
	 SCS Same-Spin Scale       =       0.3333333333333333 [-]
	 SCS Opposite-Spin Scale   =       1.2000000000000000 [-]
	 SCS Same-Spin Energy      =      -0.1830092579941541 [Eh]
	 SCS Opposite-Spin Energy  =      -1.9593794152862565 [Eh]
	 SCS Correlation Energy    =      -2.1423886732804105 [Eh]
	 SCS Total Energy          =    -505.8662663691159196 [Eh]
	-----------------------------------------------------------

  Dipole Moment: [D]
     X:    -2.9520      Y:    -1.0968      Z:    -0.7936     Total:     3.2476

*** Psi4 exiting successfully. Buy a developer a beer!
