                               Psi4 1.4a3.dev225

  ==> Input File <==

--------------------------------------------------------------------------
#psi4
#
memory 32 gb

molecule  {
0 1
  N       -1.7889380    -0.1640290    -0.0179520
  N       -0.2703210    -1.8482040    -0.0023970
  N       -0.2671710     1.7490810    -0.0033560
  N        2.0541740     1.0368940    -0.0085470
  N        2.7206340    -1.1973270     0.0732090
  C       -0.5486140     0.4351420     0.0045870
  C        0.3650590    -0.6247560     0.0169900
  C       -1.5569260    -1.5161270    -0.0162740
  C        1.7266360    -0.2641570     0.0048060
  C       -3.0641060     0.5324820     0.0177850
  C        1.0564750     1.9508360    -0.0110870
  H       -2.3762040    -2.2259510    -0.0342240
  H       -2.9284720     1.5041700    -0.4579320
  H       -3.8067760    -0.0485880    -0.5312030
  H       -3.3972360     0.6796990     1.0480130
  H        1.3752454     2.9700639    -0.0225916
  H        3.6427950    -0.8729100    -0.1905990
  H        2.4748820    -2.1409930    -0.1987870
units angstrom
no_reorient  #important for SAPT in psi4, default
symmetry c1  #important for SAPT in psi4, default
}

set PROPERTIES_ORIGIN ["COM"]
properties('MP2/aug-cc-pvtz', properties = ['dipole'])
--------------------------------------------------------------------------

    Molecular point group: c1
  Charge       = 0
  Multiplicity = 1
  Basis Set: AUG-CC-PVTZ
    Blend: AUG-CC-PVTZ
  Basis Set: (AUG-CC-PVTZ AUX)
    Blend: AUG-CC-PVTZ-JKFIT

    Orbital Energies [Eh]
    ---------------------

    Doubly Occupied:

       1A    -15.632024     2A    -15.581318     3A    -15.567245
       4A    -15.559705     5A    -15.551399     6A    -11.334666
       7A    -11.320818     8A    -11.312367     9A    -11.309132
      10A    -11.287004    11A    -11.250697    12A     -1.367560
      13A     -1.296033    14A     -1.242747    15A     -1.196488
      16A     -1.151636    17A     -1.031083    18A     -0.985237
      19A     -0.890952    20A     -0.873096    21A     -0.802992
      22A     -0.753842    23A     -0.725951    24A     -0.681809
      25A     -0.673946    26A     -0.666154    27A     -0.625311
      28A     -0.605957    29A     -0.595962    30A     -0.593095
      31A     -0.571606    32A     -0.536691    33A     -0.495471
      34A     -0.491802    35A     -0.450592    36A     -0.414038
      37A     -0.407976    38A     -0.367433    39A     -0.306782

  @DF-RHF Final Energy:  -503.72518114711806

   => Energetics <=

    Nuclear Repulsion Energy =            594.7190948352392752
    One-Electron Energy =               -1863.8713162048011327
    Two-Electron Energy =                 765.4270402224437930
    Total Energy =                       -503.7251811471180645
  Basis Set: (AUG-CC-PVTZ AUX)
    Blend: AUG-CC-PVTZ-RI
    Molecular point group: c1

    Geometry (in Angstrom), charge = 0, multiplicity = 1:

       Center              X                  Y                   Z               Mass
    ------------   -----------------  -----------------  -----------------  -----------------
         N           -1.822292044092    -0.164659483452    -0.020533693884    14.003074004430
         N           -0.303675044092    -1.848834483452    -0.004978693884    14.003074004430
         N           -0.300525044092     1.748450516548    -0.005937693884    14.003074004430
         N            2.020819955908     1.036263516548    -0.011128693884    14.003074004430
         N            2.687279955908    -1.197957483452     0.070627306116    14.003074004430
         C           -0.581968044092     0.434511516548     0.002005306116    12.000000000000
         C            0.331704955908    -0.625386483452     0.014408306116    12.000000000000
         C           -1.590280044092    -1.516757483452    -0.018855693884    12.000000000000
         C            1.693281955908    -0.264787483452     0.002224306116    12.000000000000
         C           -3.097460044092     0.531851516548     0.015203306116    12.000000000000
         C            1.023120955908     1.950205516548    -0.013668693884    12.000000000000
         H           -2.409558044092    -2.226581483452    -0.036805693884     1.007825032230
         H           -2.961826044092     1.503539516548    -0.460513693884     1.007825032230
         H           -3.840130044092    -0.049218483452    -0.533784693884     1.007825032230
         H           -3.430590044092     0.679068516548     1.045431306116     1.007825032230
         H            1.341891355908     2.969433416548    -0.025173293884     1.007825032230
         H            3.609440955908    -0.873540483452    -0.193180693884     1.007825032230
         H            2.441527955908    -2.141623483452    -0.201368693884     1.007825032230

  Basis Set: AUG-CC-PVTZ
    Blend: AUG-CC-PVTZ
  Basis Set: (AUG-CC-PVTZ AUX)
    Blend: AUG-CC-PVTZ-JKFIT
	 Reference Energy          =    -503.7251811471180645 [Eh]
	 Singles Energy            =      -0.0000000000000000 [Eh]
	 Same-Spin Energy          =      -0.5492663798966100 [Eh]
	 Opposite-Spin Energy      =      -1.6327600773681508 [Eh]
	 Correlation Energy        =      -2.1820264572647607 [Eh]
	 Total Energy              =    -505.9072076043828474 [Eh]

	 ================> DF-SCS-MP2 Energies <==================
	-----------------------------------------------------------
	 SCS Same-Spin Scale       =       0.3333333333333333 [-]
	 SCS Opposite-Spin Scale   =       1.2000000000000000 [-]
	 SCS Same-Spin Energy      =      -0.1830887932988700 [Eh]
	 SCS Opposite-Spin Energy  =      -1.9593120928417809 [Eh]
	 SCS Correlation Energy    =      -2.1424008861406509 [Eh]
	 SCS Total Energy          =    -505.8675820332587136 [Eh]
	-----------------------------------------------------------

  Dipole Moment: [D]
     X:    -2.6373      Y:    -1.1973      Z:    -0.7130     Total:     2.9828

*** Psi4 exiting successfully. Buy a developer a beer!
