                               Psi4 1.3.2 release

  ==> Input File <==

--------------------------------------------------------------------------
#psi4
#
memory 32 gb

molecule  {
0 1
  N       -1.7893040    -0.1617730    -0.0001110
  N       -0.2713240    -1.8496560    -0.0082220
  N       -0.2672930     1.7497910     0.0010540
  N        2.0076120     1.0468204    -0.0077932
  N        2.7268170    -1.1967150     0.0786200
  C       -0.5487760     0.4359060     0.0048010
  C        0.3548756    -0.5781017     0.0079455
  C       -1.5569310    -1.5157420    -0.0063070
  C        1.7257650    -0.2653140     0.0014880
  C       -3.0654680     0.5328540     0.0028660
  C        1.0578830     1.9506280    -0.0091420
  H       -2.3786350    -2.2235800    -0.0126570
  H       -3.1454970     1.1693440    -0.8801020
  H       -3.8626160    -0.2117770    -0.0066990
  H       -3.1511970     1.1523310     0.8973960
  H        1.3824760     2.9891980    -0.0128990
  H        3.6364610    -0.8630510    -0.2195510
  H        2.4794860    -2.1327440    -0.2212610
units angstrom
no_reorient  #important for SAPT in psi4, default
symmetry c1  #important for SAPT in psi4, default
}

set PROPERTIES_ORIGIN ["COM"]
properties('MP2/aug-cc-pvtz', properties = ['dipole'])
--------------------------------------------------------------------------

    Molecular point group: c1
  Charge       = 0
  Multiplicity = 1
  Basis Set: AUG-CC-PVTZ
    Blend: AUG-CC-PVTZ
  Basis Set: (AUG-CC-PVTZ AUX)
    Blend: AUG-CC-PVTZ-JKFIT

    Orbital Energies [Eh]
    ---------------------

    Doubly Occupied:

       1A    -15.628876     2A    -15.586601     3A    -15.566127
       4A    -15.555409     5A    -15.547115     6A    -11.338021
       7A    -11.322301     8A    -11.307806     9A    -11.305314
      10A    -11.286809    11A    -11.248039    12A     -1.366812
      13A     -1.301941    14A     -1.241374    15A     -1.190550
      16A     -1.155862    17A     -1.038086    18A     -0.982899
      19A     -0.895367    20A     -0.867832    21A     -0.807899
      22A     -0.756015    23A     -0.721150    24A     -0.681154
      25A     -0.675377    26A     -0.665659    27A     -0.626220
      28A     -0.611877    29A     -0.596305    30A     -0.591848
      31A     -0.571848    32A     -0.537579    33A     -0.495702
      34A     -0.489616    35A     -0.443437    36A     -0.411171
      37A     -0.406127    38A     -0.369794    39A     -0.313213

  @DF-RHF Final Energy:  -503.72340178664592

   => Energetics <=

    Nuclear Repulsion Energy =            595.7817018455175457
    One-Electron Energy =               -1865.9999419455702991
    Two-Electron Energy =                 766.4948383134068308
    Total Energy =                       -503.7234017866459226
  Basis Set: (AUG-CC-PVTZ AUX)
    Blend: AUG-CC-PVTZ-RI
    Molecular point group: c1

    Geometry (in Angstrom), charge = 0, multiplicity = 1:

       Center              X                  Y                   Z               Mass
    ------------   -----------------  -----------------  -----------------  -----------------
         N           -1.817664718286    -0.167400028528    -0.003132014752    14.003074004430
         N           -0.299684718286    -1.855283028528    -0.011243014752    14.003074004430
         N           -0.295653718286     1.744163971472    -0.001967014752    14.003074004430
         N            1.979251281714     1.041193371472    -0.010814214752    14.003074004430
         N            2.698456281714    -1.202342028528     0.075598985248    14.003074004430
         C           -0.577136718286     0.430278971472     0.001779985248    12.000000000000
         C            0.326514881714    -0.583728728528     0.004924485248    12.000000000000
         C           -1.585291718286    -1.521369028528    -0.009328014752    12.000000000000
         C            1.697404281714    -0.270941028528    -0.001533014752    12.000000000000
         C           -3.093828718286     0.527226971472    -0.000155014752    12.000000000000
         C            1.029522281714     1.945000971472    -0.012163014752    12.000000000000
         H           -2.406995718286    -2.229207028528    -0.015678014752     1.007825032230
         H           -3.173857718286     1.163716971472    -0.883123014752     1.007825032230
         H           -3.890976718286    -0.217404028528    -0.009720014752     1.007825032230
         H           -3.179557718286     1.146703971472     0.894374985248     1.007825032230
         H            1.354115281714     2.983570971472    -0.015920014752     1.007825032230
         H            3.608100281714    -0.868678028528    -0.222572014752     1.007825032230
         H            2.451125281714    -2.138371028528    -0.224282014752     1.007825032230

  Basis Set: AUG-CC-PVTZ
    Blend: AUG-CC-PVTZ
  Basis Set: (AUG-CC-PVTZ AUX)
    Blend: AUG-CC-PVTZ-JKFIT
	 Reference Energy          =    -503.7234017866459226 [Eh]
	 Singles Energy            =      -0.0000000000000000 [Eh]
	 Same-Spin Energy          =      -0.5483180909637630 [Eh]
	 Opposite-Spin Energy      =      -1.6316312637839623 [Eh]
	 Correlation Energy        =      -2.1799493547477251 [Eh]
	 Total Energy              =    -505.9033511413936708 [Eh]

	 ================> DF-SCS-MP2 Energies <==================
	-----------------------------------------------------------
	 SCS Same-Spin Scale       =       0.3333333333333333 [-]
	 SCS Opposite-Spin Scale   =       1.2000000000000000 [-]
	 SCS Same-Spin Energy      =      -0.1827726969879210 [Eh]
	 SCS Opposite-Spin Energy  =      -1.9579575165407546 [Eh]
	 SCS Correlation Energy    =      -2.1407302135286757 [Eh]
	 SCS Total Energy          =    -505.8641320001746067 [Eh]
	-----------------------------------------------------------

  Dipole Moment: [D]
     X:    -2.4509      Y:    -1.2033      Z:    -0.7892     Total:     2.8422

*** Psi4 exiting successfully. Buy a developer a beer!
