                               Psi4 1.3.2 release

  ==> Input File <==

--------------------------------------------------------------------------
#psi4
#
memory 32 gb

molecule  {
0 1
  N       -1.7893040    -0.1617730    -0.0001110
  N       -0.2606193    -1.8551777    -0.0081328
  N       -0.2672930     1.7497910     0.0010540
  N        2.0532340     1.0361840    -0.0078740
  N        2.7268170    -1.1967150     0.0786200
  C       -0.5394777     0.4438535     0.0049697
  C        0.3666280    -0.6257540     0.0082110
  C       -1.5569310    -1.5157420    -0.0063070
  C        1.7257650    -0.2653140     0.0014880
  C       -3.0654680     0.5328540     0.0028660
  C        1.0578830     1.9506280    -0.0091420
  H       -2.3786350    -2.2235800    -0.0126570
  H       -3.1454970     1.1693440    -0.8801020
  H       -3.8626160    -0.2117770    -0.0066990
  H       -3.1511970     1.1523310     0.8973960
  H        1.3824760     2.9891980    -0.0128990
  H        3.6364610    -0.8630510    -0.2195510
  H        2.4794860    -2.1327440    -0.2212610
units angstrom
no_reorient  #important for SAPT in psi4, default
symmetry c1  #important for SAPT in psi4, default
}

set PROPERTIES_ORIGIN ["COM"]
properties('MP2/aug-cc-pvtz', properties = ['dipole'])
--------------------------------------------------------------------------

    Molecular point group: c1
  Charge       = 0
  Multiplicity = 1
  Basis Set: AUG-CC-PVTZ
    Blend: AUG-CC-PVTZ
  Basis Set: (AUG-CC-PVTZ AUX)
    Blend: AUG-CC-PVTZ-JKFIT

    Orbital Energies [Eh]
    ---------------------

    Doubly Occupied:

       1A    -15.633356     2A    -15.580695     3A    -15.568294
       4A    -15.561273     5A    -15.553112     6A    -11.333895
       7A    -11.324709     8A    -11.313356     9A    -11.311966
      10A    -11.288496    11A    -11.252321    12A     -1.364699
      13A     -1.296669    14A     -1.243619    15A     -1.194572
      16A     -1.153424    17A     -1.030297    18A     -0.985369
      19A     -0.890151    20A     -0.872612    21A     -0.803009
      22A     -0.753458    23A     -0.723009    24A     -0.680668
      25A     -0.672684    26A     -0.665125    27A     -0.624358
      28A     -0.606108    29A     -0.596429    30A     -0.591404
      31A     -0.569575    32A     -0.535554    33A     -0.496632
      34A     -0.494096    35A     -0.451749    36A     -0.413790
      37A     -0.408962    38A     -0.369944    39A     -0.306133

  @DF-RHF Final Energy:  -503.72315539271347

   => Energetics <=

    Nuclear Repulsion Energy =            594.0916785048087831
    One-Electron Energy =               -1862.5985243301061018
    Two-Electron Energy =                 764.7836904325837395
    Total Energy =                       -503.7231553927134655
  Basis Set: (AUG-CC-PVTZ AUX)
    Blend: AUG-CC-PVTZ-RI
    Molecular point group: c1

    Geometry (in Angstrom), charge = 0, multiplicity = 1:

       Center              X                  Y                   Z               Mass
    ------------   -----------------  -----------------  -----------------  -----------------
         N           -1.824650391687    -0.162686001658    -0.003167756488    14.003074004430
         N           -0.295965691687    -1.856090701658    -0.011189556488    14.003074004430
         N           -0.302639391687     1.748877998342    -0.002002756488    14.003074004430
         N            2.017887608313     1.035270998342    -0.010930756488    14.003074004430
         N            2.691470608313    -1.197628001658     0.075563243512    14.003074004430
         C           -0.574824091687     0.442940498342     0.001912943512    12.000000000000
         C            0.331281608313    -0.626667001658     0.005154243512    12.000000000000
         C           -1.592277391687    -1.516655001658    -0.009363756488    12.000000000000
         C            1.690418608313    -0.266227001658    -0.001568756488    12.000000000000
         C           -3.100814391687     0.531940998342    -0.000190756488    12.000000000000
         C            1.022536608313     1.949714998342    -0.012198756488    12.000000000000
         H           -2.413981391687    -2.224493001658    -0.015713756488     1.007825032230
         H           -3.180843391687     1.168430998342    -0.883158756488     1.007825032230
         H           -3.897962391687    -0.212690001658    -0.009755756488     1.007825032230
         H           -3.186543391687     1.151417998342     0.894339243512     1.007825032230
         H            1.347129608313     2.988284998342    -0.015955756488     1.007825032230
         H            3.601114608313    -0.863964001658    -0.222607756488     1.007825032230
         H            2.444139608313    -2.133657001658    -0.224317756488     1.007825032230

  Basis Set: AUG-CC-PVTZ
    Blend: AUG-CC-PVTZ
  Basis Set: (AUG-CC-PVTZ AUX)
    Blend: AUG-CC-PVTZ-JKFIT
	 Reference Energy          =    -503.7231553927134655 [Eh]
	 Singles Energy            =      -0.0000000000000000 [Eh]
	 Same-Spin Energy          =      -0.5496701292601101 [Eh]
	 Opposite-Spin Energy      =      -1.6338707029726747 [Eh]
	 Correlation Energy        =      -2.1835408322327847 [Eh]
	 Total Energy              =    -505.9066962249462449 [Eh]

	 ================> DF-SCS-MP2 Energies <==================
	-----------------------------------------------------------
	 SCS Same-Spin Scale       =       0.3333333333333333 [-]
	 SCS Opposite-Spin Scale   =       1.2000000000000000 [-]
	 SCS Same-Spin Energy      =      -0.1832233764200367 [Eh]
	 SCS Opposite-Spin Energy  =      -1.9606448435672095 [Eh]
	 SCS Correlation Energy    =      -2.1438682199872461 [Eh]
	 SCS Total Energy          =    -505.8670236127007342 [Eh]
	-----------------------------------------------------------

  Dipole Moment: [D]
     X:    -2.7223      Y:    -1.1109      Z:    -0.7887     Total:     3.0442

*** Psi4 exiting successfully. Buy a developer a beer!
