                               Psi4 1.3.2 release

  ==> Input File <==

--------------------------------------------------------------------------
#psi4
#
memory 32 gb

molecule  {
0 1
  N       -1.7893040    -0.1617730    -0.0001110
  N       -0.2713240    -1.8496560    -0.0082220
  N       -0.2672930     1.7497910     0.0010540
  N        2.0532340     1.0361840    -0.0078740
  N        2.7268170    -1.1967150     0.0786200
  C       -0.5487760     0.4359060     0.0048010
  C        0.3666280    -0.6257540     0.0082110
  C       -1.5333361    -1.5114804    -0.0062833
  C        1.7257650    -0.2653140     0.0014880
  C       -3.0531506     0.5550201     0.0029702
  C        1.0578830     1.9506280    -0.0091420
  H       -2.3786350    -2.2235800    -0.0126570
  H       -3.1454970     1.1693440    -0.8801020
  H       -3.8626160    -0.2117770    -0.0066990
  H       -3.1511970     1.1523310     0.8973960
  H        1.3824760     2.9891980    -0.0128990
  H        3.6364610    -0.8630510    -0.2195510
  H        2.4794860    -2.1327440    -0.2212610
units angstrom
no_reorient  #important for SAPT in psi4, default
symmetry c1  #important for SAPT in psi4, default
}

set PROPERTIES_ORIGIN ["COM"]
properties('MP2/aug-cc-pvtz', properties = ['dipole'])
--------------------------------------------------------------------------

    Molecular point group: c1
  Charge       = 0
  Multiplicity = 1
  Basis Set: AUG-CC-PVTZ
    Blend: AUG-CC-PVTZ
  Basis Set: (AUG-CC-PVTZ AUX)
    Blend: AUG-CC-PVTZ-JKFIT

    Orbital Energies [Eh]
    ---------------------

    Doubly Occupied:

       1A    -15.631392     2A    -15.580897     3A    -15.566491
       4A    -15.560481     5A    -15.552119     6A    -11.334190
       7A    -11.322315     8A    -11.312760     9A    -11.311673
      10A    -11.289110    11A    -11.251643    12A     -1.370481
      13A     -1.296302    14A     -1.243607    15A     -1.201192
      16A     -1.151634    17A     -1.031884    18A     -0.986545
      19A     -0.888299    20A     -0.873366    21A     -0.801099
      22A     -0.753376    23A     -0.723821    24A     -0.680114
      25A     -0.673018    26A     -0.669320    27A     -0.624878
      28A     -0.605159    29A     -0.597826    30A     -0.590112
      31A     -0.565049    32A     -0.539787    33A     -0.496340
      34A     -0.493957    35A     -0.451117    36A     -0.416153
      37A     -0.409043    38A     -0.368275    39A     -0.309613

  @DF-RHF Final Energy:  -503.72477535714631

   => Energetics <=

    Nuclear Repulsion Energy =            594.8909318010047400
    One-Electron Energy =               -1864.1825375661628641
    Two-Electron Energy =                 765.5668304080119242
    Total Energy =                       -503.7247753571463136
  Basis Set: (AUG-CC-PVTZ AUX)
    Blend: AUG-CC-PVTZ-RI
    Molecular point group: c1

    Geometry (in Angstrom), charge = 0, multiplicity = 1:

       Center              X                  Y                   Z               Mass
    ------------   -----------------  -----------------  -----------------  -----------------
         N           -1.825787234301    -0.164692326756    -0.003156093024    14.003074004430
         N           -0.307807234301    -1.852575326756    -0.011267093024    14.003074004430
         N           -0.303776234301     1.746871673244    -0.001991093024    14.003074004430
         N            2.016750765699     1.033264673244    -0.010919093024    14.003074004430
         N            2.690333765699    -1.199634326756     0.075574906976    14.003074004430
         C           -0.585259234301     0.432986673244     0.001755906976    12.000000000000
         C            0.330144765699    -0.628673326756     0.005165906976    12.000000000000
         C           -1.569819334301    -1.514399726756    -0.009328393024    12.000000000000
         C            1.689281765699    -0.268233326756    -0.001557093024    12.000000000000
         C           -3.089633834301     0.552100773244    -0.000074893024    12.000000000000
         C            1.021399765699     1.947708673244    -0.012187093024    12.000000000000
         H           -2.415118234301    -2.226499326756    -0.015702093024     1.007825032230
         H           -3.181980234301     1.166424673244    -0.883147093024     1.007825032230
         H           -3.899099234301    -0.214696326756    -0.009744093024     1.007825032230
         H           -3.187680234301     1.149411673244     0.894350906976     1.007825032230
         H            1.345992765699     2.986278673244    -0.015944093024     1.007825032230
         H            3.599977765699    -0.865970326756    -0.222596093024     1.007825032230
         H            2.443002765699    -2.135663326756    -0.224306093024     1.007825032230

  Basis Set: AUG-CC-PVTZ
    Blend: AUG-CC-PVTZ
  Basis Set: (AUG-CC-PVTZ AUX)
    Blend: AUG-CC-PVTZ-JKFIT
	 Reference Energy          =    -503.7247753571463136 [Eh]
	 Singles Energy            =      -0.0000000000000000 [Eh]
	 Same-Spin Energy          =      -0.5487828819697729 [Eh]
	 Opposite-Spin Energy      =      -1.6322224170885753 [Eh]
	 Correlation Energy        =      -2.1810052990583482 [Eh]
	 Total Energy              =    -505.9057806562046835 [Eh]

	 ================> DF-SCS-MP2 Energies <==================
	-----------------------------------------------------------
	 SCS Same-Spin Scale       =       0.3333333333333333 [-]
	 SCS Opposite-Spin Scale   =       1.2000000000000000 [-]
	 SCS Same-Spin Energy      =      -0.1829276273232576 [Eh]
	 SCS Opposite-Spin Energy  =      -1.9586669005062902 [Eh]
	 SCS Correlation Energy    =      -2.1415945278295476 [Eh]
	 SCS Total Energy          =    -505.8663698849758816 [Eh]
	-----------------------------------------------------------

  Dipole Moment: [D]
     X:    -2.6998      Y:    -1.1669      Z:    -0.7894     Total:     3.0453

*** Psi4 exiting successfully. Buy a developer a beer!
