                               Psi4 1.3.2 release

  ==> Input File <==

--------------------------------------------------------------------------
#psi4
#
memory 32 gb

molecule  {
0 1
  N       -1.7893040    -0.1617730    -0.0001110
  N       -0.2837607    -1.8943181    -0.0085972
  N       -0.2672930     1.7497910     0.0010540
  N        2.0532340     1.0361840    -0.0078740
  N        2.7268170    -1.1967150     0.0786200
  C       -0.5487760     0.4359060     0.0048010
  C        0.3666280    -0.6257540     0.0082110
  C       -1.5569310    -1.5157420    -0.0063070
  C        1.7257650    -0.2653140     0.0014880
  C       -3.0654680     0.5328540     0.0028660
  C        1.0578830     1.9506280    -0.0091420
  H       -2.3534303    -2.2518250    -0.0128729
  H       -3.1454970     1.1693440    -0.8801020
  H       -3.8626160    -0.2117770    -0.0066990
  H       -3.1511970     1.1523310     0.8973960
  H        1.3824760     2.9891980    -0.0128990
  H        3.6364610    -0.8630510    -0.2195510
  H        2.4794860    -2.1327440    -0.2212610
units angstrom
no_reorient  #important for SAPT in psi4, default
symmetry c1  #important for SAPT in psi4, default
}

set PROPERTIES_ORIGIN ["COM"]
properties('MP2/aug-cc-pvtz', properties = ['dipole'])
--------------------------------------------------------------------------

    Molecular point group: c1
  Charge       = 0
  Multiplicity = 1
  Basis Set: AUG-CC-PVTZ
    Blend: AUG-CC-PVTZ
  Basis Set: (AUG-CC-PVTZ AUX)
    Blend: AUG-CC-PVTZ-JKFIT

    Orbital Energies [Eh]
    ---------------------

    Doubly Occupied:

       1A    -15.633707     2A    -15.580806     3A    -15.571780
       4A    -15.561892     5A    -15.552797     6A    -11.334771
       7A    -11.323694     8A    -11.316202     9A    -11.312884
      10A    -11.289161    11A    -11.254421    12A     -1.364775
      13A     -1.296496    14A     -1.241397    15A     -1.192230
      16A     -1.152300    17A     -1.033334    18A     -0.984507
      19A     -0.888467    20A     -0.873649    21A     -0.801749
      22A     -0.753384    23A     -0.722179    24A     -0.681923
      25A     -0.670821    26A     -0.666186    27A     -0.620980
      28A     -0.606008    29A     -0.594000    30A     -0.588808
      31A     -0.571843    32A     -0.536414    33A     -0.495993
      34A     -0.495311    35A     -0.449965    36A     -0.413995
      37A     -0.409236    38A     -0.367970    39A     -0.311916

  @DF-RHF Final Energy:  -503.72205617932593

   => Energetics <=

    Nuclear Repulsion Energy =            593.0361943624384367
    One-Electron Energy =               -1860.4806003654348387
    Two-Electron Energy =                 763.7223498236704700
    Total Energy =                       -503.7220561793259321
  Basis Set: (AUG-CC-PVTZ AUX)
    Blend: AUG-CC-PVTZ-RI
    Molecular point group: c1

    Geometry (in Angstrom), charge = 0, multiplicity = 1:

       Center              X                  Y                   Z               Mass
    ------------   -----------------  -----------------  -----------------  -----------------
         N           -1.821898476415    -0.158178580440    -0.003109092716    14.003074004430
         N           -0.316355176415    -1.890723680440    -0.011595292716    14.003074004430
         N           -0.299887476415     1.753385419560    -0.001944092716    14.003074004430
         N            2.020639523585     1.039778419560    -0.010872092716    14.003074004430
         N            2.694222523585    -1.193120580440     0.075621907284    14.003074004430
         C           -0.581370476415     0.439500419560     0.001802907284    12.000000000000
         C            0.334033523585    -0.622159580440     0.005212907284    12.000000000000
         C           -1.589525476415    -1.512147580440    -0.009305092716    12.000000000000
         C            1.693170523585    -0.261719580440    -0.001510092716    12.000000000000
         C           -3.098062476415     0.536448419560    -0.000132092716    12.000000000000
         C            1.025288523585     1.954222419560    -0.012140092716    12.000000000000
         H           -2.386024776415    -2.248230580440    -0.015870992716     1.007825032230
         H           -3.178091476415     1.172938419560    -0.883100092716     1.007825032230
         H           -3.895210476415    -0.208182580440    -0.009697092716     1.007825032230
         H           -3.183791476415     1.155925419560     0.894397907284     1.007825032230
         H            1.349881523585     2.992792419560    -0.015897092716     1.007825032230
         H            3.603866523585    -0.859456580440    -0.222549092716     1.007825032230
         H            2.446891523585    -2.129149580440    -0.224259092716     1.007825032230

  Basis Set: AUG-CC-PVTZ
    Blend: AUG-CC-PVTZ
  Basis Set: (AUG-CC-PVTZ AUX)
    Blend: AUG-CC-PVTZ-JKFIT
	 Reference Energy          =    -503.7220561793259321 [Eh]
	 Singles Energy            =      -0.0000000000000000 [Eh]
	 Same-Spin Energy          =      -0.5488020474133155 [Eh]
	 Opposite-Spin Energy      =      -1.6335096509689584 [Eh]
	 Correlation Energy        =      -2.1823116983822741 [Eh]
	 Total Energy              =    -505.9043678777081823 [Eh]

	 ================> DF-SCS-MP2 Energies <==================
	-----------------------------------------------------------
	 SCS Same-Spin Scale       =       0.3333333333333333 [-]
	 SCS Opposite-Spin Scale   =       1.2000000000000000 [-]
	 SCS Same-Spin Energy      =      -0.1829340158044385 [Eh]
	 SCS Opposite-Spin Energy  =      -1.9602115811627501 [Eh]
	 SCS Correlation Energy    =      -2.1431455969671886 [Eh]
	 SCS Total Energy          =    -505.8652017762931337 [Eh]
	-----------------------------------------------------------

  Dipole Moment: [D]
     X:    -2.6841      Y:    -1.0788      Z:    -0.7891     Total:     2.9984

*** Psi4 exiting successfully. Buy a developer a beer!
