                               Psi4 1.3.2 release

  ==> Input File <==

--------------------------------------------------------------------------
#psi4
#
memory 32 gb

molecule  {
0 1
  N       -1.7893040    -0.1617730    -0.0001110
  N       -0.2713240    -1.8496560    -0.0082220
  N       -0.2672930     1.7497910     0.0010540
  N        2.0532340     1.0361840    -0.0078740
  N        2.7268170    -1.1967150     0.0786200
  C       -0.5372999     0.4334995     0.0047179
  C        0.3666280    -0.6257540     0.0082110
  C       -1.5569310    -1.5157420    -0.0063070
  C        1.7257650    -0.2653140     0.0014880
  C       -3.0654680     0.5328540     0.0028660
  C        1.0595852     1.9390558    -0.0091404
  H       -2.3786350    -2.2235800    -0.0126570
  H       -3.1454970     1.1693440    -0.8801020
  H       -3.8626160    -0.2117770    -0.0066990
  H       -3.1511970     1.1523310     0.8973960
  H        1.3824760     2.9891980    -0.0128990
  H        3.6364610    -0.8630510    -0.2195510
  H        2.4794860    -2.1327440    -0.2212610
units angstrom
no_reorient  #important for SAPT in psi4, default
symmetry c1  #important for SAPT in psi4, default
}

set PROPERTIES_ORIGIN ["COM"]
properties('MP2/aug-cc-pvtz', properties = ['dipole'])
--------------------------------------------------------------------------

    Molecular point group: c1
  Charge       = 0
  Multiplicity = 1
  Basis Set: AUG-CC-PVTZ
    Blend: AUG-CC-PVTZ
  Basis Set: (AUG-CC-PVTZ AUX)
    Blend: AUG-CC-PVTZ-JKFIT

    Orbital Energies [Eh]
    ---------------------

    Doubly Occupied:

       1A    -15.631888     2A    -15.581907     3A    -15.566593
       4A    -15.560777     5A    -15.552781     6A    -11.335501
       7A    -11.322698     8A    -11.312646     9A    -11.311267
      10A    -11.288185    11A    -11.251530    12A     -1.366533
      13A     -1.298276    14A     -1.242964    15A     -1.196035
      16A     -1.154419    17A     -1.032437    18A     -0.985096
      19A     -0.890856    20A     -0.871009    21A     -0.803807
      22A     -0.754177    23A     -0.722607    24A     -0.680478
      25A     -0.672932    26A     -0.665362    27A     -0.624761
      28A     -0.607484    29A     -0.596392    30A     -0.590815
      31A     -0.569498    32A     -0.537077    33A     -0.496156
      34A     -0.492351    35A     -0.450774    36A     -0.414633
      37A     -0.409997    38A     -0.370238    39A     -0.308564

  @DF-RHF Final Energy:  -503.72491172782622

   => Energetics <=

    Nuclear Repulsion Energy =            594.6282860094497664
    One-Electron Energy =               -1863.6633989488072984
    Two-Electron Energy =                 765.3102012115313073
    Total Energy =                       -503.7249117278262247
  Basis Set: (AUG-CC-PVTZ AUX)
    Blend: AUG-CC-PVTZ-RI
    Molecular point group: c1

    Geometry (in Angstrom), charge = 0, multiplicity = 1:

       Center              X                  Y                   Z               Mass
    ------------   -----------------  -----------------  -----------------  -----------------
         N           -1.823957169673    -0.161439651318    -0.003139236530    14.003074004430
         N           -0.305977169673    -1.849322651318    -0.011250236530    14.003074004430
         N           -0.301946169673     1.750124348682    -0.001974236530    14.003074004430
         N            2.018580830327     1.036517348682    -0.010902236530    14.003074004430
         N            2.692163830327    -1.196381651318     0.075591763470    14.003074004430
         C           -0.571953069673     0.433832848682     0.001689663470    12.000000000000
         C            0.331974830327    -0.625420651318     0.005182763470    12.000000000000
         C           -1.591584169673    -1.515408651318    -0.009335236530    12.000000000000
         C            1.691111830327    -0.264980651318    -0.001540236530    12.000000000000
         C           -3.100121169673     0.533187348682    -0.000162236530    12.000000000000
         C            1.024932030327     1.939389148682    -0.012168636530    12.000000000000
         H           -2.413288169673    -2.223246651318    -0.015685236530     1.007825032230
         H           -3.180150169673     1.169677348682    -0.883130236530     1.007825032230
         H           -3.897269169673    -0.211443651318    -0.009727236530     1.007825032230
         H           -3.185850169673     1.152664348682     0.894367763470     1.007825032230
         H            1.347822830327     2.989531348682    -0.015927236530     1.007825032230
         H            3.601807830327    -0.862717651318    -0.222579236530     1.007825032230
         H            2.444832830327    -2.132410651318    -0.224289236530     1.007825032230

  Basis Set: AUG-CC-PVTZ
    Blend: AUG-CC-PVTZ
  Basis Set: (AUG-CC-PVTZ AUX)
    Blend: AUG-CC-PVTZ-JKFIT
	 Reference Energy          =    -503.7249117278262247 [Eh]
	 Singles Energy            =      -0.0000000000000000 [Eh]
	 Same-Spin Energy          =      -0.5490994043355771 [Eh]
	 Opposite-Spin Energy      =      -1.6329060642803639 [Eh]
	 Correlation Energy        =      -2.1820054686159409 [Eh]
	 Total Energy              =    -505.9069171964421798 [Eh]

	 ================> DF-SCS-MP2 Energies <==================
	-----------------------------------------------------------
	 SCS Same-Spin Scale       =       0.3333333333333333 [-]
	 SCS Opposite-Spin Scale   =       1.2000000000000000 [-]
	 SCS Same-Spin Energy      =      -0.1830331347785257 [Eh]
	 SCS Opposite-Spin Energy  =      -1.9594872771364367 [Eh]
	 SCS Correlation Energy    =      -2.1425204119149623 [Eh]
	 SCS Total Energy          =    -505.8674321397411973 [Eh]
	-----------------------------------------------------------

  Dipole Moment: [D]
     X:    -2.6719      Y:    -1.1782      Z:    -0.7885     Total:     3.0247

*** Psi4 exiting successfully. Buy a developer a beer!
