                               Psi4 1.3.2 release

  ==> Input File <==

--------------------------------------------------------------------------
#psi4
#
memory 32 gb

molecule  {
0 1
  N       -1.7893040    -0.1617730    -0.0001110
  N       -0.2713240    -1.8496560    -0.0082220
  N       -0.2672930     1.7497910     0.0010540
  N        2.0532340     1.0361840    -0.0078740
  N        2.7268170    -1.1967150     0.0786200
  C       -0.5487760     0.4359060     0.0048010
  C        0.3666280    -0.6257540     0.0082110
  C       -1.5569310    -1.5157420    -0.0063070
  C        1.7257650    -0.2653140     0.0014880
  C       -3.0654680     0.5328540     0.0028660
  C        1.0578830     1.9506280    -0.0091420
  H       -2.3786350    -2.2235800    -0.0126570
  H       -3.1454970     1.1693440    -0.8801020
  H       -3.8690662    -0.2048406     0.0098168
  H       -3.1665055     1.1422977     0.9026743
  H        1.3824760     2.9891980    -0.0128990
  H        3.6364610    -0.8630510    -0.2195510
  H        2.4794860    -2.1327440    -0.2212610
units angstrom
no_reorient  #important for SAPT in psi4, default
symmetry c1  #important for SAPT in psi4, default
}

set PROPERTIES_ORIGIN ["COM"]
properties('MP2/aug-cc-pvtz', properties = ['dipole'])
--------------------------------------------------------------------------

    Molecular point group: c1
  Charge       = 0
  Multiplicity = 1
  Basis Set: AUG-CC-PVTZ
    Blend: AUG-CC-PVTZ
  Basis Set: (AUG-CC-PVTZ AUX)
    Blend: AUG-CC-PVTZ-JKFIT

    Orbital Energies [Eh]
    ---------------------

    Doubly Occupied:

       1A    -15.633317     2A    -15.581012     3A    -15.567408
       4A    -15.560677     5A    -15.552376     6A    -11.334535
       7A    -11.322568     8A    -11.313124     9A    -11.311567
      10A    -11.288663    11A    -11.251918    12A     -1.367822
      13A     -1.296177    14A     -1.242263    15A     -1.196811
      16A     -1.151890    17A     -1.031390    18A     -0.986062
      19A     -0.890721    20A     -0.872070    21A     -0.803044
      22A     -0.753705    23A     -0.724091    24A     -0.681045
      25A     -0.673266    26A     -0.666455    27A     -0.624619
      28A     -0.605888    29A     -0.597300    30A     -0.590735
      31A     -0.571180    32A     -0.537029    33A     -0.495579
      34A     -0.492618    35A     -0.450530    36A     -0.414387
      37A     -0.408554    38A     -0.368458    39A     -0.307801

  @DF-RHF Final Energy:  -503.72480303992450

   => Energetics <=

    Nuclear Repulsion Energy =            594.2840234025799191
    One-Electron Energy =               -1862.9803415646176745
    Two-Electron Energy =                 764.9715151221131464
    Total Energy =                       -503.7248030399244954
  Basis Set: (AUG-CC-PVTZ AUX)
    Blend: AUG-CC-PVTZ-RI
    Molecular point group: c1

    Geometry (in Angstrom), charge = 0, multiplicity = 1:

       Center              X                  Y                   Z               Mass
    ------------   -----------------  -----------------  -----------------  -----------------
         N           -1.822749224499    -0.162543985565    -0.003293141523    14.003074004430
         N           -0.304769224499    -1.850426985565    -0.011404141523    14.003074004430
         N           -0.300738224499     1.749020014435    -0.002128141523    14.003074004430
         N            2.019788775501     1.035413014435    -0.011056141523    14.003074004430
         N            2.693371775501    -1.197485985565     0.075437858477    14.003074004430
         C           -0.582221224499     0.435135014435     0.001618858477    12.000000000000
         C            0.333182775501    -0.626524985565     0.005028858477    12.000000000000
         C           -1.590376224499    -1.516512985565    -0.009489141523    12.000000000000
         C            1.692319775501    -0.266084985565    -0.001694141523    12.000000000000
         C           -3.098913224499     0.532083014435    -0.000316141523    12.000000000000
         C            1.024437775501     1.949857014435    -0.012324141523    12.000000000000
         H           -2.412080224499    -2.224350985565    -0.015839141523     1.007825032230
         H           -3.178942224499     1.168573014435    -0.883284141523     1.007825032230
         H           -3.902511424499    -0.205611585565     0.006634658477     1.007825032230
         H           -3.199950724499     1.141526714435     0.899492158477     1.007825032230
         H            1.349030775501     2.988427014435    -0.016081141523     1.007825032230
         H            3.603015775501    -0.863821985565    -0.222733141523     1.007825032230
         H            2.446040775501    -2.133514985565    -0.224443141523     1.007825032230

  Basis Set: AUG-CC-PVTZ
    Blend: AUG-CC-PVTZ
  Basis Set: (AUG-CC-PVTZ AUX)
    Blend: AUG-CC-PVTZ-JKFIT
	 Reference Energy          =    -503.7248030399244954 [Eh]
	 Singles Energy            =      -0.0000000000000000 [Eh]
	 Same-Spin Energy          =      -0.5492544744478660 [Eh]
	 Opposite-Spin Energy      =      -1.6330953336422380 [Eh]
	 Correlation Energy        =      -2.1823498080901040 [Eh]
	 Total Energy              =    -505.9071528480146185 [Eh]

	 ================> DF-SCS-MP2 Energies <==================
	-----------------------------------------------------------
	 SCS Same-Spin Scale       =       0.3333333333333333 [-]
	 SCS Opposite-Spin Scale   =       1.2000000000000000 [-]
	 SCS Same-Spin Energy      =      -0.1830848248159553 [Eh]
	 SCS Opposite-Spin Energy  =      -1.9597144003706854 [Eh]
	 SCS Correlation Energy    =      -2.1427992251866410 [Eh]
	 SCS Total Energy          =    -505.8676022651111452 [Eh]
	-----------------------------------------------------------

  Dipole Moment: [D]
     X:    -2.7394      Y:    -1.1622      Z:    -0.7778     Total:     3.0758

*** Psi4 exiting successfully. Buy a developer a beer!
