                               Psi4 1.3.2 release

  ==> Input File <==

--------------------------------------------------------------------------
#psi4
#
memory 32 gb

molecule  {
0 1
  N       -1.7893040    -0.1617730    -0.0001110
  N       -0.2713240    -1.8496560    -0.0082220
  N       -0.2672930     1.7497910     0.0010540
  N        2.0532340     1.0361840    -0.0078740
  N        2.7268170    -1.1967150     0.0786200
  C       -0.5487760     0.4359060     0.0048010
  C        0.3666280    -0.6257540     0.0082110
  C       -1.5569310    -1.5157420    -0.0063070
  C        1.7257650    -0.2653140     0.0014880
  C       -3.0654680     0.5328540     0.0028660
  C        1.0578830     1.9506280    -0.0091420
  H       -2.3786350    -2.2235800    -0.0126570
  H       -3.1454970     1.1693440    -0.8801020
  H       -3.8626160    -0.2117770    -0.0066990
  H       -3.1511970     1.1523310     0.8973960
  H        1.4421373     3.1800908    -0.0135895
  H        3.6364610    -0.8630510    -0.2195510
  H        2.4794860    -2.1327440    -0.2212610
units angstrom
no_reorient  #important for SAPT in psi4, default
symmetry c1  #important for SAPT in psi4, default
}

set PROPERTIES_ORIGIN ["COM"]
properties('MP2/aug-cc-pvtz', properties = ['dipole'])
--------------------------------------------------------------------------

    Molecular point group: c1
  Charge       = 0
  Multiplicity = 1
  Basis Set: AUG-CC-PVTZ
    Blend: AUG-CC-PVTZ
  Basis Set: (AUG-CC-PVTZ AUX)
    Blend: AUG-CC-PVTZ-JKFIT

    Orbital Energies [Eh]
    ---------------------

    Doubly Occupied:

       1A    -15.634075     2A    -15.582096     3A    -15.568133
       4A    -15.563133     5A    -15.554855     6A    -11.336492
       7A    -11.332554     8A    -11.323282     9A    -11.314837
      10A    -11.289276    11A    -11.252799    12A     -1.368802
      13A     -1.297306    14A     -1.243290    15A     -1.197659
      16A     -1.153656    17A     -1.029859    18A     -0.986706
      19A     -0.889346    20A     -0.863597    21A     -0.802523
      22A     -0.754409    23A     -0.716200    24A     -0.680225
      25A     -0.670750    26A     -0.666989    27A     -0.622652
      28A     -0.606916    29A     -0.595254    30A     -0.582692
      31A     -0.562155    32A     -0.537780    33A     -0.496972
      34A     -0.484848    35A     -0.446162    36A     -0.415305
      37A     -0.409943    38A     -0.369795    39A     -0.308796

  @DF-RHF Final Energy:  -503.70224703934150

   => Energetics <=

    Nuclear Repulsion Energy =            593.3160282984715650
    One-Electron Energy =               -1861.0123088688612825
    Two-Electron Energy =                 763.9940335310482169
    Total Energy =                       -503.7022470393415006
  Basis Set: (AUG-CC-PVTZ AUX)
    Blend: AUG-CC-PVTZ-RI
    Molecular point group: c1

    Geometry (in Angstrom), charge = 0, multiplicity = 1:

       Center              X                  Y                   Z               Mass
    ------------   -----------------  -----------------  -----------------  -----------------
         N           -1.823299684244    -0.163855500191    -0.003141128907    14.003074004430
         N           -0.305319684244    -1.851738500191    -0.011252128907    14.003074004430
         N           -0.301288684244     1.747708499809    -0.001976128907    14.003074004430
         N            2.019238315756     1.034101499809    -0.010904128907    14.003074004430
         N            2.692821315756    -1.198797500191     0.075589871093    14.003074004430
         C           -0.582771684244     0.433823499809     0.001770871093    12.000000000000
         C            0.332632315756    -0.627836500191     0.005180871093    12.000000000000
         C           -1.590926684244    -1.517824500191    -0.009337128907    12.000000000000
         C            1.691769315756    -0.267396500191    -0.001542128907    12.000000000000
         C           -3.099463684244     0.530771499809    -0.000164128907    12.000000000000
         C            1.023887315756     1.948545499809    -0.012172128907    12.000000000000
         H           -2.412630684244    -2.225662500191    -0.015687128907     1.007825032230
         H           -3.179492684244     1.167261499809    -0.883132128907     1.007825032230
         H           -3.896611684244    -0.213859500191    -0.009729128907     1.007825032230
         H           -3.185192684244     1.150248499809     0.894365871093     1.007825032230
         H            1.408141615756     3.178008299809    -0.016619628907     1.007825032230
         H            3.602465315756    -0.865133500191    -0.222581128907     1.007825032230
         H            2.445490315756    -2.134826500191    -0.224291128907     1.007825032230

  Basis Set: AUG-CC-PVTZ
    Blend: AUG-CC-PVTZ
  Basis Set: (AUG-CC-PVTZ AUX)
    Blend: AUG-CC-PVTZ-JKFIT
	 Reference Energy          =    -503.7022470393415006 [Eh]
	 Singles Energy            =      -0.0000000000000000 [Eh]
	 Same-Spin Energy          =      -0.5499628632138633 [Eh]
	 Opposite-Spin Energy      =      -1.6354165094066326 [Eh]
	 Correlation Energy        =      -2.1853793726204960 [Eh]
	 Total Energy              =    -505.8876264119620032 [Eh]

	 ================> DF-SCS-MP2 Energies <==================
	-----------------------------------------------------------
	 SCS Same-Spin Scale       =       0.3333333333333333 [-]
	 SCS Opposite-Spin Scale   =       1.2000000000000000 [-]
	 SCS Same-Spin Energy      =      -0.1833209544046211 [Eh]
	 SCS Opposite-Spin Energy  =      -1.9624998112879590 [Eh]
	 SCS Correlation Energy    =      -2.1458207656925801 [Eh]
	 SCS Total Energy          =    -505.8480678050340771 [Eh]
	-----------------------------------------------------------

  Dipole Moment: [D]
     X:    -2.7653      Y:    -1.2788      Z:    -0.7877     Total:     3.1468

*** Psi4 exiting successfully. Buy a developer a beer!
