                               Psi4 1.4a3.dev225

  ==> Input File <==

--------------------------------------------------------------------------
#psi4
#
memory 32 gb

molecule  {
0 1
  N       -1.7889380    -0.1640290    -0.0179520
  N       -0.2703210    -1.8482040    -0.0023970
  N       -0.2671710     1.7490810    -0.0033560
  N        2.0541740     1.0368940    -0.0085470
  N        2.7206340    -1.1973270     0.0732090
  C       -0.5486140     0.4351420     0.0045870
  C        0.3420169    -0.6691245     0.0162869
  C       -1.5569260    -1.5161270    -0.0162740
  C        1.7266360    -0.2641570     0.0048060
  C       -3.0641060     0.5324820     0.0177850
  C        1.0564750     1.9508360    -0.0110870
  H       -2.3762040    -2.2259510    -0.0342240
  H       -2.9284720     1.5041700    -0.4579320
  H       -3.8067760    -0.0485880    -0.5312030
  H       -3.3972360     0.6796990     1.0480130
  H        1.3812150     2.9891510    -0.0228070
  H        3.6427950    -0.8729100    -0.1905990
  H        2.4748820    -2.1409930    -0.1987870
units angstrom
no_reorient  #important for SAPT in psi4, default
symmetry c1  #important for SAPT in psi4, default
}

set PROPERTIES_ORIGIN ["COM"]
properties('MP2/aug-cc-pvtz', properties = ['dipole'])
--------------------------------------------------------------------------

    Molecular point group: c1
  Charge       = 0
  Multiplicity = 1
  Basis Set: AUG-CC-PVTZ
    Blend: AUG-CC-PVTZ
  Basis Set: (AUG-CC-PVTZ AUX)
    Blend: AUG-CC-PVTZ-JKFIT

    Orbital Energies [Eh]
    ---------------------

    Doubly Occupied:

       1A    -15.633632     2A    -15.581633     3A    -15.566119
       4A    -15.559844     5A    -15.552070     6A    -11.337884
       7A    -11.319133     8A    -11.311235     9A    -11.310426
      10A    -11.286787    11A    -11.253594    12A     -1.371136
      13A     -1.294690    14A     -1.245118    15A     -1.205058
      16A     -1.151542    17A     -1.024871    18A     -0.986739
      19A     -0.889742    20A     -0.869490    21A     -0.801359
      22A     -0.753230    23A     -0.730455    24A     -0.680901
      25A     -0.674894    26A     -0.666316    27A     -0.626663
      28A     -0.599706    29A     -0.594997    30A     -0.589613
      31A     -0.570488    32A     -0.537963    33A     -0.496689
      34A     -0.492087    35A     -0.456277    36A     -0.417460
      37A     -0.405874    38A     -0.368439    39A     -0.298738

  @DF-RHF Final Energy:  -503.71999488557628

   => Energetics <=

    Nuclear Repulsion Energy =            594.4549532691363538
    One-Electron Energy =               -1863.3241135411947198
    Two-Electron Energy =                 765.1491653864819682
    Total Energy =                       -503.7199948855762841
  Basis Set: (AUG-CC-PVTZ AUX)
    Blend: AUG-CC-PVTZ-RI
    Molecular point group: c1

    Geometry (in Angstrom), charge = 0, multiplicity = 1:

       Center              X                  Y                   Z               Mass
    ------------   -----------------  -----------------  -----------------  -----------------
         N           -1.820477536651    -0.161216905852    -0.020475638762    14.003074004430
         N           -0.301860536651    -1.845391905852    -0.004920638762    14.003074004430
         N           -0.298710536651     1.751893094148    -0.005879638762    14.003074004430
         N            2.022634463349     1.039706094148    -0.011070638762    14.003074004430
         N            2.689094463349    -1.194514905852     0.070685361238    14.003074004430
         C           -0.580153536651     0.437954094148     0.002063361238    12.000000000000
         C            0.310477363349    -0.666312405852     0.013763261238    12.000000000000
         C           -1.588465536651    -1.513314905852    -0.018797638762    12.000000000000
         C            1.695096463349    -0.261344905852     0.002282361238    12.000000000000
         C           -3.095645536651     0.535294094148     0.015261361238    12.000000000000
         C            1.024935463349     1.953648094148    -0.013610638762    12.000000000000
         H           -2.407743536651    -2.223138905852    -0.036747638762     1.007825032230
         H           -2.960011536651     1.506982094148    -0.460455638762     1.007825032230
         H           -3.838315536651    -0.045775905852    -0.533726638762     1.007825032230
         H           -3.428775536651     0.682511094148     1.045489361238     1.007825032230
         H            1.349675463349     2.991963094148    -0.025330638762     1.007825032230
         H            3.611255463349    -0.870097905852    -0.193122638762     1.007825032230
         H            2.443342463349    -2.138180905852    -0.201310638762     1.007825032230

  Basis Set: AUG-CC-PVTZ
    Blend: AUG-CC-PVTZ
  Basis Set: (AUG-CC-PVTZ AUX)
    Blend: AUG-CC-PVTZ-JKFIT
	 Reference Energy          =    -503.7199948855762841 [Eh]
	 Singles Energy            =      -0.0000000000000000 [Eh]
	 Same-Spin Energy          =      -0.5503131437230973 [Eh]
	 Opposite-Spin Energy      =      -1.6336245279497752 [Eh]
	 Correlation Energy        =      -2.1839376716728722 [Eh]
	 Total Energy              =    -505.9039325572491634 [Eh]

	 ================> DF-SCS-MP2 Energies <==================
	-----------------------------------------------------------
	 SCS Same-Spin Scale       =       0.3333333333333333 [-]
	 SCS Opposite-Spin Scale   =       1.2000000000000000 [-]
	 SCS Same-Spin Energy      =      -0.1834377145743658 [Eh]
	 SCS Opposite-Spin Energy  =      -1.9603494335397302 [Eh]
	 SCS Correlation Energy    =      -2.1437871481140958 [Eh]
	 SCS Total Energy          =    -505.8637820336903701 [Eh]
	-----------------------------------------------------------

  Dipole Moment: [D]
     X:    -2.6619      Y:    -1.2668      Z:    -0.7086     Total:     3.0320

*** Psi4 exiting successfully. Buy a developer a beer!
