                               Psi4 1.3.2 release

  ==> Input File <==

--------------------------------------------------------------------------
#psi4
#
memory 32 gb

molecule  {
0 1
  N       -1.8274066    -0.2276064    -0.0008613
  N       -0.2713240    -1.8496560    -0.0082220
  N       -0.2672930     1.7497910     0.0010540
  N        2.0532340     1.0361840    -0.0078740
  N        2.7268170    -1.1967150     0.0786200
  C       -0.5487760     0.4359060     0.0048010
  C        0.3666280    -0.6257540     0.0082110
  C       -1.5569310    -1.5157420    -0.0063070
  C        1.7257650    -0.2653140     0.0014880
  C       -3.0654680     0.5328540     0.0028660
  C        1.0578830     1.9506280    -0.0091420
  H       -2.3786350    -2.2235800    -0.0126570
  H       -3.1454970     1.1693440    -0.8801020
  H       -3.8225497    -0.2524753    -0.0069756
  H       -3.1511970     1.1523310     0.8973960
  H        1.3824760     2.9891980    -0.0128990
  H        3.6364610    -0.8630510    -0.2195510
  H        2.4794860    -2.1327440    -0.2212610
units angstrom
no_reorient  #important for SAPT in psi4, default
symmetry c1  #important for SAPT in psi4, default
}

set PROPERTIES_ORIGIN ["COM"]
properties('MP2/aug-cc-pvtz', properties = ['dipole'])
--------------------------------------------------------------------------

    Molecular point group: c1
  Charge       = 0
  Multiplicity = 1
  Basis Set: AUG-CC-PVTZ
    Blend: AUG-CC-PVTZ
  Basis Set: (AUG-CC-PVTZ AUX)
    Blend: AUG-CC-PVTZ-JKFIT

    Orbital Energies [Eh]
    ---------------------

    Doubly Occupied:

       1A    -15.634099     2A    -15.580961     3A    -15.565224
       4A    -15.558278     5A    -15.555158     6A    -11.334512
       7A    -11.319758     8A    -11.315721     9A    -11.311771
      10A    -11.291099    11A    -11.254237    12A     -1.368225
      13A     -1.299162    14A     -1.241795    15A     -1.194869
      16A     -1.154252    17A     -1.029698    18A     -0.990009
      19A     -0.892978    20A     -0.873471    21A     -0.799413
      22A     -0.751655    23A     -0.722124    24A     -0.685552
      25A     -0.674893    26A     -0.666674    27A     -0.626431
      28A     -0.614440    29A     -0.597402    30A     -0.592020
      31A     -0.553898    32A     -0.539921    33A     -0.496212
      34A     -0.494024    35A     -0.448670    36A     -0.412179
      37A     -0.407298    38A     -0.376392    39A     -0.304318

  @DF-RHF Final Energy:  -503.71610705945398

   => Energetics <=

    Nuclear Repulsion Energy =            593.8607925073889646
    One-Electron Energy =               -1862.0962198997360701
    Two-Electron Energy =                 764.5193203328930167
    Total Energy =                       -503.7161070594539751
  Basis Set: (AUG-CC-PVTZ AUX)
    Blend: AUG-CC-PVTZ-RI
    Molecular point group: c1

    Geometry (in Angstrom), charge = 0, multiplicity = 1:

       Center              X                  Y                   Z               Mass
    ------------   -----------------  -----------------  -----------------  -----------------
         N           -1.857690596312    -0.221939036675    -0.003823746893    14.003074004430
         N           -0.301607996312    -1.843988636675    -0.011184446893    14.003074004430
         N           -0.297576996312     1.755458363325    -0.001908446893    14.003074004430
         N            2.022950003688     1.041851363325    -0.010836446893    14.003074004430
         N            2.696533003688    -1.191047636675     0.075657553107    14.003074004430
         C           -0.579059996312     0.441573363325     0.001838553107    12.000000000000
         C            0.336344003688    -0.620086636675     0.005248553107    12.000000000000
         C           -1.587214996312    -1.510074636675    -0.009269446893    12.000000000000
         C            1.695481003688    -0.259646636675    -0.001474446893    12.000000000000
         C           -3.095751996312     0.538521363325    -0.000096446893    12.000000000000
         C            1.027599003688     1.956295363325    -0.012104446893    12.000000000000
         H           -2.408918996312    -2.217912636675    -0.015619446893     1.007825032230
         H           -3.175780996312     1.175011363325    -0.883064446893     1.007825032230
         H           -3.852833696312    -0.246807936675    -0.009938046893     1.007825032230
         H           -3.181480996312     1.157998363325     0.894433553107     1.007825032230
         H            1.352192003688     2.994865363325    -0.015861446893     1.007825032230
         H            3.606177003688    -0.857383636675    -0.222513446893     1.007825032230
         H            2.449202003688    -2.127076636675    -0.224223446893     1.007825032230

  Basis Set: AUG-CC-PVTZ
    Blend: AUG-CC-PVTZ
  Basis Set: (AUG-CC-PVTZ AUX)
    Blend: AUG-CC-PVTZ-JKFIT
	 Reference Energy          =    -503.7161070594539751 [Eh]
	 Singles Energy            =      -0.0000000000000000 [Eh]
	 Same-Spin Energy          =      -0.5498904035232814 [Eh]
	 Opposite-Spin Energy      =      -1.6339507313938131 [Eh]
	 Correlation Energy        =      -2.1838411349170945 [Eh]
	 Total Energy              =    -505.8999481943710634 [Eh]

	 ================> DF-SCS-MP2 Energies <==================
	-----------------------------------------------------------
	 SCS Same-Spin Scale       =       0.3333333333333333 [-]
	 SCS Opposite-Spin Scale   =       1.2000000000000000 [-]
	 SCS Same-Spin Energy      =      -0.1832968011744271 [Eh]
	 SCS Opposite-Spin Energy  =      -1.9607408776725757 [Eh]
	 SCS Correlation Energy    =      -2.1440376788470026 [Eh]
	 SCS Total Energy          =    -505.8601447383009599 [Eh]
	-----------------------------------------------------------

  Dipole Moment: [D]
     X:    -2.6689      Y:    -0.9742      Z:    -0.7882     Total:     2.9484

*** Psi4 exiting successfully. Buy a developer a beer!
