                               Psi4 1.3.2 release

  ==> Input File <==

--------------------------------------------------------------------------
#psi4
#
memory 32 gb

molecule  {
0 1
  N       -1.7893040    -0.1617730    -0.0001110
  N       -0.2713240    -1.8496560    -0.0082220
  N       -0.2672930     1.7497910     0.0010540
  N        2.0532340     1.0361840    -0.0078740
  N        2.7268170    -1.1967150     0.0786200
  C       -0.5487760     0.4359060     0.0048010
  C        0.3666280    -0.6257540     0.0082110
  C       -1.5569310    -1.5157420    -0.0063070
  C        1.5795739    -0.1292946    -0.0097762
  C       -3.0654680     0.5328540     0.0028660
  C        1.0578830     1.9506280    -0.0091420
  H       -2.3786350    -2.2235800    -0.0126570
  H       -3.1454970     1.1693440    -0.8801020
  H       -3.8626160    -0.2117770    -0.0066990
  H       -3.1511970     1.1523310     0.8973960
  H        1.3824760     2.9891980    -0.0128990
  H        3.6364610    -0.8630510    -0.2195510
  H        2.4794860    -2.1327440    -0.2212610
units angstrom
no_reorient  #important for SAPT in psi4, default
symmetry c1  #important for SAPT in psi4, default
}

set PROPERTIES_ORIGIN ["COM"]
properties('MP2/aug-cc-pvtz', properties = ['dipole'])
--------------------------------------------------------------------------

    Molecular point group: c1
  Charge       = 0
  Multiplicity = 1
  Basis Set: AUG-CC-PVTZ
    Blend: AUG-CC-PVTZ
  Basis Set: (AUG-CC-PVTZ AUX)
    Blend: AUG-CC-PVTZ-JKFIT

    Orbital Energies [Eh]
    ---------------------

    Doubly Occupied:

       1A    -15.641999     2A    -15.577422     3A    -15.577069
       4A    -15.563450     5A    -15.543988     6A    -11.335947
       7A    -11.324706     8A    -11.322683     9A    -11.322011
      10A    -11.295610    11A    -11.255099    12A     -1.381744
      13A     -1.322940    14A     -1.233442    15A     -1.197156
      16A     -1.126675    17A     -1.054107    18A     -0.995754
      19A     -0.905317    20A     -0.894361    21A     -0.803433
      22A     -0.758367    23A     -0.721155    24A     -0.677261
      25A     -0.674655    26A     -0.655239    27A     -0.624370
      28A     -0.608718    29A     -0.606257    30A     -0.579042
      31A     -0.557623    32A     -0.542469    33A     -0.509949
      34A     -0.482754    35A     -0.472183    36A     -0.419301
      37A     -0.400021    38A     -0.379317    39A     -0.327776

  @DF-RHF Final Energy:  -503.67660168719794

   => Energetics <=

    Nuclear Repulsion Energy =            596.7278978420526983
    One-Electron Energy =               -1867.4662565046660347
    Two-Electron Energy =                 767.0617569754153919
    Total Energy =                       -503.6766016871979446
  Basis Set: (AUG-CC-PVTZ AUX)
    Blend: AUG-CC-PVTZ-RI
    Molecular point group: c1

    Geometry (in Angstrom), charge = 0, multiplicity = 1:

       Center              X                  Y                   Z               Mass
    ------------   -----------------  -----------------  -----------------  -----------------
         N           -1.811128089800    -0.173514350763    -0.002239040185    14.003074004430
         N           -0.293148089800    -1.861397350763    -0.010350040185    14.003074004430
         N           -0.289117089800     1.738049649237    -0.001074040185    14.003074004430
         N            2.031409910200     1.024442649237    -0.010002040185    14.003074004430
         N            2.704992910200    -1.208456350763     0.076491959815    14.003074004430
         C           -0.570600089800     0.424164649237     0.002672959815    12.000000000000
         C            0.344803910200    -0.637495350763     0.006082959815    12.000000000000
         C           -1.578755089800    -1.527483350763    -0.008435040185    12.000000000000
         C            1.557749810200    -0.141035950763    -0.011904240185    12.000000000000
         C           -3.087292089800     0.521112649237     0.000737959815    12.000000000000
         C            1.036058910200     1.938886649237    -0.011270040185    12.000000000000
         H           -2.400459089800    -2.235321350763    -0.014785040185     1.007825032230
         H           -3.167321089800     1.157602649237    -0.882230040185     1.007825032230
         H           -3.884440089800    -0.223518350763    -0.008827040185     1.007825032230
         H           -3.173021089800     1.140589649237     0.895267959815     1.007825032230
         H            1.360651910200     2.977456649237    -0.015027040185     1.007825032230
         H            3.614636910200    -0.874792350763    -0.221679040185     1.007825032230
         H            2.457661910200    -2.144485350763    -0.223389040185     1.007825032230

  Basis Set: AUG-CC-PVTZ
    Blend: AUG-CC-PVTZ
  Basis Set: (AUG-CC-PVTZ AUX)
    Blend: AUG-CC-PVTZ-JKFIT
	 Reference Energy          =    -503.6766016871979446 [Eh]
	 Singles Energy            =      -0.0000000000000000 [Eh]
	 Same-Spin Energy          =      -0.5495770134882043 [Eh]
	 Opposite-Spin Energy      =      -1.6348242812338545 [Eh]
	 Correlation Energy        =      -2.1844012947220586 [Eh]
	 Total Energy              =    -505.8610029819200236 [Eh]

	 ================> DF-SCS-MP2 Energies <==================
	-----------------------------------------------------------
	 SCS Same-Spin Scale       =       0.3333333333333333 [-]
	 SCS Opposite-Spin Scale   =       1.2000000000000000 [-]
	 SCS Same-Spin Energy      =      -0.1831923378294014 [Eh]
	 SCS Opposite-Spin Energy  =      -1.9617891374806253 [Eh]
	 SCS Correlation Energy    =      -2.1449814753100269 [Eh]
	 SCS Total Energy          =    -505.8215831625079772 [Eh]
	-----------------------------------------------------------

  Dipole Moment: [D]
     X:    -4.2436      Y:    -0.0282      Z:    -0.8415     Total:     4.3264

*** Psi4 exiting successfully. Buy a developer a beer!
