                               Psi4 1.3.2 release

  ==> Input File <==

--------------------------------------------------------------------------
#psi4
#
memory 32 gb

molecule  {
0 1
  N       -1.7893040    -0.1617730    -0.0001110
  N       -0.2713240    -1.8496560    -0.0082220
  N       -0.2672930     1.7497910     0.0010540
  N        2.0532340     1.0361840    -0.0078740
  N        2.7268170    -1.1967150     0.0786200
  C       -0.5394766     0.4438536     0.0047216
  C        0.3666280    -0.6257540     0.0082110
  C       -1.5569310    -1.5157420    -0.0063070
  C        1.7225676    -0.2534673     0.0014266
  C       -3.0654680     0.5328540     0.0028660
  C        1.0578830     1.9506280    -0.0091420
  H       -2.3786350    -2.2235800    -0.0126570
  H       -3.1454970     1.1693440    -0.8801020
  H       -3.8626160    -0.2117770    -0.0066990
  H       -3.1511970     1.1523310     0.8973960
  H        1.3824760     2.9891980    -0.0128990
  H        3.6364610    -0.8630510    -0.2195510
  H        2.4794860    -2.1327440    -0.2212610
units angstrom
no_reorient  #important for SAPT in psi4, default
symmetry c1  #important for SAPT in psi4, default
}

set PROPERTIES_ORIGIN ["COM"]
properties('MP2/aug-cc-pvtz', properties = ['dipole'])
--------------------------------------------------------------------------

    Molecular point group: c1
  Charge       = 0
  Multiplicity = 1
  Basis Set: AUG-CC-PVTZ
    Blend: AUG-CC-PVTZ
  Basis Set: (AUG-CC-PVTZ AUX)
    Blend: AUG-CC-PVTZ-JKFIT

    Orbital Energies [Eh]
    ---------------------

    Doubly Occupied:

       1A    -15.632196     2A    -15.578831     3A    -15.567141
       4A    -15.562428     5A    -15.553677     6A    -11.333705
       7A    -11.323241     8A    -11.313367     9A    -11.313065
      10A    -11.288113    11A    -11.252609    12A     -1.366002
      13A     -1.298452    14A     -1.242150    15A     -1.195031
      16A     -1.154861    17A     -1.031762    18A     -0.984597
      19A     -0.890701    20A     -0.874403    21A     -0.802124
      22A     -0.753316    23A     -0.722618    24A     -0.679786
      25A     -0.673056    26A     -0.665340    27A     -0.624700
      28A     -0.606310    29A     -0.597119    30A     -0.591613
      31A     -0.569684    32A     -0.536259    33A     -0.495842
      34A     -0.494484    35A     -0.452508    36A     -0.414253
      37A     -0.409032    38A     -0.370825    39A     -0.307956

  @DF-RHF Final Energy:  -503.72456436564863

   => Energetics <=

    Nuclear Repulsion Energy =            594.4052809219879236
    One-Electron Energy =               -1863.2133777748426837
    Two-Electron Energy =                 765.0835324872061847
    Total Energy =                       -503.7245643656485754
  Basis Set: (AUG-CC-PVTZ AUX)
    Blend: AUG-CC-PVTZ-RI
    Molecular point group: c1

    Geometry (in Angstrom), charge = 0, multiplicity = 1:

       Center              X                  Y                   Z               Mass
    ------------   -----------------  -----------------  -----------------  -----------------
         N           -1.823387534486    -0.164158344584    -0.003134462939    14.003074004430
         N           -0.305407534486    -1.852041344584    -0.011245462939    14.003074004430
         N           -0.301376534486     1.747405655416    -0.001969462939    14.003074004430
         N            2.019150465514     1.033798655416    -0.010897462939    14.003074004430
         N            2.692733465514    -1.199100344584     0.075596537061    14.003074004430
         C           -0.573560134486     0.441468255416     0.001698137061    12.000000000000
         C            0.332544465514    -0.628139344584     0.005187537061    12.000000000000
         C           -1.591014534486    -1.518127344584    -0.009330462939    12.000000000000
         C            1.688484065514    -0.255852644584    -0.001596862939    12.000000000000
         C           -3.099551534486     0.530468655416    -0.000157462939    12.000000000000
         C            1.023799465514     1.948242655416    -0.012165462939    12.000000000000
         H           -2.412718534486    -2.225965344584    -0.015680462939     1.007825032230
         H           -3.179580534486     1.166958655416    -0.883125462939     1.007825032230
         H           -3.896699534486    -0.214162344584    -0.009722462939     1.007825032230
         H           -3.185280534486     1.149945655416     0.894372537061     1.007825032230
         H            1.348392465514     2.986812655416    -0.015922462939     1.007825032230
         H            3.602377465514    -0.865436344584    -0.222574462939     1.007825032230
         H            2.445402465514    -2.135129344584    -0.224284462939     1.007825032230

  Basis Set: AUG-CC-PVTZ
    Blend: AUG-CC-PVTZ
  Basis Set: (AUG-CC-PVTZ AUX)
    Blend: AUG-CC-PVTZ-JKFIT
	 Reference Energy          =    -503.7245643656486322 [Eh]
	 Singles Energy            =      -0.0000000000000000 [Eh]
	 Same-Spin Energy          =      -0.5492647929264683 [Eh]
	 Opposite-Spin Energy      =      -1.6330464389840118 [Eh]
	 Correlation Energy        =      -2.1823112319104800 [Eh]
	 Total Energy              =    -505.9068755975591216 [Eh]

	 ================> DF-SCS-MP2 Energies <==================
	-----------------------------------------------------------
	 SCS Same-Spin Scale       =       0.3333333333333333 [-]
	 SCS Opposite-Spin Scale   =       1.2000000000000000 [-]
	 SCS Same-Spin Energy      =      -0.1830882643088228 [Eh]
	 SCS Opposite-Spin Energy  =      -1.9596557267808141 [Eh]
	 SCS Correlation Energy    =      -2.1427439910896369 [Eh]
	 SCS Total Energy          =    -505.8673083567382491 [Eh]
	-----------------------------------------------------------

  Dipole Moment: [D]
     X:    -2.7649      Y:    -1.0567      Z:    -0.7923     Total:     3.0641

*** Psi4 exiting successfully. Buy a developer a beer!
