                               Psi4 1.3.2 release

  ==> Input File <==

--------------------------------------------------------------------------
#psi4
#
memory 32 gb

molecule  {
0 1
  N       -1.8598471    -0.1757887    -0.0004157
  N       -0.2713240    -1.8496560    -0.0082220
  N       -0.2672930     1.7497910     0.0010540
  N        2.0532340     1.0361840    -0.0078740
  N        2.7268170    -1.1967150     0.0786200
  C       -0.5487760     0.4359060     0.0048010
  C        0.3666280    -0.6257540     0.0082110
  C       -1.5569310    -1.5157420    -0.0063070
  C        1.7257650    -0.2653140     0.0014880
  C       -3.0654680     0.5328540     0.0028660
  C        1.0578830     1.9506280    -0.0091420
  H       -2.4145553    -2.1796050    -0.0125493
  H       -3.1454970     1.1693440    -0.8801020
  H       -3.8626160    -0.2117770    -0.0066990
  H       -3.1511970     1.1523310     0.8973960
  H        1.3824760     2.9891980    -0.0128990
  H        3.6364610    -0.8630510    -0.2195510
  H        2.4794860    -2.1327440    -0.2212610
units angstrom
no_reorient  #important for SAPT in psi4, default
symmetry c1  #important for SAPT in psi4, default
}

set PROPERTIES_ORIGIN ["COM"]
properties('MP2/aug-cc-pvtz', properties = ['dipole'])
--------------------------------------------------------------------------

    Molecular point group: c1
  Charge       = 0
  Multiplicity = 1
  Basis Set: AUG-CC-PVTZ
    Blend: AUG-CC-PVTZ
  Basis Set: (AUG-CC-PVTZ AUX)
    Blend: AUG-CC-PVTZ-JKFIT

    Orbital Energies [Eh]
    ---------------------

    Doubly Occupied:

       1A    -15.631747     2A    -15.582412     3A    -15.567838
       4A    -15.564426     5A    -15.555742     6A    -11.336325
       7A    -11.327638     8A    -11.319313     9A    -11.312728
      10A    -11.283151    11A    -11.257288    12A     -1.359637
      13A     -1.298157    14A     -1.243587    15A     -1.204214
      16A     -1.154965    17A     -1.029083    18A     -0.988768
      19A     -0.888836    20A     -0.873004    21A     -0.802972
      22A     -0.752545    23A     -0.722437    24A     -0.683939
      25A     -0.675595    26A     -0.666512    27A     -0.631045
      28A     -0.611789    29A     -0.598265    30A     -0.592449
      31A     -0.555495    32A     -0.533637    33A     -0.497014
      34A     -0.496107    35A     -0.451743    36A     -0.413229
      37A     -0.408158    38A     -0.373642    39A     -0.307487

  @DF-RHF Final Energy:  -503.71490577187569

   => Energetics <=

    Nuclear Repulsion Energy =            593.1611360747752997
    One-Electron Energy =               -1860.6462489398586513
    Two-Electron Energy =                 763.7702070932077731
    Total Energy =                       -503.7149057718756922
  Basis Set: (AUG-CC-PVTZ AUX)
    Blend: AUG-CC-PVTZ-RI
    Molecular point group: c1

    Geometry (in Angstrom), charge = 0, multiplicity = 1:

       Center              X                  Y                   Z               Mass
    ------------   -----------------  -----------------  -----------------  -----------------
         N           -1.886570035048    -0.175561345858    -0.003422602990    14.003074004430
         N           -0.298046935048    -1.849428645858    -0.011228902990    14.003074004430
         N           -0.294015935048     1.750018354142    -0.001952902990    14.003074004430
         N            2.026511064952     1.036411354142    -0.010880902990    14.003074004430
         N            2.700094064952    -1.196487645858     0.075613097010    14.003074004430
         C           -0.575498935048     0.436133354142     0.001794097010    12.000000000000
         C            0.339905064952    -0.625526645858     0.005204097010    12.000000000000
         C           -1.583653935048    -1.515514645858    -0.009313902990    12.000000000000
         C            1.699042064952    -0.265086645858    -0.001518902990    12.000000000000
         C           -3.092190935048     0.533081354142    -0.000140902990    12.000000000000
         C            1.031160064952     1.950855354142    -0.012148902990    12.000000000000
         H           -2.441278235048    -2.179377645858    -0.015556202990     1.007825032230
         H           -3.172219935048     1.169571354142    -0.883108902990     1.007825032230
         H           -3.889338935048    -0.211549645858    -0.009705902990     1.007825032230
         H           -3.177919935048     1.152558354142     0.894389097010     1.007825032230
         H            1.355753064952     2.989425354142    -0.015905902990     1.007825032230
         H            3.609738064952    -0.862823645858    -0.222557902990     1.007825032230
         H            2.452763064952    -2.132516645858    -0.224267902990     1.007825032230

  Basis Set: AUG-CC-PVTZ
    Blend: AUG-CC-PVTZ
  Basis Set: (AUG-CC-PVTZ AUX)
    Blend: AUG-CC-PVTZ-JKFIT
	 Reference Energy          =    -503.7149057718756922 [Eh]
	 Singles Energy            =      -0.0000000000000000 [Eh]
	 Same-Spin Energy          =      -0.5500296686008839 [Eh]
	 Opposite-Spin Energy      =      -1.6347437006383276 [Eh]
	 Correlation Energy        =      -2.1847733692392115 [Eh]
	 Total Energy              =    -505.8996791411149161 [Eh]

	 ================> DF-SCS-MP2 Energies <==================
	-----------------------------------------------------------
	 SCS Same-Spin Scale       =       0.3333333333333333 [-]
	 SCS Opposite-Spin Scale   =       1.2000000000000000 [-]
	 SCS Same-Spin Energy      =      -0.1833432228669613 [Eh]
	 SCS Opposite-Spin Energy  =      -1.9616924407659930 [Eh]
	 SCS Correlation Energy    =      -2.1450356636329544 [Eh]
	 SCS Total Energy          =    -505.8599414355086310 [Eh]
	-----------------------------------------------------------

  Dipole Moment: [D]
     X:    -2.4875      Y:    -1.0899      Z:    -0.7896     Total:     2.8282

*** Psi4 exiting successfully. Buy a developer a beer!
