                               Psi4 1.3.2 release

  ==> Input File <==

--------------------------------------------------------------------------
#psi4
#
memory 32 gb

molecule  {
0 1
  N       -1.7893040    -0.1617730    -0.0001110
  N       -0.2713240    -1.8496560    -0.0082220
  N       -0.2654899     1.7382341     0.0010552
  N        2.0532340     1.0361840    -0.0078740
  N        2.7268170    -1.1967150     0.0786200
  C       -0.5487760     0.4359060     0.0048010
  C        0.3666280    -0.6257540     0.0082110
  C       -1.5569310    -1.5157420    -0.0063070
  C        1.7257650    -0.2653140     0.0014880
  C       -3.0654680     0.5328540     0.0028660
  C        1.0578830     1.9506280    -0.0091420
  H       -2.3786350    -2.2235800    -0.0126570
  H       -3.1454970     1.1693440    -0.8801020
  H       -3.8626160    -0.2117770    -0.0066990
  H       -3.1511970     1.1523310     0.8973960
  H        1.3915265     2.9863257    -0.0129632
  H        3.6364610    -0.8630510    -0.2195510
  H        2.4794860    -2.1327440    -0.2212610
units angstrom
no_reorient  #important for SAPT in psi4, default
symmetry c1  #important for SAPT in psi4, default
}

set PROPERTIES_ORIGIN ["COM"]
properties('MP2/aug-cc-pvtz', properties = ['dipole'])
--------------------------------------------------------------------------

    Molecular point group: c1
  Charge       = 0
  Multiplicity = 1
  Basis Set: AUG-CC-PVTZ
    Blend: AUG-CC-PVTZ
  Basis Set: (AUG-CC-PVTZ AUX)
    Blend: AUG-CC-PVTZ-JKFIT

    Orbital Energies [Eh]
    ---------------------

    Doubly Occupied:

       1A    -15.632524     2A    -15.580431     3A    -15.566977
       4A    -15.559558     5A    -15.552425     6A    -11.333760
       7A    -11.322502     8A    -11.312113     9A    -11.311869
      10A    -11.288584    11A    -11.251380    12A     -1.368024
      13A     -1.296619    14A     -1.243233    15A     -1.196583
      16A     -1.152694    17A     -1.030987    18A     -0.985835
      19A     -0.890813    20A     -0.873260    21A     -0.802611
      22A     -0.753793    23A     -0.724076    24A     -0.680586
      25A     -0.674042    26A     -0.666528    27A     -0.624688
      28A     -0.606089    29A     -0.597272    30A     -0.591855
      31A     -0.572073    32A     -0.536513    33A     -0.496293
      34A     -0.492669    35A     -0.450474    36A     -0.413986
      37A     -0.407699    38A     -0.368890    39A     -0.306828

  @DF-RHF Final Energy:  -503.72523673839612

   => Energetics <=

    Nuclear Repulsion Energy =            594.6526359237982433
    One-Electron Energy =               -1863.7214737215542755
    Two-Electron Energy =                 765.3436010593599121
    Total Energy =                       -503.7252367383961200
  Basis Set: (AUG-CC-PVTZ AUX)
    Blend: AUG-CC-PVTZ-RI
    Molecular point group: c1

    Geometry (in Angstrom), charge = 0, multiplicity = 1:

       Center              X                  Y                   Z               Mass
    ------------   -----------------  -----------------  -----------------  -----------------
         N           -1.823126893855    -0.161459893454    -0.003145475884    14.003074004430
         N           -0.305146893855    -1.849342893454    -0.011256475884    14.003074004430
         N           -0.299312793855     1.738547206546    -0.001979275884    14.003074004430
         N            2.019411106145     1.036497106546    -0.010908475884    14.003074004430
         N            2.692994106145    -1.196401893454     0.075585524116    14.003074004430
         C           -0.582598893855     0.436219106546     0.001766524116    12.000000000000
         C            0.332805106145    -0.625440893454     0.005176524116    12.000000000000
         C           -1.590753893855    -1.515428893454    -0.009341475884    12.000000000000
         C            1.691942106145    -0.265000893454    -0.001546475884    12.000000000000
         C           -3.099290893855     0.533167106546    -0.000168475884    12.000000000000
         C            1.024060106145     1.950941106546    -0.012176475884    12.000000000000
         H           -2.412457893855    -2.223266893454    -0.015691475884     1.007825032230
         H           -3.179319893855     1.169657106546    -0.883136475884     1.007825032230
         H           -3.896438893855    -0.211463893454    -0.009733475884     1.007825032230
         H           -3.185019893855     1.152644106546     0.894361524116     1.007825032230
         H            1.357703606145     2.986638806546    -0.015997675884     1.007825032230
         H            3.602638106145    -0.862737893454    -0.222585475884     1.007825032230
         H            2.445663106145    -2.132430893454    -0.224295475884     1.007825032230

  Basis Set: AUG-CC-PVTZ
    Blend: AUG-CC-PVTZ
  Basis Set: (AUG-CC-PVTZ AUX)
    Blend: AUG-CC-PVTZ-JKFIT
	 Reference Energy          =    -503.7252367383961200 [Eh]
	 Singles Energy            =      -0.0000000000000000 [Eh]
	 Same-Spin Energy          =      -0.5492770099117050 [Eh]
	 Opposite-Spin Energy      =      -1.6328902480183833 [Eh]
	 Correlation Energy        =      -2.1821672579300886 [Eh]
	 Total Energy              =    -505.9074039963261953 [Eh]

	 ================> DF-SCS-MP2 Energies <==================
	-----------------------------------------------------------
	 SCS Same-Spin Scale       =       0.3333333333333333 [-]
	 SCS Opposite-Spin Scale   =       1.2000000000000000 [-]
	 SCS Same-Spin Energy      =      -0.1830923366372350 [Eh]
	 SCS Opposite-Spin Energy  =      -1.9594682976220599 [Eh]
	 SCS Correlation Energy    =      -2.1425606342592949 [Eh]
	 SCS Total Energy          =    -505.8677973726553887 [Eh]
	-----------------------------------------------------------

  Dipole Moment: [D]
     X:    -2.7373      Y:    -1.1244      Z:    -0.7893     Total:     3.0627

*** Psi4 exiting successfully. Buy a developer a beer!
