                               Psi4 1.4a3.dev225

  ==> Input File <==

--------------------------------------------------------------------------
#psi4
#
memory 32 gb

molecule  {
0 1
  N        0.0358730    -0.9798690     0.3249120
  N        1.3785830     0.9084480    -0.0806070
  C       -1.2345860    -0.4058730     0.1373700
  C        1.2874650    -0.4145780     0.1205110
  C       -2.2685328    -1.2572674    -0.2142831
  C       -1.5135820     0.9493270     0.3763290
  C        2.4196470    -1.2564020     0.1639730
  C       -3.5834040    -0.7896780    -0.3581100
  C       -2.8175520     1.4190740     0.2143410
  C       -3.8597110     0.5618000    -0.1426300
  C        3.6734950    -0.6966520    -0.0183070
  C        3.7809840     0.6818220    -0.2348670
  C        2.6094310     1.4280530    -0.2543460
  H        0.0343890    -1.9933920     0.2907710
  H       -2.0721120    -2.3220440    -0.4067350
  H       -0.7127900     1.6203970     0.6554980
  H        2.3062980    -2.3249110     0.3351780
  H       -4.3793760    -1.4759950    -0.6376530
  H       -3.0201620     2.4727340     0.3929930
  H       -4.8713210     0.9418730    -0.2585160
  H        4.5591860    -1.3270150     0.0072260
  H        4.7445120     1.1601010    -0.3803610
  H        2.6378470     2.5042230    -0.4179490
units angstrom
no_reorient  #important for SAPT in psi4, default
symmetry c1  #important for SAPT in psi4, default
}

set PROPERTIES_ORIGIN ["COM"]
properties('MP2/aug-cc-pvtz', properties = ['dipole'])
--------------------------------------------------------------------------

    Molecular point group: c1
  Charge       = 0
  Multiplicity = 1
  Basis Set: AUG-CC-PVTZ
    Blend: AUG-CC-PVTZ
  Basis Set: (AUG-CC-PVTZ AUX)
    Blend: AUG-CC-PVTZ-JKFIT

    Orbital Energies [Eh]
    ---------------------

    Doubly Occupied:

       1A    -15.591331     2A    -15.556119     3A    -11.327844
       4A    -11.280348     5A    -11.279827     6A    -11.263613
       7A    -11.239381     8A    -11.236251     9A    -11.231688
      10A    -11.230203    11A    -11.230194    12A    -11.223798
      13A    -11.221244    14A     -1.296262    15A     -1.222656
      16A     -1.135203    17A     -1.087915    18A     -1.035755
      19A     -1.008004    20A     -0.982600    21A     -0.869171
      22A     -0.861902    23A     -0.824868    24A     -0.802310
      25A     -0.728314    26A     -0.714859    27A     -0.679504
      28A     -0.663420    29A     -0.641505    30A     -0.625382
      31A     -0.602222    32A     -0.596079    33A     -0.584473
      34A     -0.578098    35A     -0.568657    36A     -0.534330
      37A     -0.518705    38A     -0.506514    39A     -0.490188
      40A     -0.460088    41A     -0.418847    42A     -0.386019
      43A     -0.344596    44A     -0.330857    45A     -0.283450

  @DF-RHF Final Energy:  -531.44969834721996

   => Energetics <=

    Nuclear Repulsion Energy =            698.8865737649161929
    One-Electron Energy =               -2106.0833543711769380
    Two-Electron Energy =                 875.7470822590407806
    Total Energy =                       -531.4496983472199645
  Basis Set: (AUG-CC-PVTZ AUX)
    Blend: AUG-CC-PVTZ-RI
    Molecular point group: c1

    Geometry (in Angstrom), charge = 0, multiplicity = 1:

       Center              X                  Y                   Z               Mass
    ------------   -----------------  -----------------  -----------------  -----------------
         N            0.030281654974    -0.985075489304     0.322101860900    14.003074004430
         N            1.372991654974     0.903241510696    -0.083417139100    14.003074004430
         C           -1.240177345026    -0.411079489304     0.134559860900    12.000000000000
         C            1.281873654974    -0.419784489304     0.117700860900    12.000000000000
         C           -2.274124145026    -1.262473889304    -0.217093239100    12.000000000000
         C           -1.519173345026     0.944120510696     0.373518860900    12.000000000000
         C            2.414055654974    -1.261608489304     0.161162860900    12.000000000000
         C           -3.588995345026    -0.794884489304    -0.360920139100    12.000000000000
         C           -2.823143345026     1.413867510696     0.211530860900    12.000000000000
         C           -3.865302345026     0.556593510696    -0.145440139100    12.000000000000
         C            3.667903654974    -0.701858489304    -0.021117139100    12.000000000000
         C            3.775392654974     0.676615510696    -0.237677139100    12.000000000000
         C            2.603839654974     1.422846510696    -0.257156139100    12.000000000000
         H            0.028797654974    -1.998598489304     0.287960860900     1.007825032230
         H           -2.077703345026    -2.327250489304    -0.409545139100     1.007825032230
         H           -0.718381345026     1.615190510696     0.652687860900     1.007825032230
         H            2.300706654974    -2.330117489304     0.332367860900     1.007825032230
         H           -4.384967345026    -1.481201489304    -0.640463139100     1.007825032230
         H           -3.025753345026     2.467527510696     0.390182860900     1.007825032230
         H           -4.876912345026     0.936666510696    -0.261326139100     1.007825032230
         H            4.553594654974    -1.332221489304     0.004415860900     1.007825032230
         H            4.738920654974     1.154894510696    -0.383171139100     1.007825032230
         H            2.632255654974     2.499016510696    -0.420759139100     1.007825032230

  Basis Set: AUG-CC-PVTZ
    Blend: AUG-CC-PVTZ
  Basis Set: (AUG-CC-PVTZ AUX)
    Blend: AUG-CC-PVTZ-JKFIT
	 Reference Energy          =    -531.4496983472199645 [Eh]
	 Singles Energy            =      -0.0000000000000000 [Eh]
	 Same-Spin Energy          =      -0.5920487100277546 [Eh]
	 Opposite-Spin Energy      =      -1.8139554709259733 [Eh]
	 Correlation Energy        =      -2.4060041809537278 [Eh]
	 Total Energy              =    -533.8557025281736514 [Eh]

	 ================> DF-SCS-MP2 Energies <==================
	-----------------------------------------------------------
	 SCS Same-Spin Scale       =       0.3333333333333333 [-]
	 SCS Opposite-Spin Scale   =       1.2000000000000000 [-]
	 SCS Same-Spin Energy      =      -0.1973495700092515 [Eh]
	 SCS Opposite-Spin Energy  =      -2.1767465651111677 [Eh]
	 SCS Correlation Energy    =      -2.3740961351204191 [Eh]
	 SCS Total Energy          =    -533.8237944823404177 [Eh]
	-----------------------------------------------------------

  Dipole Moment: [D]
     X:     1.4299      Y:    -1.8427      Z:    -0.0680     Total:     2.3334

*** Psi4 exiting successfully. Buy a developer a beer!
