                               Psi4 1.3.2 release

  ==> Input File <==

--------------------------------------------------------------------------
#psi4
#
memory 32 gb

molecule  {
0 1
  N        0.0358730    -0.9798690     0.3249120
  N        1.3785830     0.9084480    -0.0806070
  C       -1.2345860    -0.4058730     0.1373700
  C        1.2942581    -0.3159421     0.1055170
  C       -2.2834660    -1.2695640    -0.2193620
  C       -1.5135820     0.9493270     0.3763290
  C        2.4196470    -1.2564020     0.1639730
  C       -3.5834040    -0.7896780    -0.3581100
  C       -2.8175520     1.4190740     0.2143410
  C       -3.8597110     0.5618000    -0.1426300
  C        3.6734950    -0.6966520    -0.0183070
  C        3.7809840     0.6818220    -0.2348670
  C        2.6094310     1.4280530    -0.2543460
  H        0.0343890    -1.9933920     0.2907710
  H       -2.0721120    -2.3220440    -0.4067350
  H       -0.7127900     1.6203970     0.6554980
  H        2.3062980    -2.3249110     0.3351780
  H       -4.3793760    -1.4759950    -0.6376530
  H       -3.0201620     2.4727340     0.3929930
  H       -4.8713210     0.9418730    -0.2585160
  H        4.5591860    -1.3270150     0.0072260
  H        4.7445120     1.1601010    -0.3803610
  H        2.6378470     2.5042230    -0.4179490
units angstrom
no_reorient  #important for SAPT in psi4, default
symmetry c1  #important for SAPT in psi4, default
}

set PROPERTIES_ORIGIN ["COM"]
properties('MP2/aug-cc-pvtz', properties = ['dipole'])
--------------------------------------------------------------------------

    Molecular point group: c1
  Charge       = 0
  Multiplicity = 1
  Basis Set: AUG-CC-PVTZ
    Blend: AUG-CC-PVTZ
  Basis Set: (AUG-CC-PVTZ AUX)
    Blend: AUG-CC-PVTZ-JKFIT

    Orbital Energies [Eh]
    ---------------------

    Doubly Occupied:

       1A    -15.584479     2A    -15.554231     3A    -11.327429
       4A    -11.283207     5A    -11.277535     6A    -11.263113
       7A    -11.248185     8A    -11.236093     9A    -11.232699
      10A    -11.229865    11A    -11.226209    12A    -11.219918
      13A    -11.217636    14A     -1.310940    15A     -1.226595
      16A     -1.129069    17A     -1.096289    18A     -1.030258
      19A     -1.006762    20A     -0.978247    21A     -0.877904
      22A     -0.855806    23A     -0.824160    24A     -0.797678
      25A     -0.726007    26A     -0.711336    27A     -0.681932
      28A     -0.669011    29A     -0.643588    30A     -0.621637
      31A     -0.597187    32A     -0.594882    33A     -0.586129
      34A     -0.579106    35A     -0.569208    36A     -0.539459
      37A     -0.519276    38A     -0.505517    39A     -0.487629
      40A     -0.454909    41A     -0.420189    42A     -0.397453
      43A     -0.340872    44A     -0.330338    45A     -0.282291

  @DF-RHF Final Energy:  -531.43973631882727

   => Energetics <=

    Nuclear Repulsion Energy =            699.2030396338955143
    One-Electron Energy =               -2106.7010245728174596
    Two-Electron Energy =                 876.0582486200946732
    Total Energy =                       -531.4397363188272720
  Basis Set: (AUG-CC-PVTZ AUX)
    Blend: AUG-CC-PVTZ-RI
    Molecular point group: c1

    Geometry (in Angstrom), charge = 0, multiplicity = 1:

       Center              X                  Y                   Z               Mass
    ------------   -----------------  -----------------  -----------------  -----------------
         N            0.030855965145    -0.991167003929     0.323518068397    14.003074004430
         N            1.373565965145     0.897149996071    -0.082000931603    14.003074004430
         C           -1.239603034855    -0.417171003929     0.135976068397    12.000000000000
         C            1.289241065145    -0.327240103929     0.104123068397    12.000000000000
         C           -2.288483034855    -1.280862003929    -0.220755931603    12.000000000000
         C           -1.518599034855     0.938028996071     0.374935068397    12.000000000000
         C            2.414629965145    -1.267700003929     0.162579068397    12.000000000000
         C           -3.588421034855    -0.800976003929    -0.359503931603    12.000000000000
         C           -2.822569034855     1.407775996071     0.212947068397    12.000000000000
         C           -3.864728034855     0.550501996071    -0.144023931603    12.000000000000
         C            3.668477965145    -0.707950003929    -0.019700931603    12.000000000000
         C            3.775966965145     0.670523996071    -0.236260931603    12.000000000000
         C            2.604413965145     1.416754996071    -0.255739931603    12.000000000000
         H            0.029371965145    -2.004690003929     0.289377068397     1.007825032230
         H           -2.077129034855    -2.333342003929    -0.408128931603     1.007825032230
         H           -0.717807034855     1.609098996071     0.654104068397     1.007825032230
         H            2.301280965145    -2.336209003929     0.333784068397     1.007825032230
         H           -4.384393034855    -1.487293003929    -0.639046931603     1.007825032230
         H           -3.025179034855     2.461435996071     0.391599068397     1.007825032230
         H           -4.876338034855     0.930574996071    -0.259909931603     1.007825032230
         H            4.554168965145    -1.338313003929     0.005832068397     1.007825032230
         H            4.739494965145     1.148802996071    -0.381754931603     1.007825032230
         H            2.632829965145     2.492924996071    -0.419342931603     1.007825032230

  Basis Set: AUG-CC-PVTZ
    Blend: AUG-CC-PVTZ
  Basis Set: (AUG-CC-PVTZ AUX)
    Blend: AUG-CC-PVTZ-JKFIT
	 Reference Energy          =    -531.4397363188272720 [Eh]
	 Singles Energy            =      -0.0000000000000000 [Eh]
	 Same-Spin Energy          =      -0.5906864003512512 [Eh]
	 Opposite-Spin Energy      =      -1.8126832591518114 [Eh]
	 Correlation Energy        =      -2.4033696595030625 [Eh]
	 Total Energy              =    -533.8431059783302999 [Eh]

	 ================> DF-SCS-MP2 Energies <==================
	-----------------------------------------------------------
	 SCS Same-Spin Scale       =       0.3333333333333333 [-]
	 SCS Opposite-Spin Scale   =       1.2000000000000000 [-]
	 SCS Same-Spin Energy      =      -0.1968954667837504 [Eh]
	 SCS Opposite-Spin Energy  =      -2.1752199109821735 [Eh]
	 SCS Correlation Energy    =      -2.3721153777659238 [Eh]
	 SCS Total Energy          =    -533.8118516965931803 [Eh]
	-----------------------------------------------------------

  Dipole Moment: [D]
     X:     1.9866      Y:    -1.7169      Z:    -0.1155     Total:     2.6283

*** Psi4 exiting successfully. Buy a developer a beer!
