                               Psi4 1.3.2 release

  ==> Input File <==

--------------------------------------------------------------------------
#psi4
#
memory 32 gb

molecule  {
0 1
  N        0.0358730    -0.9798690     0.3249120
  N        1.3785830     0.9084480    -0.0806070
  C       -1.2345860    -0.4058730     0.1373700
  C        1.3107623    -0.4162196     0.1189044
  C       -2.2834660    -1.2695640    -0.2193620
  C       -1.5135820     0.9493270     0.3763290
  C        2.4196470    -1.2564020     0.1639730
  C       -3.5834040    -0.7896780    -0.3581100
  C       -2.8175520     1.4190740     0.2143410
  C       -3.8597110     0.5618000    -0.1426300
  C        3.6734950    -0.6966520    -0.0183070
  C        3.7809840     0.6818220    -0.2348670
  C        2.6094310     1.4280530    -0.2543460
  H        0.0343890    -1.9933920     0.2907710
  H       -2.0721120    -2.3220440    -0.4067350
  H       -0.7127900     1.6203970     0.6554980
  H        2.3062980    -2.3249110     0.3351780
  H       -4.3793760    -1.4759950    -0.6376530
  H       -3.0201620     2.4727340     0.3929930
  H       -4.8713210     0.9418730    -0.2585160
  H        4.5591860    -1.3270150     0.0072260
  H        4.7445120     1.1601010    -0.3803610
  H        2.6378470     2.5042230    -0.4179490
units angstrom
no_reorient  #important for SAPT in psi4, default
symmetry c1  #important for SAPT in psi4, default
}

set PROPERTIES_ORIGIN ["COM"]
properties('MP2/aug-cc-pvtz', properties = ['dipole'])
--------------------------------------------------------------------------

    Molecular point group: c1
  Charge       = 0
  Multiplicity = 1
  Basis Set: AUG-CC-PVTZ
    Blend: AUG-CC-PVTZ
  Basis Set: (AUG-CC-PVTZ AUX)
    Blend: AUG-CC-PVTZ-JKFIT

    Orbital Energies [Eh]
    ---------------------

    Doubly Occupied:

       1A    -15.588955     2A    -15.558745     3A    -11.327180
       4A    -11.281391     5A    -11.281240     6A    -11.265646
       7A    -11.239407     8A    -11.233984     9A    -11.232488
      10A    -11.230682    11A    -11.228766    12A    -11.221785
      13A    -11.219081    14A     -1.293387    15A     -1.221177
      16A     -1.132447    17A     -1.091189    18A     -1.036144
      19A     -1.008136    20A     -0.980407    21A     -0.871394
      22A     -0.860618    23A     -0.823596    24A     -0.801901
      25A     -0.726347    26A     -0.712879    27A     -0.679208
      28A     -0.663436    29A     -0.643291    30A     -0.625230
      31A     -0.600594    32A     -0.594615    33A     -0.582957
      34A     -0.578652    35A     -0.569279    36A     -0.534705
      37A     -0.517994    38A     -0.506380    39A     -0.488097
      40A     -0.458137    41A     -0.423030    42A     -0.387444
      43A     -0.345122    44A     -0.331317    45A     -0.282116

  @DF-RHF Final Energy:  -531.44924171090940

   => Energetics <=

    Nuclear Repulsion Energy =            698.5034779547979724
    One-Electron Energy =               -2105.3442901139897003
    Two-Electron Energy =                 875.3915704482823230
    Total Energy =                       -531.4492417109094049
  Basis Set: (AUG-CC-PVTZ AUX)
    Blend: AUG-CC-PVTZ-RI
    Molecular point group: c1

    Geometry (in Angstrom), charge = 0, multiplicity = 1:

       Center              X                  Y                   Z               Mass
    ------------   -----------------  -----------------  -----------------  -----------------
         N            0.029691540883    -0.984092104574     0.322573544375    14.003074004430
         N            1.372401540883     0.904224895426    -0.082945455625    14.003074004430
         C           -1.240767459117    -0.410096104574     0.135031544375    12.000000000000
         C            1.304580840883    -0.420442704574     0.116565944375    12.000000000000
         C           -2.289647459117    -1.273787104574    -0.221700455625    12.000000000000
         C           -1.519763459117     0.945103895426     0.373990544375    12.000000000000
         C            2.413465540883    -1.260625104574     0.161634544375    12.000000000000
         C           -3.589585459117    -0.793901104574    -0.360448455625    12.000000000000
         C           -2.823733459117     1.414850895426     0.212002544375    12.000000000000
         C           -3.865892459117     0.557576895426    -0.144968455625    12.000000000000
         C            3.667313540883    -0.700875104574    -0.020645455625    12.000000000000
         C            3.774802540883     0.677598895426    -0.237205455625    12.000000000000
         C            2.603249540883     1.423829895426    -0.256684455625    12.000000000000
         H            0.028207540883    -1.997615104574     0.288432544375     1.007825032230
         H           -2.078293459117    -2.326267104574    -0.409073455625     1.007825032230
         H           -0.718971459117     1.616173895426     0.653159544375     1.007825032230
         H            2.300116540883    -2.329134104574     0.332839544375     1.007825032230
         H           -4.385557459117    -1.480218104574    -0.639991455625     1.007825032230
         H           -3.026343459117     2.468510895426     0.390654544375     1.007825032230
         H           -4.877502459117     0.937649895426    -0.260854455625     1.007825032230
         H            4.553004540883    -1.331238104574     0.004887544375     1.007825032230
         H            4.738330540883     1.155877895426    -0.382699455625     1.007825032230
         H            2.631665540883     2.499999895426    -0.420287455625     1.007825032230

  Basis Set: AUG-CC-PVTZ
    Blend: AUG-CC-PVTZ
  Basis Set: (AUG-CC-PVTZ AUX)
    Blend: AUG-CC-PVTZ-JKFIT
	 Reference Energy          =    -531.4492417109094049 [Eh]
	 Singles Energy            =      -0.0000000000000000 [Eh]
	 Same-Spin Energy          =      -0.5920996167205708 [Eh]
	 Opposite-Spin Energy      =      -1.8140560456267938 [Eh]
	 Correlation Energy        =      -2.4061556623473646 [Eh]
	 Total Energy              =    -533.8553973732567783 [Eh]

	 ================> DF-SCS-MP2 Energies <==================
	-----------------------------------------------------------
	 SCS Same-Spin Scale       =       0.3333333333333333 [-]
	 SCS Opposite-Spin Scale   =       1.2000000000000000 [-]
	 SCS Same-Spin Energy      =      -0.1973665389068569 [Eh]
	 SCS Opposite-Spin Energy  =      -2.1768672547521524 [Eh]
	 SCS Correlation Energy    =      -2.3742337936590094 [Eh]
	 SCS Total Energy          =    -533.8234755045683642 [Eh]
	-----------------------------------------------------------

  Dipole Moment: [D]
     X:     1.7121      Y:    -1.8115      Z:    -0.0873     Total:     2.4941

*** Psi4 exiting successfully. Buy a developer a beer!
