                               Psi4 1.3.2 release

  ==> Input File <==

--------------------------------------------------------------------------
#psi4
#
memory 32 gb

molecule  {
0 1
  N       -0.0021825    -0.8914984     0.3133130
  N        1.3785830     0.9084480    -0.0806070
  C       -1.2345860    -0.4058730     0.1373700
  C        1.2874650    -0.4145780     0.1205110
  C       -2.2834660    -1.2695640    -0.2193620
  C       -1.5135820     0.9493270     0.3763290
  C        2.4196470    -1.2564020     0.1639730
  C       -3.5834040    -0.7896780    -0.3581100
  C       -2.8175520     1.4190740     0.2143410
  C       -3.8597110     0.5618000    -0.1426300
  C        3.6734950    -0.6966520    -0.0183070
  C        3.7809840     0.6818220    -0.2348670
  C        2.6094310     1.4280530    -0.2543460
  H        0.0343890    -1.9933920     0.2907710
  H       -2.0721120    -2.3220440    -0.4067350
  H       -0.7127900     1.6203970     0.6554980
  H        2.3062980    -2.3249110     0.3351780
  H       -4.3793760    -1.4759950    -0.6376530
  H       -3.0201620     2.4727340     0.3929930
  H       -4.8713210     0.9418730    -0.2585160
  H        4.5591860    -1.3270150     0.0072260
  H        4.7445120     1.1601010    -0.3803610
  H        2.6378470     2.5042230    -0.4179490
units angstrom
no_reorient  #important for SAPT in psi4, default
symmetry c1  #important for SAPT in psi4, default
}

set PROPERTIES_ORIGIN ["COM"]
properties('MP2/aug-cc-pvtz', properties = ['dipole'])
--------------------------------------------------------------------------

    Molecular point group: c1
  Charge       = 0
  Multiplicity = 1
  Basis Set: AUG-CC-PVTZ
    Blend: AUG-CC-PVTZ
  Basis Set: (AUG-CC-PVTZ AUX)
    Blend: AUG-CC-PVTZ-JKFIT

    Orbital Energies [Eh]
    ---------------------

    Doubly Occupied:

       1A    -15.598946     2A    -15.557188     3A    -11.331934
       4A    -11.281372     5A    -11.278407     6A    -11.267268
       7A    -11.244753     8A    -11.233458     9A    -11.233074
      10A    -11.229221    11A    -11.226837    12A    -11.218597
      13A    -11.214935    14A     -1.304841    15A     -1.229260
      16A     -1.130315    17A     -1.091000    18A     -1.040955
      19A     -1.007142    20A     -0.977080    21A     -0.872826
      22A     -0.867777    23A     -0.825589    24A     -0.799009
      25A     -0.732004    26A     -0.709661    27A     -0.679631
      28A     -0.663269    29A     -0.642935    30A     -0.626033
      31A     -0.603360    32A     -0.595569    33A     -0.583523
      34A     -0.572519    35A     -0.571315    36A     -0.534777
      37A     -0.520564    38A     -0.507276    39A     -0.484987
      40A     -0.459145    41A     -0.421854    42A     -0.388138
      43A     -0.345972    44A     -0.330593    45A     -0.276102

  @DF-RHF Final Energy:  -531.43443666581061

   => Energetics <=

    Nuclear Repulsion Energy =            699.9625510816770202
    One-Electron Energy =               -2108.1719548799887889
    Two-Electron Energy =                 876.7749671325011604
    Total Energy =                       -531.4344366658106082
  Basis Set: (AUG-CC-PVTZ AUX)
    Blend: AUG-CC-PVTZ-RI
    Molecular point group: c1

    Geometry (in Angstrom), charge = 0, multiplicity = 1:

       Center              X                  Y                   Z               Mass
    ------------   -----------------  -----------------  -----------------  -----------------
         N           -0.003587144836    -0.903112889463     0.311816140999    14.003074004430
         N            1.377178355164     0.896833510537    -0.082103859001    14.003074004430
         C           -1.235990644836    -0.417487489463     0.135873140999    12.000000000000
         C            1.286060355164    -0.426192489463     0.119014140999    12.000000000000
         C           -2.284870644836    -1.281178489463    -0.220858859001    12.000000000000
         C           -1.514986644836     0.937712510537     0.374832140999    12.000000000000
         C            2.418242355164    -1.268016489463     0.162476140999    12.000000000000
         C           -3.584808644836    -0.801292489463    -0.359606859001    12.000000000000
         C           -2.818956644836     1.407459510537     0.212844140999    12.000000000000
         C           -3.861115644836     0.550185510537    -0.144126859001    12.000000000000
         C            3.672090355164    -0.708266489463    -0.019803859001    12.000000000000
         C            3.779579355164     0.670207510537    -0.236363859001    12.000000000000
         C            2.608026355164     1.416438510537    -0.255842859001    12.000000000000
         H            0.032984355164    -2.005006489463     0.289274140999     1.007825032230
         H           -2.073516644836    -2.333658489463    -0.408231859001     1.007825032230
         H           -0.714194644836     1.608782510537     0.654001140999     1.007825032230
         H            2.304893355164    -2.336525489463     0.333681140999     1.007825032230
         H           -4.380780644836    -1.487609489463    -0.639149859001     1.007825032230
         H           -3.021566644836     2.461119510537     0.391496140999     1.007825032230
         H           -4.872725644836     0.930258510537    -0.260012859001     1.007825032230
         H            4.557781355164    -1.338629489463     0.005729140999     1.007825032230
         H            4.743107355164     1.148486510537    -0.381857859001     1.007825032230
         H            2.636442355164     2.492608510537    -0.419445859001     1.007825032230

  Basis Set: AUG-CC-PVTZ
    Blend: AUG-CC-PVTZ
  Basis Set: (AUG-CC-PVTZ AUX)
    Blend: AUG-CC-PVTZ-JKFIT
	 Reference Energy          =    -531.4344366658106082 [Eh]
	 Singles Energy            =      -0.0000000000000000 [Eh]
	 Same-Spin Energy          =      -0.5937247797718527 [Eh]
	 Opposite-Spin Energy      =      -1.8164533404491146 [Eh]
	 Correlation Energy        =      -2.4101781202209671 [Eh]
	 Total Energy              =    -533.8446147860315705 [Eh]

	 ================> DF-SCS-MP2 Energies <==================
	-----------------------------------------------------------
	 SCS Same-Spin Scale       =       0.3333333333333333 [-]
	 SCS Opposite-Spin Scale   =       1.2000000000000000 [-]
	 SCS Same-Spin Energy      =      -0.1979082599239509 [Eh]
	 SCS Opposite-Spin Energy  =      -2.1797440085389375 [Eh]
	 SCS Correlation Energy    =      -2.3776522684628882 [Eh]
	 SCS Total Energy          =    -533.8120889342734472 [Eh]
	-----------------------------------------------------------

  Dipole Moment: [D]
     X:     1.8890      Y:    -1.9238      Z:    -0.0327     Total:     2.6964

*** Psi4 exiting successfully. Buy a developer a beer!
