                               Psi4 1.3.2 release

  ==> Input File <==

--------------------------------------------------------------------------
#psi4
#
memory 32 gb

molecule  {
0 1
  N        0.0358730    -0.9798690     0.3249120
  N        1.3785830     0.9084480    -0.0806070
  C       -1.2345860    -0.4058730     0.1373700
  C        1.2874650    -0.4145780     0.1205110
  C       -2.2834660    -1.2695640    -0.2193620
  C       -1.5135820     0.9493270     0.3763290
  C        2.4196470    -1.2564020     0.1639730
  C       -3.5834040    -0.7896780    -0.3581100
  C       -2.8175520     1.4190740     0.2143410
  C       -3.8597110     0.5618000    -0.1426300
  C        3.6734950    -0.6966520    -0.0183070
  C        3.7809840     0.6818220    -0.2348670
  C        2.6094310     1.4280530    -0.2543460
  H        0.0340963    -2.1932784     0.2840377
  H       -2.0721120    -2.3220440    -0.4067350
  H       -0.7127900     1.6203970     0.6554980
  H        2.3062980    -2.3249110     0.3351780
  H       -4.3793760    -1.4759950    -0.6376530
  H       -3.0201620     2.4727340     0.3929930
  H       -4.8713210     0.9418730    -0.2585160
  H        4.5591860    -1.3270150     0.0072260
  H        4.7445120     1.1601010    -0.3803610
  H        2.6378470     2.5042230    -0.4179490
units angstrom
no_reorient  #important for SAPT in psi4, default
symmetry c1  #important for SAPT in psi4, default
}

set PROPERTIES_ORIGIN ["COM"]
properties('MP2/aug-cc-pvtz', properties = ['dipole'])
--------------------------------------------------------------------------

    Molecular point group: c1
  Charge       = 0
  Multiplicity = 1
  Basis Set: AUG-CC-PVTZ
    Blend: AUG-CC-PVTZ
  Basis Set: (AUG-CC-PVTZ AUX)
    Blend: AUG-CC-PVTZ-JKFIT

    Orbital Energies [Eh]
    ---------------------

    Doubly Occupied:

       1A    -15.607919     2A    -15.556077     3A    -11.328249
       4A    -11.283127     5A    -11.279647     6A    -11.263063
       7A    -11.238819     8A    -11.234870     9A    -11.231805
      10A    -11.229967    11A    -11.229737    12A    -11.222904
      13A    -11.220841    14A     -1.289201    15A     -1.213424
      16A     -1.131940    17A     -1.087358    18A     -1.033983
      19A     -1.009148    20A     -0.975898    21A     -0.867544
      22A     -0.858338    23A     -0.823529    24A     -0.796132
      25A     -0.724245    26A     -0.698782    27A     -0.676353
      28A     -0.661893    29A     -0.634822    30A     -0.623763
      31A     -0.599835    32A     -0.588830    33A     -0.583756
      34A     -0.570203    35A     -0.566191    36A     -0.533600
      37A     -0.516848    38A     -0.507393    39A     -0.488605
      40A     -0.458935    41A     -0.418559    42A     -0.385673
      43A     -0.342777    44A     -0.332291    45A     -0.280915

  @DF-RHF Final Energy:  -531.41940830775070

   => Energetics <=

    Nuclear Repulsion Energy =            697.4470937995779423
    One-Electron Energy =               -2103.3174172123522112
    Two-Electron Energy =                 874.4509151050235687
    Total Energy =                       -531.4194083077507003
  Basis Set: (AUG-CC-PVTZ AUX)
    Blend: AUG-CC-PVTZ-RI
    Molecular point group: c1

    Geometry (in Angstrom), charge = 0, multiplicity = 1:

       Center              X                  Y                   Z               Mass
    ------------   -----------------  -----------------  -----------------  -----------------
         N            0.031336974522    -0.983023509693     0.322500091361    14.003074004430
         N            1.374046974522     0.905293490307    -0.083018908639    14.003074004430
         C           -1.239122025478    -0.409027509693     0.134958091361    12.000000000000
         C            1.282928974522    -0.417732509693     0.118099091361    12.000000000000
         C           -2.288002025478    -1.272718509693    -0.221773908639    12.000000000000
         C           -1.518118025478     0.946172490307     0.373917091361    12.000000000000
         C            2.415110974522    -1.259556509693     0.161561091361    12.000000000000
         C           -3.587940025478    -0.792832509693    -0.360521908639    12.000000000000
         C           -2.822088025478     1.415919490307     0.211929091361    12.000000000000
         C           -3.864247025478     0.558645490307    -0.145041908639    12.000000000000
         C            3.668958974522    -0.699806509693    -0.020718908639    12.000000000000
         C            3.776447974522     0.678667490307    -0.237278908639    12.000000000000
         C            2.604894974522     1.424898490307    -0.256757908639    12.000000000000
         H            0.029560274522    -2.196432909693     0.281625791361     1.007825032230
         H           -2.076648025478    -2.325198509693    -0.409146908639     1.007825032230
         H           -0.717326025478     1.617242490307     0.653086091361     1.007825032230
         H            2.301761974522    -2.328065509693     0.332766091361     1.007825032230
         H           -4.383912025478    -1.479149509693    -0.640064908639     1.007825032230
         H           -3.024698025478     2.469579490307     0.390581091361     1.007825032230
         H           -4.875857025478     0.938718490307    -0.260927908639     1.007825032230
         H            4.554649974522    -1.330169509693     0.004814091361     1.007825032230
         H            4.739975974522     1.156946490307    -0.382772908639     1.007825032230
         H            2.633310974522     2.501068490307    -0.420360908639     1.007825032230

  Basis Set: AUG-CC-PVTZ
    Blend: AUG-CC-PVTZ
  Basis Set: (AUG-CC-PVTZ AUX)
    Blend: AUG-CC-PVTZ-JKFIT
	 Reference Energy          =    -531.4194083077507003 [Eh]
	 Singles Energy            =      -0.0000000000000000 [Eh]
	 Same-Spin Energy          =      -0.5939481240155979 [Eh]
	 Opposite-Spin Energy      =      -1.8187490350845155 [Eh]
	 Correlation Energy        =      -2.4126971591001132 [Eh]
	 Total Energy              =    -533.8321054668508623 [Eh]

	 ================> DF-SCS-MP2 Energies <==================
	-----------------------------------------------------------
	 SCS Same-Spin Scale       =       0.3333333333333333 [-]
	 SCS Opposite-Spin Scale   =       1.2000000000000000 [-]
	 SCS Same-Spin Energy      =      -0.1979827080051993 [Eh]
	 SCS Opposite-Spin Energy  =      -2.1824988421014186 [Eh]
	 SCS Correlation Energy    =      -2.3804815501066181 [Eh]
	 SCS Total Energy          =    -533.7998898578573517 [Eh]
	-----------------------------------------------------------

  Dipole Moment: [D]
     X:     1.4284      Y:    -1.9824      Z:    -0.0640     Total:     2.4442

*** Psi4 exiting successfully. Buy a developer a beer!
