                               Psi4 1.3.2 release

  ==> Input File <==

--------------------------------------------------------------------------
#psi4
#
memory 32 gb

molecule  {
0 1
  N        0.0572001    -1.0230480     0.3303414
  N        1.3785830     0.9084480    -0.0806070
  C       -1.2345860    -0.4058730     0.1373700
  C        1.2874650    -0.4145780     0.1205110
  C       -2.2834660    -1.2695640    -0.2193620
  C       -1.5135820     0.9493270     0.3763290
  C        2.4196470    -1.2564020     0.1639730
  C       -3.5834040    -0.7896780    -0.3581100
  C       -2.8175520     1.4190740     0.2143410
  C       -3.8597110     0.5618000    -0.1426300
  C        3.6734950    -0.6966520    -0.0183070
  C        3.7809840     0.6818220    -0.2348670
  C        2.6094310     1.4280530    -0.2543460
  H        0.0343890    -1.9933920     0.2907710
  H       -2.0721120    -2.3220440    -0.4067350
  H       -0.7127900     1.6203970     0.6554980
  H        2.3062980    -2.3249110     0.3351780
  H       -4.3793760    -1.4759950    -0.6376530
  H       -3.0201620     2.4727340     0.3929930
  H       -4.8713210     0.9418730    -0.2585160
  H        4.5591860    -1.3270150     0.0072260
  H        4.7445120     1.1601010    -0.3803610
  H        2.6378470     2.5042230    -0.4179490
units angstrom
no_reorient  #important for SAPT in psi4, default
symmetry c1  #important for SAPT in psi4, default
}

set PROPERTIES_ORIGIN ["COM"]
properties('MP2/aug-cc-pvtz', properties = ['dipole'])
--------------------------------------------------------------------------

    Molecular point group: c1
  Charge       = 0
  Multiplicity = 1
  Basis Set: AUG-CC-PVTZ
    Blend: AUG-CC-PVTZ
  Basis Set: (AUG-CC-PVTZ AUX)
    Blend: AUG-CC-PVTZ-JKFIT

    Orbital Energies [Eh]
    ---------------------

    Doubly Occupied:

       1A    -15.588541     2A    -15.556210     3A    -11.326879
       4A    -11.284703     5A    -11.279392     6A    -11.262123
       7A    -11.237314     8A    -11.236048     9A    -11.233109
      10A    -11.232185    11A    -11.229337    12A    -11.225532
      13A    -11.223412    14A     -1.293302    15A     -1.220000
      16A     -1.136743    17A     -1.086822    18A     -1.032393
      19A     -1.010633    20A     -0.983655    21A     -0.868054
      22A     -0.860380    23A     -0.824164    24A     -0.804120
      25A     -0.731009    26A     -0.714034    27A     -0.680297
      28A     -0.665287    29A     -0.640716    30A     -0.624064
      31A     -0.601779    32A     -0.596875    33A     -0.583980
      34A     -0.580168    35A     -0.566714    36A     -0.534155
      37A     -0.517040    38A     -0.507183    39A     -0.491014
      40A     -0.460641    41A     -0.417536    42A     -0.385310
      43A     -0.342617    44A     -0.333330    45A     -0.285192

  @DF-RHF Final Energy:  -531.44812032627976

   => Energetics <=

    Nuclear Repulsion Energy =            697.9108226500150067
    One-Electron Energy =               -2104.1299040720004996
    Two-Electron Energy =                 874.7709610957057293
    Total Energy =                       -531.4481203262797635
  Basis Set: (AUG-CC-PVTZ AUX)
    Blend: AUG-CC-PVTZ-RI
    Molecular point group: c1

    Geometry (in Angstrom), charge = 0, multiplicity = 1:

       Center              X                  Y                   Z               Mass
    ------------   -----------------  -----------------  -----------------  -----------------
         N            0.050906476806    -1.023831991180     0.327442590275    14.003074004430
         N            1.372289376806     0.907664008820    -0.083505809725    14.003074004430
         C           -1.240879623194    -0.406656991180     0.134471190275    12.000000000000
         C            1.281171376806    -0.415361991180     0.117612190275    12.000000000000
         C           -2.289759623194    -1.270347991180    -0.222260809725    12.000000000000
         C           -1.519875623194     0.948543008820     0.373430190275    12.000000000000
         C            2.413353376806    -1.257185991180     0.161074190275    12.000000000000
         C           -3.589697623194    -0.790461991180    -0.361008809725    12.000000000000
         C           -2.823845623194     1.418290008820     0.211442190275    12.000000000000
         C           -3.866004623194     0.561016008820    -0.145528809725    12.000000000000
         C            3.667201376806    -0.697435991180    -0.021205809725    12.000000000000
         C            3.774690376806     0.681038008820    -0.237765809725    12.000000000000
         C            2.603137376806     1.427269008820    -0.257244809725    12.000000000000
         H            0.028095376806    -1.994175991180     0.287872190275     1.007825032230
         H           -2.078405623194    -2.322827991180    -0.409633809725     1.007825032230
         H           -0.719083623194     1.619613008820     0.652599190275     1.007825032230
         H            2.300004376806    -2.325694991180     0.332279190275     1.007825032230
         H           -4.385669623194    -1.476778991180    -0.640551809725     1.007825032230
         H           -3.026455623194     2.471950008820     0.390094190275     1.007825032230
         H           -4.877614623194     0.941089008820    -0.261414809725     1.007825032230
         H            4.552892376806    -1.327798991180     0.004327190275     1.007825032230
         H            4.738218376806     1.159317008820    -0.383259809725     1.007825032230
         H            2.631553376806     2.503439008820    -0.420847809725     1.007825032230

  Basis Set: AUG-CC-PVTZ
    Blend: AUG-CC-PVTZ
  Basis Set: (AUG-CC-PVTZ AUX)
    Blend: AUG-CC-PVTZ-JKFIT
	 Reference Energy          =    -531.4481203262797635 [Eh]
	 Singles Energy            =      -0.0000000000000000 [Eh]
	 Same-Spin Energy          =      -0.5914545392062416 [Eh]
	 Opposite-Spin Energy      =      -1.8133465253504641 [Eh]
	 Correlation Energy        =      -2.4048010645567057 [Eh]
	 Total Energy              =    -533.8529213908365136 [Eh]

	 ================> DF-SCS-MP2 Energies <==================
	-----------------------------------------------------------
	 SCS Same-Spin Scale       =       0.3333333333333333 [-]
	 SCS Opposite-Spin Scale   =       1.2000000000000000 [-]
	 SCS Same-Spin Energy      =      -0.1971515130687472 [Eh]
	 SCS Opposite-Spin Energy  =      -2.1760158304205568 [Eh]
	 SCS Correlation Energy    =      -2.3731673434893041 [Eh]
	 SCS Total Energy          =    -533.8212876697690490 [Eh]
	-----------------------------------------------------------

  Dipole Moment: [D]
     X:     1.2668      Y:    -1.8023      Z:    -0.0852     Total:     2.2046

*** Psi4 exiting successfully. Buy a developer a beer!
