                               Psi4 1.3.2 release

  ==> Input File <==

--------------------------------------------------------------------------
#psi4
#
memory 32 gb

molecule  {
0 1
  N        0.0358730    -0.9798690     0.3249120
  N        1.3785830     0.9084480    -0.0806070
  C       -1.2736078    -0.4909704     0.1669639
  C        1.2874650    -0.4145780     0.1205110
  C       -2.2834660    -1.2695640    -0.2193620
  C       -1.5135820     0.9493270     0.3763290
  C        2.4196470    -1.2564020     0.1639730
  C       -3.5834040    -0.7896780    -0.3581100
  C       -2.8175520     1.4190740     0.2143410
  C       -3.8597110     0.5618000    -0.1426300
  C        3.6734950    -0.6966520    -0.0183070
  C        3.7809840     0.6818220    -0.2348670
  C        2.6094310     1.4280530    -0.2543460
  H        0.0343890    -1.9933920     0.2907710
  H       -2.0721120    -2.3220440    -0.4067350
  H       -0.7127900     1.6203970     0.6554980
  H        2.3062980    -2.3249110     0.3351780
  H       -4.3793760    -1.4759950    -0.6376530
  H       -3.0201620     2.4727340     0.3929930
  H       -4.8713210     0.9418730    -0.2585160
  H        4.5591860    -1.3270150     0.0072260
  H        4.7445120     1.1601010    -0.3803610
  H        2.6378470     2.5042230    -0.4179490
units angstrom
no_reorient  #important for SAPT in psi4, default
symmetry c1  #important for SAPT in psi4, default
}

set PROPERTIES_ORIGIN ["COM"]
properties('MP2/aug-cc-pvtz', properties = ['dipole'])
--------------------------------------------------------------------------

    Molecular point group: c1
  Charge       = 0
  Multiplicity = 1
  Basis Set: AUG-CC-PVTZ
    Blend: AUG-CC-PVTZ
  Basis Set: (AUG-CC-PVTZ AUX)
    Blend: AUG-CC-PVTZ-JKFIT

    Orbital Energies [Eh]
    ---------------------

    Doubly Occupied:

       1A    -15.591185     2A    -15.556579     3A    -11.330431
       4A    -11.281819     5A    -11.280097     6A    -11.264066
       7A    -11.240210     8A    -11.235332     9A    -11.230651
      10A    -11.230310    11A    -11.228074    12A    -11.224010
      13A    -11.222610    14A     -1.295736    15A     -1.223377
      16A     -1.135985    17A     -1.088356    18A     -1.038855
      19A     -1.008623    20A     -0.980705    21A     -0.869122
      22A     -0.863705    23A     -0.823751    24A     -0.802195
      25A     -0.731723    26A     -0.711533    27A     -0.681175
      28A     -0.663999    29A     -0.642711    30A     -0.625137
      31A     -0.605552    32A     -0.590964    33A     -0.584750
      34A     -0.579005    35A     -0.567546    36A     -0.534709
      37A     -0.519107    38A     -0.510107    39A     -0.483576
      40A     -0.460157    41A     -0.419744    42A     -0.386513
      43A     -0.349414    44A     -0.328504    45A     -0.282185

  @DF-RHF Final Energy:  -531.44055628377066

   => Energetics <=

    Nuclear Repulsion Energy =            698.2199634144446918
    One-Electron Energy =               -2104.7132498206583477
    Two-Electron Energy =                 875.0527301224429948
    Total Energy =                       -531.4405562837706611
  Basis Set: (AUG-CC-PVTZ AUX)
    Blend: AUG-CC-PVTZ-RI
    Molecular point group: c1

    Geometry (in Angstrom), charge = 0, multiplicity = 1:

       Center              X                  Y                   Z               Mass
    ------------   -----------------  -----------------  -----------------  -----------------
         N            0.034088353333    -0.978204030125     0.320372248996    14.003074004430
         N            1.376798353333     0.910112969875    -0.085146751004    14.003074004430
         C           -1.275392446667    -0.489305430125     0.162424148996    12.000000000000
         C            1.285680353333    -0.412913030125     0.115971248996    12.000000000000
         C           -2.285250646667    -1.267899030125    -0.223901751004    12.000000000000
         C           -1.515366646667     0.950991969875     0.371789248996    12.000000000000
         C            2.417862353333    -1.254737030125     0.159433248996    12.000000000000
         C           -3.585188646667    -0.788013030125    -0.362649751004    12.000000000000
         C           -2.819336646667     1.420738969875     0.209801248996    12.000000000000
         C           -3.861495646667     0.563464969875    -0.147169751004    12.000000000000
         C            3.671710353333    -0.694987030125    -0.022846751004    12.000000000000
         C            3.779199353333     0.683486969875    -0.239406751004    12.000000000000
         C            2.607646353333     1.429717969875    -0.258885751004    12.000000000000
         H            0.032604353333    -1.991727030125     0.286231248996     1.007825032230
         H           -2.073896646667    -2.320379030125    -0.411274751004     1.007825032230
         H           -0.714574646667     1.622061969875     0.650958248996     1.007825032230
         H            2.304513353333    -2.323246030125     0.330638248996     1.007825032230
         H           -4.381160646667    -1.474330030125    -0.642192751004     1.007825032230
         H           -3.021946646667     2.474398969875     0.388453248996     1.007825032230
         H           -4.873105646667     0.943537969875    -0.263055751004     1.007825032230
         H            4.557401353333    -1.325350030125     0.002686248996     1.007825032230
         H            4.742727353333     1.161765969875    -0.384900751004     1.007825032230
         H            2.636062353333     2.505887969875    -0.422488751004     1.007825032230

  Basis Set: AUG-CC-PVTZ
    Blend: AUG-CC-PVTZ
  Basis Set: (AUG-CC-PVTZ AUX)
    Blend: AUG-CC-PVTZ-JKFIT
	 Reference Energy          =    -531.4405562837706611 [Eh]
	 Singles Energy            =      -0.0000000000000000 [Eh]
	 Same-Spin Energy          =      -0.5918650958279241 [Eh]
	 Opposite-Spin Energy      =      -1.8143676718266692 [Eh]
	 Correlation Energy        =      -2.4062327676545934 [Eh]
	 Total Energy              =    -533.8467890514252758 [Eh]

	 ================> DF-SCS-MP2 Energies <==================
	-----------------------------------------------------------
	 SCS Same-Spin Scale       =       0.3333333333333333 [-]
	 SCS Opposite-Spin Scale   =       1.2000000000000000 [-]
	 SCS Same-Spin Energy      =      -0.1972883652759747 [Eh]
	 SCS Opposite-Spin Energy  =      -2.1772412061920030 [Eh]
	 SCS Correlation Energy    =      -2.3745295714679777 [Eh]
	 SCS Total Energy          =    -533.8150858552386353 [Eh]
	-----------------------------------------------------------

  Dipole Moment: [D]
     X:     1.4813      Y:    -1.8368      Z:    -0.0760     Total:     2.3609

*** Psi4 exiting successfully. Buy a developer a beer!
