                               Psi4 1.4a3.dev225

  ==> Input File <==

--------------------------------------------------------------------------
#psi4
#
memory 32 gb

molecule  {
0 1
  N        0.0358730    -0.9798690     0.3249120
  N        1.3785830     0.9084480    -0.0806070
  C       -1.2345860    -0.4058730     0.1373700
  C        1.2874650    -0.4145780     0.1205110
  C       -2.2834660    -1.2695640    -0.2193620
  C       -1.5135820     0.9493270     0.3763290
  C        2.4196470    -1.2564020     0.1639730
  C       -3.5834040    -0.7896780    -0.3581100
  C       -2.8175520     1.4190740     0.2143410
  C       -3.8597110     0.5618000    -0.1426300
  C        3.6734950    -0.6966520    -0.0183070
  C        3.7809840     0.6818220    -0.2348670
  C        2.6094310     1.4280530    -0.2543460
  H        0.0344622    -1.9434204     0.2924543
  H       -2.0721120    -2.3220440    -0.4067350
  H       -0.7127900     1.6203970     0.6554980
  H        2.3062980    -2.3249110     0.3351780
  H       -4.3793760    -1.4759950    -0.6376530
  H       -3.0201620     2.4727340     0.3929930
  H       -4.8713210     0.9418730    -0.2585160
  H        4.5591860    -1.3270150     0.0072260
  H        4.7445120     1.1601010    -0.3803610
  H        2.6378470     2.5042230    -0.4179490
units angstrom
no_reorient  #important for SAPT in psi4, default
symmetry c1  #important for SAPT in psi4, default
}

set PROPERTIES_ORIGIN ["COM"]
properties('MP2/aug-cc-pvtz', properties = ['dipole'])
--------------------------------------------------------------------------

    Molecular point group: c1
  Charge       = 0
  Multiplicity = 1
  Basis Set: AUG-CC-PVTZ
    Blend: AUG-CC-PVTZ
  Basis Set: (AUG-CC-PVTZ AUX)
    Blend: AUG-CC-PVTZ-JKFIT

    Orbital Energies [Eh]
    ---------------------

    Doubly Occupied:

       1A    -15.587047     2A    -15.556444     3A    -11.328048
       4A    -11.282458     5A    -11.280051     6A    -11.263938
       7A    -11.239842     8A    -11.235294     9A    -11.231881
      10A    -11.230616    11A    -11.230614    12A    -11.223452
      13A    -11.220661    14A     -1.299447    15A     -1.225420
      16A     -1.135410    17A     -1.088297    18A     -1.035241
      19A     -1.009624    20A     -0.983255    21A     -0.870161
      22A     -0.863349    23A     -0.825132    24A     -0.804236
      25A     -0.731369    26A     -0.718435    27A     -0.680534
      28A     -0.664871    29A     -0.643620    30A     -0.624668
      31A     -0.601963    32A     -0.597494    33A     -0.584643
      34A     -0.580777    35A     -0.569024    36A     -0.534604
      37A     -0.518270    38A     -0.507804    39A     -0.489539
      40A     -0.460640    41A     -0.419026    42A     -0.386254
      43A     -0.343718    44A     -0.332491    45A     -0.282755

  @DF-RHF Final Energy:  -531.44993495273206

   => Energetics <=

    Nuclear Repulsion Energy =            698.8996381412147230
    One-Electron Energy =               -2106.0543191894680604
    Two-Electron Energy =                 875.7047460955211591
    Total Energy =                       -531.4499349527320646
  Basis Set: (AUG-CC-PVTZ AUX)
    Blend: AUG-CC-PVTZ-RI
    Molecular point group: c1

    Geometry (in Angstrom), charge = 0, multiplicity = 1:

       Center              X                  Y                   Z               Mass
    ------------   -----------------  -----------------  -----------------  -----------------
         N            0.031334806403    -0.984504028478     0.322450219296    14.003074004430
         N            1.374044806403     0.903812971522    -0.083068780704    14.003074004430
         C           -1.239124193597    -0.410508028478     0.134908219296    12.000000000000
         C            1.282926806403    -0.419213028478     0.118049219296    12.000000000000
         C           -2.288004193597    -1.274199028478    -0.221823780704    12.000000000000
         C           -1.518120193597     0.944691971522     0.373867219296    12.000000000000
         C            2.415108806403    -1.261037028478     0.161511219296    12.000000000000
         C           -3.587942193597    -0.794313028478    -0.360571780704    12.000000000000
         C           -2.822090193597     1.414438971522     0.211879219296    12.000000000000
         C           -3.864249193597     0.557164971522    -0.145091780704    12.000000000000
         C            3.668956806403    -0.701287028478    -0.020768780704    12.000000000000
         C            3.776445806403     0.677186971522    -0.237328780704    12.000000000000
         C            2.604892806403     1.423417971522    -0.256807780704    12.000000000000
         H            0.029924006403    -1.948055428478     0.289992519296     1.007825032230
         H           -2.076650193597    -2.326679028478    -0.409196780704     1.007825032230
         H           -0.717328193597     1.615761971522     0.653036219296     1.007825032230
         H            2.301759806403    -2.329546028478     0.332716219296     1.007825032230
         H           -4.383914193597    -1.480630028478    -0.640114780704     1.007825032230
         H           -3.024700193597     2.468098971522     0.390531219296     1.007825032230
         H           -4.875859193597     0.937237971522    -0.260977780704     1.007825032230
         H            4.554647806403    -1.331650028478     0.004764219296     1.007825032230
         H            4.739973806403     1.155465971522    -0.382822780704     1.007825032230
         H            2.633308806403     2.499587971522    -0.420410780704     1.007825032230

  Basis Set: AUG-CC-PVTZ
    Blend: AUG-CC-PVTZ
  Basis Set: (AUG-CC-PVTZ AUX)
    Blend: AUG-CC-PVTZ-JKFIT
	 Reference Energy          =    -531.4499349527320646 [Eh]
	 Singles Energy            =      -0.0000000000000000 [Eh]
	 Same-Spin Energy          =      -0.5916124439400150 [Eh]
	 Opposite-Spin Energy      =      -1.8129686167581123 [Eh]
	 Correlation Energy        =      -2.4045810606981273 [Eh]
	 Total Energy              =    -533.8545160134301568 [Eh]

	 ================> DF-SCS-MP2 Energies <==================
	-----------------------------------------------------------
	 SCS Same-Spin Scale       =       0.3333333333333333 [-]
	 SCS Opposite-Spin Scale   =       1.2000000000000000 [-]
	 SCS Same-Spin Energy      =      -0.1972041479800050 [Eh]
	 SCS Opposite-Spin Energy  =      -2.1755623401097348 [Eh]
	 SCS Correlation Energy    =      -2.3727664880897397 [Eh]
	 SCS Total Energy          =    -533.8227014408217883 [Eh]
	-----------------------------------------------------------

  Dipole Moment: [D]
     X:     1.4749      Y:    -1.8174      Z:    -0.0676     Total:     2.3416

*** Psi4 exiting successfully. Buy a developer a beer!
