                               Psi4 1.4a3.dev225

  ==> Input File <==

--------------------------------------------------------------------------
#psi4
#
memory 32 gb

molecule  {
0 1
  N        0.0358730    -0.9798690     0.3249120
  N        1.3785830     0.9084480    -0.0806070
  C       -1.2345860    -0.4058730     0.1373700
  C        1.2874650    -0.4145780     0.1205110
  C       -2.2461331    -1.2388226    -0.2066648
  C       -1.5135820     0.9493270     0.3763290
  C        2.4196470    -1.2564020     0.1639730
  C       -3.5834040    -0.7896780    -0.3581100
  C       -2.8175520     1.4190740     0.2143410
  C       -3.8597110     0.5618000    -0.1426300
  C        3.6734950    -0.6966520    -0.0183070
  C        3.7809840     0.6818220    -0.2348670
  C        2.6094310     1.4280530    -0.2543460
  H        0.0343890    -1.9933920     0.2907710
  H       -2.0721120    -2.3220440    -0.4067350
  H       -0.7127900     1.6203970     0.6554980
  H        2.3062980    -2.3249110     0.3351780
  H       -4.3793760    -1.4759950    -0.6376530
  H       -3.0201620     2.4727340     0.3929930
  H       -4.8713210     0.9418730    -0.2585160
  H        4.5591860    -1.3270150     0.0072260
  H        4.7445120     1.1601010    -0.3803610
  H        2.6378470     2.5042230    -0.4179490
units angstrom
no_reorient  #important for SAPT in psi4, default
symmetry c1  #important for SAPT in psi4, default
}

set PROPERTIES_ORIGIN ["COM"]
properties('MP2/aug-cc-pvtz', properties = ['dipole'])
--------------------------------------------------------------------------

    Molecular point group: c1
  Charge       = 0
  Multiplicity = 1
  Basis Set: AUG-CC-PVTZ
    Blend: AUG-CC-PVTZ
  Basis Set: (AUG-CC-PVTZ AUX)
    Blend: AUG-CC-PVTZ-JKFIT

    Orbital Energies [Eh]
    ---------------------

    Doubly Occupied:

       1A    -15.590269     2A    -15.555808     3A    -11.327513
       4A    -11.279625     5A    -11.276770     6A    -11.263380
       7A    -11.239003     8A    -11.237834     9A    -11.231464
      10A    -11.229882    11A    -11.229678    12A    -11.224528
      13A    -11.222142    14A     -1.296170    15A     -1.223162
      16A     -1.136284    17A     -1.087637    18A     -1.037179
      19A     -1.005785    20A     -0.984607    21A     -0.868928
      22A     -0.861613    23A     -0.825431    24A     -0.802380
      25A     -0.728686    26A     -0.714617    27A     -0.678985
      28A     -0.662157    29A     -0.640699    30A     -0.626918
      31A     -0.603782    32A     -0.596158    33A     -0.584675
      34A     -0.575909    35A     -0.567877    36A     -0.534133
      37A     -0.519862    38A     -0.505491    39A     -0.489880
      40A     -0.459831    41A     -0.418736    42A     -0.385849
      43A     -0.346460    44A     -0.328523    45A     -0.285163

  @DF-RHF Final Energy:  -531.44713767910821

   => Energetics <=

    Nuclear Repulsion Energy =            699.3658082522402992
    One-Electron Energy =               -2107.0429617235236037
    Two-Electron Energy =                 876.2300157921752088
    Total Energy =                       -531.4471376791082093
  Basis Set: (AUG-CC-PVTZ AUX)
    Blend: AUG-CC-PVTZ-RI
    Molecular point group: c1

    Geometry (in Angstrom), charge = 0, multiplicity = 1:

       Center              X                  Y                   Z               Mass
    ------------   -----------------  -----------------  -----------------  -----------------
         N            0.028701284272    -0.986376829122     0.321564365393    14.003074004430
         N            1.371411284272     0.901940170878    -0.083954634607    14.003074004430
         C           -1.241757715728    -0.412380829122     0.134022365393    12.000000000000
         C            1.280293284272    -0.421085829122     0.117163365393    12.000000000000
         C           -2.253304815728    -1.245330429122    -0.210012434607    12.000000000000
         C           -1.520753715728     0.942819170878     0.372981365393    12.000000000000
         C            2.412475284272    -1.262909829122     0.160625365393    12.000000000000
         C           -3.590575715728    -0.796185829122    -0.361457634607    12.000000000000
         C           -2.824723715728     1.412566170878     0.210993365393    12.000000000000
         C           -3.866882715728     0.555292170878    -0.145977634607    12.000000000000
         C            3.666323284272    -0.703159829122    -0.021654634607    12.000000000000
         C            3.773812284272     0.675314170878    -0.238214634607    12.000000000000
         C            2.602259284272     1.421545170878    -0.257693634607    12.000000000000
         H            0.027217284272    -1.999899829122     0.287423365393     1.007825032230
         H           -2.079283715728    -2.328551829122    -0.410082634607     1.007825032230
         H           -0.719961715728     1.613889170878     0.652150365393     1.007825032230
         H            2.299126284272    -2.331418829122     0.331830365393     1.007825032230
         H           -4.386547715728    -1.482502829122    -0.641000634607     1.007825032230
         H           -3.027333715728     2.466226170878     0.389645365393     1.007825032230
         H           -4.878492715728     0.935365170878    -0.261863634607     1.007825032230
         H            4.552014284272    -1.333522829122     0.003878365393     1.007825032230
         H            4.737340284272     1.153593170878    -0.383708634607     1.007825032230
         H            2.630675284272     2.497715170878    -0.421296634607     1.007825032230

  Basis Set: AUG-CC-PVTZ
    Blend: AUG-CC-PVTZ
  Basis Set: (AUG-CC-PVTZ AUX)
    Blend: AUG-CC-PVTZ-JKFIT
	 Reference Energy          =    -531.4471376791082093 [Eh]
	 Singles Energy            =      -0.0000000000000000 [Eh]
	 Same-Spin Energy          =      -0.5920149978640767 [Eh]
	 Opposite-Spin Energy      =      -1.8140245822357786 [Eh]
	 Correlation Energy        =      -2.4060395800998551 [Eh]
	 Total Energy              =    -533.8531772592081097 [Eh]

	 ================> DF-SCS-MP2 Energies <==================
	-----------------------------------------------------------
	 SCS Same-Spin Scale       =       0.3333333333333333 [-]
	 SCS Opposite-Spin Scale   =       1.2000000000000000 [-]
	 SCS Same-Spin Energy      =      -0.1973383326213589 [Eh]
	 SCS Opposite-Spin Energy  =      -2.1768294986829342 [Eh]
	 SCS Correlation Energy    =      -2.3741678313042929 [Eh]
	 SCS Total Energy          =    -533.8213055104124578 [Eh]
	-----------------------------------------------------------

  Dipole Moment: [D]
     X:     1.3735      Y:    -1.8269      Z:    -0.0713     Total:     2.2867

*** Psi4 exiting successfully. Buy a developer a beer!
