                               Psi4 1.3.2 release

  ==> Input File <==

--------------------------------------------------------------------------
#psi4
#
memory 32 gb

molecule  {
0 1
  N        0.0358730    -0.9798690     0.3249120
  N        1.3785830     0.9084480    -0.0806070
  C       -1.0539519    -0.4874838     0.1640348
  C        1.2874650    -0.4145780     0.1205110
  C       -2.2834660    -1.2695640    -0.2193620
  C       -1.5135820     0.9493270     0.3763290
  C        2.4196470    -1.2564020     0.1639730
  C       -3.5834040    -0.7896780    -0.3581100
  C       -2.8175520     1.4190740     0.2143410
  C       -3.8597110     0.5618000    -0.1426300
  C        3.6734950    -0.6966520    -0.0183070
  C        3.7809840     0.6818220    -0.2348670
  C        2.6094310     1.4280530    -0.2543460
  H        0.0343890    -1.9933920     0.2907710
  H       -2.0721120    -2.3220440    -0.4067350
  H       -0.7127900     1.6203970     0.6554980
  H        2.3062980    -2.3249110     0.3351780
  H       -4.3793760    -1.4759950    -0.6376530
  H       -3.0201620     2.4727340     0.3929930
  H       -4.8713210     0.9418730    -0.2585160
  H        4.5591860    -1.3270150     0.0072260
  H        4.7445120     1.1601010    -0.3803610
  H        2.6378470     2.5042230    -0.4179490
units angstrom
no_reorient  #important for SAPT in psi4, default
symmetry c1  #important for SAPT in psi4, default
}

set PROPERTIES_ORIGIN ["COM"]
properties('MP2/aug-cc-pvtz', properties = ['dipole'])
--------------------------------------------------------------------------

    Molecular point group: c1
  Charge       = 0
  Multiplicity = 1
  Basis Set: AUG-CC-PVTZ
    Blend: AUG-CC-PVTZ
  Basis Set: (AUG-CC-PVTZ AUX)
    Blend: AUG-CC-PVTZ-JKFIT

    Orbital Energies [Eh]
    ---------------------

    Doubly Occupied:

       1A    -15.612530     2A    -15.571699     3A    -11.341398
       4A    -11.292075     5A    -11.290567     6A    -11.274804
       7A    -11.254960     8A    -11.244593     9A    -11.227267
      10A    -11.225101    11A    -11.223657    12A    -11.218252
      13A    -11.205790    14A     -1.357374    15A     -1.256726
      16A     -1.110148    17A     -1.100655    18A     -1.054941
      19A     -0.989843    20A     -0.966396    21A     -0.890550
      22A     -0.882907    23A     -0.820777    24A     -0.802200
      25A     -0.742595    26A     -0.732119    27A     -0.690798
      28A     -0.663174    29A     -0.660310    30A     -0.633392
      31A     -0.625318    32A     -0.596232    33A     -0.581552
      34A     -0.573072    35A     -0.557303    36A     -0.545919
      37A     -0.529546    38A     -0.505315    39A     -0.458813
      40A     -0.448202    41A     -0.425369    42A     -0.396863
      43A     -0.352318    44A     -0.322064    45A     -0.256618

  @DF-RHF Final Energy:  -531.38551616153086

   => Energetics <=

    Nuclear Repulsion Energy =            699.3508168059520358
    One-Electron Energy =               -2106.4484635959124716
    Two-Electron Energy =                 875.7121306284295770
    Total Energy =                       -531.3855161615308589
  Basis Set: (AUG-CC-PVTZ AUX)
    Blend: AUG-CC-PVTZ-RI
    Molecular point group: c1

    Geometry (in Angstrom), charge = 0, multiplicity = 1:

       Center              X                  Y                   Z               Mass
    ------------   -----------------  -----------------  -----------------  -----------------
         N            0.018590924845    -0.978450020942     0.320578906399    14.003074004430
         N            1.361300924845     0.909866979058    -0.084940093601    14.003074004430
         C           -1.071233975155    -0.486064820942     0.159701706399    12.000000000000
         C            1.270182924845    -0.413159020942     0.116177906399    12.000000000000
         C           -2.300748075155    -1.268145020942    -0.223695093601    12.000000000000
         C           -1.530864075155     0.950745979058     0.371995906399    12.000000000000
         C            2.402364924845    -1.254983020942     0.159639906399    12.000000000000
         C           -3.600686075155    -0.788259020942    -0.362443093601    12.000000000000
         C           -2.834834075155     1.420492979058     0.210007906399    12.000000000000
         C           -3.876993075155     0.563218979058    -0.146963093601    12.000000000000
         C            3.656212924845    -0.695233020942    -0.022640093601    12.000000000000
         C            3.763701924845     0.683240979058    -0.239200093601    12.000000000000
         C            2.592148924845     1.429471979058    -0.258679093601    12.000000000000
         H            0.017106924845    -1.991973020942     0.286437906399     1.007825032230
         H           -2.089394075155    -2.320625020942    -0.411068093601     1.007825032230
         H           -0.730072075155     1.621815979058     0.651164906399     1.007825032230
         H            2.289015924845    -2.323492020942     0.330844906399     1.007825032230
         H           -4.396658075155    -1.474576020942    -0.641986093601     1.007825032230
         H           -3.037444075155     2.474152979058     0.388659906399     1.007825032230
         H           -4.888603075155     0.943291979058    -0.262849093601     1.007825032230
         H            4.541903924845    -1.325596020942     0.002892906399     1.007825032230
         H            4.727229924845     1.161519979058    -0.384694093601     1.007825032230
         H            2.620564924845     2.505641979058    -0.422282093601     1.007825032230

  Basis Set: AUG-CC-PVTZ
    Blend: AUG-CC-PVTZ
  Basis Set: (AUG-CC-PVTZ AUX)
    Blend: AUG-CC-PVTZ-JKFIT
	 Reference Energy          =    -531.3855161615308589 [Eh]
	 Singles Energy            =      -0.0000000000000000 [Eh]
	 Same-Spin Energy          =      -0.5954098553196183 [Eh]
	 Opposite-Spin Energy      =      -1.8187689763321158 [Eh]
	 Correlation Energy        =      -2.4141788316517339 [Eh]
	 Total Energy              =    -533.7996949931825839 [Eh]

	 ================> DF-SCS-MP2 Energies <==================
	-----------------------------------------------------------
	 SCS Same-Spin Scale       =       0.3333333333333333 [-]
	 SCS Opposite-Spin Scale   =       1.2000000000000000 [-]
	 SCS Same-Spin Energy      =      -0.1984699517732061 [Eh]
	 SCS Opposite-Spin Energy  =      -2.1825227715985389 [Eh]
	 SCS Correlation Energy    =      -2.3809927233717452 [Eh]
	 SCS Total Energy          =    -533.7665088849025778 [Eh]
	-----------------------------------------------------------

  Dipole Moment: [D]
     X:     3.3293      Y:    -2.0804      Z:     0.0502     Total:     3.9262

*** Psi4 exiting successfully. Buy a developer a beer!
