                               Psi4 1.3.2 release

  ==> Input File <==

--------------------------------------------------------------------------
#psi4
#
memory 32 gb

molecule  {
0 1
  N        0.0358730    -0.9798690     0.3249120
  N        1.3785830     0.9084480    -0.0806070
  C       -1.2345860    -0.4058730     0.1373700
  C        1.2409608    -0.4100864     0.1235399
  C       -2.2834660    -1.2695640    -0.2193620
  C       -1.5135820     0.9493270     0.3763290
  C        2.4196470    -1.2564020     0.1639730
  C       -3.5834040    -0.7896780    -0.3581100
  C       -2.8175520     1.4190740     0.2143410
  C       -3.8597110     0.5618000    -0.1426300
  C        3.6734950    -0.6966520    -0.0183070
  C        3.7809840     0.6818220    -0.2348670
  C        2.6094310     1.4280530    -0.2543460
  H        0.0343890    -1.9933920     0.2907710
  H       -2.0721120    -2.3220440    -0.4067350
  H       -0.7127900     1.6203970     0.6554980
  H        2.3062980    -2.3249110     0.3351780
  H       -4.3793760    -1.4759950    -0.6376530
  H       -3.0201620     2.4727340     0.3929930
  H       -4.8713210     0.9418730    -0.2585160
  H        4.5591860    -1.3270150     0.0072260
  H        4.7445120     1.1601010    -0.3803610
  H        2.6378470     2.5042230    -0.4179490
units angstrom
no_reorient  #important for SAPT in psi4, default
symmetry c1  #important for SAPT in psi4, default
}

set PROPERTIES_ORIGIN ["COM"]
properties('MP2/aug-cc-pvtz', properties = ['dipole'])
--------------------------------------------------------------------------

    Molecular point group: c1
  Charge       = 0
  Multiplicity = 1
  Basis Set: AUG-CC-PVTZ
    Blend: AUG-CC-PVTZ
  Basis Set: (AUG-CC-PVTZ AUX)
    Blend: AUG-CC-PVTZ-JKFIT

    Orbital Energies [Eh]
    ---------------------

    Doubly Occupied:

       1A    -15.598065     2A    -15.551413     3A    -11.329791
       4A    -11.285150     5A    -11.277166     6A    -11.259994
       7A    -11.239879     8A    -11.237700     9A    -11.234235
      10A    -11.233934    11A    -11.226455    12A    -11.226147
      13A    -11.223843    14A     -1.304850    15A     -1.223159
      16A     -1.138829    17A     -1.082406    18A     -1.033422
      19A     -1.012276    20A     -0.982133    21A     -0.866727
      22A     -0.864988    23A     -0.826669    24A     -0.801581
      25A     -0.733111    26A     -0.719240    27A     -0.680877
      28A     -0.666573    29A     -0.639406    30A     -0.623420
      31A     -0.603007    32A     -0.596656    33A     -0.587995
      34A     -0.582403    35A     -0.567206    36A     -0.533256
      37A     -0.517844    38A     -0.510071    39A     -0.492054
      40A     -0.464197    41A     -0.410122    42A     -0.383678
      43A     -0.341228    44A     -0.334597    45A     -0.281995

  @DF-RHF Final Energy:  -531.44753085153559

   => Energetics <=

    Nuclear Repulsion Energy =            698.7555248860543315
    One-Electron Energy =               -2105.7466231206358316
    Two-Electron Energy =                 875.5435673830457972
    Total Energy =                       -531.4475308515355891
  Basis Set: (AUG-CC-PVTZ AUX)
    Blend: AUG-CC-PVTZ-RI
    Molecular point group: c1

    Geometry (in Angstrom), charge = 0, multiplicity = 1:

       Center              X                  Y                   Z               Mass
    ------------   -----------------  -----------------  -----------------  -----------------
         N            0.034616260659    -0.984524821512     0.322246494977    14.003074004430
         N            1.377326260659     0.903792178488    -0.083272505023    14.003074004430
         C           -1.235842739341    -0.410528821512     0.134704494977    12.000000000000
         C            1.239704060659    -0.414742221512     0.120874394977    12.000000000000
         C           -2.284722739341    -1.274219821512    -0.222027505023    12.000000000000
         C           -1.514838739341     0.944671178488     0.373663494977    12.000000000000
         C            2.418390260659    -1.261057821512     0.161307494977    12.000000000000
         C           -3.584660739341    -0.794333821512    -0.360775505023    12.000000000000
         C           -2.818808739341     1.414418178488     0.211675494977    12.000000000000
         C           -3.860967739341     0.557144178488    -0.145295505023    12.000000000000
         C            3.672238260659    -0.701307821512    -0.020972505023    12.000000000000
         C            3.779727260659     0.677166178488    -0.237532505023    12.000000000000
         C            2.608174260659     1.423397178488    -0.257011505023    12.000000000000
         H            0.033132260659    -1.998047821512     0.288105494977     1.007825032230
         H           -2.073368739341    -2.326699821512    -0.409400505023     1.007825032230
         H           -0.714046739341     1.615741178488     0.652832494977     1.007825032230
         H            2.305041260659    -2.329566821512     0.332512494977     1.007825032230
         H           -4.380632739341    -1.480650821512    -0.640318505023     1.007825032230
         H           -3.021418739341     2.468078178488     0.390327494977     1.007825032230
         H           -4.872577739341     0.937217178488    -0.261181505023     1.007825032230
         H            4.557929260659    -1.331670821512     0.004560494977     1.007825032230
         H            4.743255260659     1.155445178488    -0.383026505023     1.007825032230
         H            2.636590260659     2.499567178488    -0.420614505023     1.007825032230

  Basis Set: AUG-CC-PVTZ
    Blend: AUG-CC-PVTZ
  Basis Set: (AUG-CC-PVTZ AUX)
    Blend: AUG-CC-PVTZ-JKFIT
	 Reference Energy          =    -531.4475308515355891 [Eh]
	 Singles Energy            =      -0.0000000000000000 [Eh]
	 Same-Spin Energy          =      -0.5919981844152410 [Eh]
	 Opposite-Spin Energy      =      -1.8139478309412682 [Eh]
	 Correlation Energy        =      -2.4059460153565091 [Eh]
	 Total Energy              =    -533.8534768668921515 [Eh]

	 ================> DF-SCS-MP2 Energies <==================
	-----------------------------------------------------------
	 SCS Same-Spin Scale       =       0.3333333333333333 [-]
	 SCS Opposite-Spin Scale   =       1.2000000000000000 [-]
	 SCS Same-Spin Energy      =      -0.1973327281384137 [Eh]
	 SCS Opposite-Spin Energy  =      -2.1767373971295219 [Eh]
	 SCS Correlation Energy    =      -2.3740701252679357 [Eh]
	 SCS Total Energy          =    -533.8216009768035519 [Eh]
	-----------------------------------------------------------

  Dipole Moment: [D]
     X:     0.9703      Y:    -1.9352      Z:    -0.0235     Total:     2.1650

*** Psi4 exiting successfully. Buy a developer a beer!
