                               Psi4 1.3.2 release

  ==> Input File <==

--------------------------------------------------------------------------
#psi4
#
memory 32 gb

molecule  {
0 1
  N        0.0798042    -1.0658626     0.3331138
  N        1.3785830     0.9084480    -0.0806070
  C       -1.2345860    -0.4058730     0.1373700
  C        1.2874650    -0.4145780     0.1205110
  C       -2.2834660    -1.2695640    -0.2193620
  C       -1.5135820     0.9493270     0.3763290
  C        2.4196470    -1.2564020     0.1639730
  C       -3.5834040    -0.7896780    -0.3581100
  C       -2.8175520     1.4190740     0.2143410
  C       -3.8597110     0.5618000    -0.1426300
  C        3.6734950    -0.6966520    -0.0183070
  C        3.7809840     0.6818220    -0.2348670
  C        2.6094310     1.4280530    -0.2543460
  H        0.0343890    -1.9933920     0.2907710
  H       -2.0721120    -2.3220440    -0.4067350
  H       -0.7127900     1.6203970     0.6554980
  H        2.3062980    -2.3249110     0.3351780
  H       -4.3793760    -1.4759950    -0.6376530
  H       -3.0201620     2.4727340     0.3929930
  H       -4.8713210     0.9418730    -0.2585160
  H        4.5591860    -1.3270150     0.0072260
  H        4.7445120     1.1601010    -0.3803610
  H        2.6378470     2.5042230    -0.4179490
units angstrom
no_reorient  #important for SAPT in psi4, default
symmetry c1  #important for SAPT in psi4, default
}

set PROPERTIES_ORIGIN ["COM"]
properties('MP2/aug-cc-pvtz', properties = ['dipole'])
--------------------------------------------------------------------------

    Molecular point group: c1
  Charge       = 0
  Multiplicity = 1
  Basis Set: AUG-CC-PVTZ
    Blend: AUG-CC-PVTZ
  Basis Set: (AUG-CC-PVTZ AUX)
    Blend: AUG-CC-PVTZ-JKFIT

    Orbital Energies [Eh]
    ---------------------

    Doubly Occupied:

       1A    -15.585066     2A    -15.556315     3A    -11.326271
       4A    -11.286802     5A    -11.278935     6A    -11.260580
       7A    -11.236823     8A    -11.235204     9A    -11.234295
      10A    -11.233743    11A    -11.228435    12A    -11.227559
      13A    -11.226034    14A     -1.291095    15A     -1.218588
      16A     -1.138883    17A     -1.085678    18A     -1.030265
      19A     -1.011671    20A     -0.986235    21A     -0.867083
      22A     -0.859783    23A     -0.823614    24A     -0.806511
      25A     -0.736604    26A     -0.711324    27A     -0.680625
      28A     -0.666323    29A     -0.638922    30A     -0.623803
      31A     -0.604467    32A     -0.595148    33A     -0.584284
      34A     -0.579156    35A     -0.564180    36A     -0.533873
      37A     -0.516177    38A     -0.506172    39A     -0.492354
      40A     -0.460941    41A     -0.416216    42A     -0.384632
      43A     -0.341951    44A     -0.334153    45A     -0.287772

  @DF-RHF Final Energy:  -531.43895253595599

   => Energetics <=

    Nuclear Repulsion Energy =            697.2809966057753854
    One-Electron Energy =               -2102.8508154706232745
    Two-Electron Energy =                 874.1308663288920116
    Total Energy =                       -531.4389525359559912
  Basis Set: (AUG-CC-PVTZ AUX)
    Blend: AUG-CC-PVTZ-RI
    Molecular point group: c1

    Geometry (in Angstrom), charge = 0, multiplicity = 1:

       Center              X                  Y                   Z               Mass
    ------------   -----------------  -----------------  -----------------  -----------------
         N            0.071649577866    -1.063121658746     0.329986738167    14.003074004430
         N            1.370428377866     0.911188941254    -0.083734061833    14.003074004430
         C           -1.242740622134    -0.403132058746     0.134242938167    12.000000000000
         C            1.279310377866    -0.411837058746     0.117383938167    12.000000000000
         C           -2.291620622134    -1.266823058746    -0.222489061833    12.000000000000
         C           -1.521736622134     0.952067941254     0.373201938167    12.000000000000
         C            2.411492377866    -1.253661058746     0.160845938167    12.000000000000
         C           -3.591558622134    -0.786937058746    -0.361237061833    12.000000000000
         C           -2.825706622134     1.421814941254     0.211213938167    12.000000000000
         C           -3.867865622134     0.564540941254    -0.145757061833    12.000000000000
         C            3.665340377866    -0.693911058746    -0.021434061833    12.000000000000
         C            3.772829377866     0.684562941254    -0.237994061833    12.000000000000
         C            2.601276377866     1.430793941254    -0.257473061833    12.000000000000
         H            0.026234377866    -1.990651058746     0.287643938167     1.007825032230
         H           -2.080266622134    -2.319303058746    -0.409862061833     1.007825032230
         H           -0.720944622134     1.623137941254     0.652370938167     1.007825032230
         H            2.298143377866    -2.322170058746     0.332050938167     1.007825032230
         H           -4.387530622134    -1.473254058746    -0.640780061833     1.007825032230
         H           -3.028316622134     2.475474941254     0.389865938167     1.007825032230
         H           -4.879475622134     0.944613941254    -0.261643061833     1.007825032230
         H            4.551031377866    -1.324274058746     0.004098938167     1.007825032230
         H            4.736357377866     1.162841941254    -0.383488061833     1.007825032230
         H            2.629692377866     2.506963941254    -0.421076061833     1.007825032230

  Basis Set: AUG-CC-PVTZ
    Blend: AUG-CC-PVTZ
  Basis Set: (AUG-CC-PVTZ AUX)
    Blend: AUG-CC-PVTZ-JKFIT
	 Reference Energy          =    -531.4389525359559912 [Eh]
	 Singles Energy            =      -0.0000000000000000 [Eh]
	 Same-Spin Energy          =      -0.5910326517632462 [Eh]
	 Opposite-Spin Energy      =      -1.8131745399591170 [Eh]
	 Correlation Energy        =      -2.4042071917223633 [Eh]
	 Total Energy              =    -533.8431597276783123 [Eh]

	 ================> DF-SCS-MP2 Energies <==================
	-----------------------------------------------------------
	 SCS Same-Spin Scale       =       0.3333333333333333 [-]
	 SCS Opposite-Spin Scale   =       1.2000000000000000 [-]
	 SCS Same-Spin Energy      =      -0.1970108839210820 [Eh]
	 SCS Opposite-Spin Energy  =      -2.1758094479509404 [Eh]
	 SCS Correlation Energy    =      -2.3728203318720227 [Eh]
	 SCS Total Energy          =    -533.8117728678280400 [Eh]
	-----------------------------------------------------------

  Dipole Moment: [D]
     X:     1.0832      Y:    -1.7458      Z:    -0.1019     Total:     2.0571

*** Psi4 exiting successfully. Buy a developer a beer!
