                               Psi4 1.4a3.dev225

  ==> Input File <==

--------------------------------------------------------------------------
#psi4
#
memory 32 gb

molecule  {
0 1
  N        0.0358730    -0.9798690     0.3249120
  N        1.3785830     0.9084480    -0.0806070
  C       -1.2345860    -0.4058730     0.1373700
  C        1.2888236    -0.3948508     0.1175122
  C       -2.2834660    -1.2695640    -0.2193620
  C       -1.5135820     0.9493270     0.3763290
  C        2.4196470    -1.2564020     0.1639730
  C       -3.5834040    -0.7896780    -0.3581100
  C       -2.8175520     1.4190740     0.2143410
  C       -3.8597110     0.5618000    -0.1426300
  C        3.6734950    -0.6966520    -0.0183070
  C        3.7809840     0.6818220    -0.2348670
  C        2.6094310     1.4280530    -0.2543460
  H        0.0343890    -1.9933920     0.2907710
  H       -2.0721120    -2.3220440    -0.4067350
  H       -0.7127900     1.6203970     0.6554980
  H        2.3062980    -2.3249110     0.3351780
  H       -4.3793760    -1.4759950    -0.6376530
  H       -3.0201620     2.4727340     0.3929930
  H       -4.8713210     0.9418730    -0.2585160
  H        4.5591860    -1.3270150     0.0072260
  H        4.7445120     1.1601010    -0.3803610
  H        2.6378470     2.5042230    -0.4179490
units angstrom
no_reorient  #important for SAPT in psi4, default
symmetry c1  #important for SAPT in psi4, default
}

set PROPERTIES_ORIGIN ["COM"]
properties('MP2/aug-cc-pvtz', properties = ['dipole'])
--------------------------------------------------------------------------

    Molecular point group: c1
  Charge       = 0
  Multiplicity = 1
  Basis Set: AUG-CC-PVTZ
    Blend: AUG-CC-PVTZ
  Basis Set: (AUG-CC-PVTZ AUX)
    Blend: AUG-CC-PVTZ-JKFIT

    Orbital Energies [Eh]
    ---------------------

    Doubly Occupied:

       1A    -15.590651     2A    -15.555962     3A    -11.328150
       4A    -11.281563     5A    -11.280573     6A    -11.263669
       7A    -11.241402     8A    -11.234721     9A    -11.231459
      10A    -11.231421    11A    -11.229653    12A    -11.222663
      13A    -11.220053    14A     -1.297484    15A     -1.224143
      16A     -1.133502    17A     -1.089598    18A     -1.034036
      19A     -1.008968    20A     -0.980664    21A     -0.870429
      22A     -0.861380    23A     -0.824683    24A     -0.801196
      25A     -0.727455    26A     -0.714257    27A     -0.679816
      28A     -0.665599    29A     -0.642537    30A     -0.624029
      31A     -0.599872    32A     -0.596228    33A     -0.584324
      34A     -0.579541    35A     -0.568859    36A     -0.535694
      37A     -0.518385    38A     -0.507275    39A     -0.489059
      40A     -0.459224    41A     -0.419598    42A     -0.388018
      43A     -0.343068    44A     -0.332038    45A     -0.282375

  @DF-RHF Final Energy:  -531.45032170957961

   => Energetics <=

    Nuclear Repulsion Energy =            698.6876049583560189
    One-Electron Energy =               -2105.6853027761762860
    Two-Electron Energy =                 875.5473761082405417
    Total Energy =                       -531.4503217095796117
  Basis Set: (AUG-CC-PVTZ AUX)
    Blend: AUG-CC-PVTZ-RI
    Molecular point group: c1

    Geometry (in Angstrom), charge = 0, multiplicity = 1:

       Center              X                  Y                   Z               Mass
    ------------   -----------------  -----------------  -----------------  -----------------
         N            0.031239386556    -0.985599741974     0.322671768552    14.003074004430
         N            1.373949386556     0.902717258026    -0.082847231448    14.003074004430
         C           -1.239219613444    -0.411603741974     0.135129768552    12.000000000000
         C            1.284189986556    -0.400581541974     0.115271968552    12.000000000000
         C           -2.288099613444    -1.275294741974    -0.221602231448    12.000000000000
         C           -1.518215613444     0.943596258026     0.374088768552    12.000000000000
         C            2.415013386556    -1.262132741974     0.161732768552    12.000000000000
         C           -3.588037613444    -0.795408741974    -0.360350231448    12.000000000000
         C           -2.822185613444     1.413343258026     0.212100768552    12.000000000000
         C           -3.864344613444     0.556069258026    -0.144870231448    12.000000000000
         C            3.668861386556    -0.702382741974    -0.020547231448    12.000000000000
         C            3.776350386556     0.676091258026    -0.237107231448    12.000000000000
         C            2.604797386556     1.422322258026    -0.256586231448    12.000000000000
         H            0.029755386556    -1.999122741974     0.288530768552     1.007825032230
         H           -2.076745613444    -2.327774741974    -0.408975231448     1.007825032230
         H           -0.717423613444     1.614666258026     0.653257768552     1.007825032230
         H            2.301664386556    -2.330641741974     0.332937768552     1.007825032230
         H           -4.384009613444    -1.481725741974    -0.639893231448     1.007825032230
         H           -3.024795613444     2.467003258026     0.390752768552     1.007825032230
         H           -4.875954613444     0.936142258026    -0.260756231448     1.007825032230
         H            4.554552386556    -1.332745741974     0.004985768552     1.007825032230
         H            4.739878386556     1.154370258026    -0.382601231448     1.007825032230
         H            2.633213386556     2.498492258026    -0.420189231448     1.007825032230

  Basis Set: AUG-CC-PVTZ
    Blend: AUG-CC-PVTZ
  Basis Set: (AUG-CC-PVTZ AUX)
    Blend: AUG-CC-PVTZ-JKFIT
	 Reference Energy          =    -531.4503217095796117 [Eh]
	 Singles Energy            =      -0.0000000000000000 [Eh]
	 Same-Spin Energy          =      -0.5917983819615980 [Eh]
	 Opposite-Spin Energy      =      -1.8136096929626959 [Eh]
	 Correlation Energy        =      -2.4054080749242939 [Eh]
	 Total Energy              =    -533.8557297845038647 [Eh]

	 ================> DF-SCS-MP2 Energies <==================
	-----------------------------------------------------------
	 SCS Same-Spin Scale       =       0.3333333333333333 [-]
	 SCS Opposite-Spin Scale   =       1.2000000000000000 [-]
	 SCS Same-Spin Energy      =      -0.1972661273205326 [Eh]
	 SCS Opposite-Spin Energy  =      -2.1763316315552350 [Eh]
	 SCS Correlation Energy    =      -2.3735977588757677 [Eh]
	 SCS Total Energy          =    -533.8239194684554150 [Eh]
	-----------------------------------------------------------

  Dipole Moment: [D]
     X:     1.5680      Y:    -1.8329      Z:    -0.0747     Total:     2.4133

*** Psi4 exiting successfully. Buy a developer a beer!
