                               Psi4 1.4a3.dev225

  ==> Input File <==

--------------------------------------------------------------------------
#psi4
#
memory 32 gb

molecule  {
0 1
  N        0.0358730    -0.9798690     0.3249120
  N        1.3785830     0.9084480    -0.0806070
  C       -1.2345860    -0.4058730     0.1373700
  C        1.2861064    -0.4343052     0.1235098
  C       -2.2834660    -1.2695640    -0.2193620
  C       -1.5135820     0.9493270     0.3763290
  C        2.4196470    -1.2564020     0.1639730
  C       -3.5834040    -0.7896780    -0.3581100
  C       -2.8175520     1.4190740     0.2143410
  C       -3.8597110     0.5618000    -0.1426300
  C        3.6734950    -0.6966520    -0.0183070
  C        3.7809840     0.6818220    -0.2348670
  C        2.6094310     1.4280530    -0.2543460
  H        0.0343890    -1.9933920     0.2907710
  H       -2.0721120    -2.3220440    -0.4067350
  H       -0.7127900     1.6203970     0.6554980
  H        2.3062980    -2.3249110     0.3351780
  H       -4.3793760    -1.4759950    -0.6376530
  H       -3.0201620     2.4727340     0.3929930
  H       -4.8713210     0.9418730    -0.2585160
  H        4.5591860    -1.3270150     0.0072260
  H        4.7445120     1.1601010    -0.3803610
  H        2.6378470     2.5042230    -0.4179490
units angstrom
no_reorient  #important for SAPT in psi4, default
symmetry c1  #important for SAPT in psi4, default
}

set PROPERTIES_ORIGIN ["COM"]
properties('MP2/aug-cc-pvtz', properties = ['dipole'])
--------------------------------------------------------------------------

    Molecular point group: c1
  Charge       = 0
  Multiplicity = 1
  Basis Set: AUG-CC-PVTZ
    Blend: AUG-CC-PVTZ
  Basis Set: (AUG-CC-PVTZ AUX)
    Blend: AUG-CC-PVTZ-JKFIT

    Orbital Energies [Eh]
    ---------------------

    Doubly Occupied:

       1A    -15.593309     2A    -15.556635     3A    -11.327858
       4A    -11.283547     5A    -11.279346     6A    -11.263835
       7A    -11.237829     8A    -11.235698     9A    -11.232248
      10A    -11.231290    11A    -11.229459    12A    -11.223985
      13A    -11.221248    14A     -1.295909    15A     -1.220252
      16A     -1.135607    17A     -1.086682    18A     -1.035810
      19A     -1.010040    20A     -0.981902    21A     -0.868938
      22A     -0.862233    23A     -0.824652    24A     -0.802816
      25A     -0.728832    26A     -0.715600    27A     -0.680205
      28A     -0.663095    29A     -0.641488    30A     -0.624876
      31A     -0.602419    32A     -0.595782    33A     -0.584614
      34A     -0.579846    35A     -0.568863    36A     -0.533130
      37A     -0.517600    38A     -0.508125    39A     -0.489718
      40A     -0.461222    41A     -0.418004    42A     -0.384459
      43A     -0.343915    44A     -0.332843    45A     -0.282230

  @DF-RHF Final Energy:  -531.44885275721902

   => Energetics <=

    Nuclear Repulsion Energy =            698.4687620578245060
    One-Electron Energy =               -2105.2392479952036410
    Two-Electron Energy =                 875.3216331801601200
    Total Energy =                       -531.4488527572190151
  Basis Set: (AUG-CC-PVTZ AUX)
    Blend: AUG-CC-PVTZ-RI
    Molecular point group: c1

    Geometry (in Angstrom), charge = 0, multiplicity = 1:

       Center              X                  Y                   Z               Mass
    ------------   -----------------  -----------------  -----------------  -----------------
         N            0.031431093734    -0.982816107469     0.322248618629    14.003074004430
         N            1.374141093734     0.905500892531    -0.083270381371    14.003074004430
         C           -1.239027906266    -0.408820107469     0.134706618629    12.000000000000
         C            1.281664493734    -0.437252307469     0.120846418629    12.000000000000
         C           -2.287907906266    -1.272511107469    -0.222025381371    12.000000000000
         C           -1.518023906266     0.946379892531     0.373665618629    12.000000000000
         C            2.415205093734    -1.259349107469     0.161309618629    12.000000000000
         C           -3.587845906266    -0.792625107469    -0.360773381371    12.000000000000
         C           -2.821993906266     1.416126892531     0.211677618629    12.000000000000
         C           -3.864152906266     0.558852892531    -0.145293381371    12.000000000000
         C            3.669053093734    -0.699599107469    -0.020970381371    12.000000000000
         C            3.776542093734     0.678874892531    -0.237530381371    12.000000000000
         C            2.604989093734     1.425105892531    -0.257009381371    12.000000000000
         H            0.029947093734    -1.996339107469     0.288107618629     1.007825032230
         H           -2.076553906266    -2.324991107469    -0.409398381371     1.007825032230
         H           -0.717231906266     1.617449892531     0.652834618629     1.007825032230
         H            2.301856093734    -2.327858107469     0.332514618629     1.007825032230
         H           -4.383817906266    -1.478942107469    -0.640316381371     1.007825032230
         H           -3.024603906266     2.469786892531     0.390329618629     1.007825032230
         H           -4.875762906266     0.938925892531    -0.261179381371     1.007825032230
         H            4.554744093734    -1.329962107469     0.004562618629     1.007825032230
         H            4.740070093734     1.157153892531    -0.383024381371     1.007825032230
         H            2.633405093734     2.501275892531    -0.420612381371     1.007825032230

  Basis Set: AUG-CC-PVTZ
    Blend: AUG-CC-PVTZ
  Basis Set: (AUG-CC-PVTZ AUX)
    Blend: AUG-CC-PVTZ-JKFIT
	 Reference Energy          =    -531.4488527572190151 [Eh]
	 Singles Energy            =      -0.0000000000000000 [Eh]
	 Same-Spin Energy          =      -0.5922952974847764 [Eh]
	 Opposite-Spin Energy      =      -1.8143519280180525 [Eh]
	 Correlation Energy        =      -2.4066472255028288 [Eh]
	 Total Energy              =    -533.8554999827218808 [Eh]

	 ================> DF-SCS-MP2 Energies <==================
	-----------------------------------------------------------
	 SCS Same-Spin Scale       =       0.3333333333333333 [-]
	 SCS Opposite-Spin Scale   =       1.2000000000000000 [-]
	 SCS Same-Spin Energy      =      -0.1974317658282588 [Eh]
	 SCS Opposite-Spin Energy  =      -2.1772223136216629 [Eh]
	 SCS Correlation Energy    =      -2.3746540794499218 [Eh]
	 SCS Total Energy          =    -533.8235068366689120 [Eh]
	-----------------------------------------------------------

  Dipole Moment: [D]
     X:     1.3627      Y:    -1.8694      Z:    -0.0580     Total:     2.3141

*** Psi4 exiting successfully. Buy a developer a beer!
