                               Psi4 1.4a3.dev225

  ==> Input File <==

--------------------------------------------------------------------------
#psi4
#
memory 32 gb

molecule  {
0 1
  N        0.0358730    -0.9798690     0.3249120
  N        1.3785830     0.9084480    -0.0806070
  C       -1.2345860    -0.4058730     0.1373700
  C        1.2874650    -0.4145780     0.1205110
  C       -2.2834660    -1.2695640    -0.2193620
  C       -1.5135820     0.9493270     0.3763290
  C        2.4196470    -1.2564020     0.1639730
  C       -3.5834040    -0.7896780    -0.3581100
  C       -2.8175520     1.4190740     0.2143410
  C       -3.8597110     0.5618000    -0.1426300
  C        3.6734950    -0.6966520    -0.0183070
  C        3.7809840     0.6818220    -0.2348670
  C        2.6094310     1.4280530    -0.2543460
  H        0.0343158    -2.0433636     0.2890877
  H       -2.0721120    -2.3220440    -0.4067350
  H       -0.7127900     1.6203970     0.6554980
  H        2.3062980    -2.3249110     0.3351780
  H       -4.3793760    -1.4759950    -0.6376530
  H       -3.0201620     2.4727340     0.3929930
  H       -4.8713210     0.9418730    -0.2585160
  H        4.5591860    -1.3270150     0.0072260
  H        4.7445120     1.1601010    -0.3803610
  H        2.6378470     2.5042230    -0.4179490
units angstrom
no_reorient  #important for SAPT in psi4, default
symmetry c1  #important for SAPT in psi4, default
}

set PROPERTIES_ORIGIN ["COM"]
properties('MP2/aug-cc-pvtz', properties = ['dipole'])
--------------------------------------------------------------------------

    Molecular point group: c1
  Charge       = 0
  Multiplicity = 1
  Basis Set: AUG-CC-PVTZ
    Blend: AUG-CC-PVTZ
  Basis Set: (AUG-CC-PVTZ AUX)
    Blend: AUG-CC-PVTZ-JKFIT

    Orbital Energies [Eh]
    ---------------------

    Doubly Occupied:

       1A    -15.596583     2A    -15.556216     3A    -11.328076
       4A    -11.282675     5A    -11.279866     6A    -11.263583
       7A    -11.239411     8A    -11.235129     9A    -11.231834
      10A    -11.230345    11A    -11.230217    12A    -11.223212
      13A    -11.220665    14A     -1.293888    15A     -1.219651
      16A     -1.133795    17A     -1.087897    18A     -1.034666
      19A     -1.009403    20A     -0.979586    21A     -0.868754
      22A     -0.860951    23A     -0.824324    24A     -0.800142
      25A     -0.726281    26A     -0.710477    27A     -0.679204
      28A     -0.663729    29A     -0.640378    30A     -0.624312
      31A     -0.600627    32A     -0.594177    33A     -0.584193
      34A     -0.578084    35A     -0.568661    36A     -0.534295
      37A     -0.517746    38A     -0.507619    39A     -0.489235
      40A     -0.459870    41A     -0.418791    42A     -0.386006
      43A     -0.343329    44A     -0.332402    45A     -0.281908

  @DF-RHF Final Energy:  -531.44611615544625

   => Energetics <=

    Nuclear Repulsion Energy =            698.2702284868104243
    One-Electron Energy =               -2104.8883097335069579
    Two-Electron Energy =                 875.1719650912501720
    Total Energy =                       -531.4461161554462478
  Basis Set: (AUG-CC-PVTZ AUX)
    Blend: AUG-CC-PVTZ-RI
    Molecular point group: c1

    Geometry (in Angstrom), charge = 0, multiplicity = 1:

       Center              X                  Y                   Z               Mass
    ------------   -----------------  -----------------  -----------------  -----------------
         N            0.031335673888    -0.983911820964     0.322470167885    14.003074004430
         N            1.374045673888     0.904405179036    -0.083048832115    14.003074004430
         C           -1.239123326112    -0.409915820964     0.134928167885    12.000000000000
         C            1.282927673888    -0.418620820964     0.118069167885    12.000000000000
         C           -2.288003326112    -1.273606820964    -0.221803832115    12.000000000000
         C           -1.518119326112     0.945284179036     0.373887167885    12.000000000000
         C            2.415109673888    -1.260444820964     0.161531167885    12.000000000000
         C           -3.587941326112    -0.793720820964    -0.360551832115    12.000000000000
         C           -2.822089326112     1.415031179036     0.211899167885    12.000000000000
         C           -3.864248326112     0.557757179036    -0.145071832115    12.000000000000
         C            3.668957673888    -0.700694820964    -0.020748832115    12.000000000000
         C            3.776446673888     0.677779179036    -0.237308832115    12.000000000000
         C            2.604893673888     1.424010179036    -0.256787832115    12.000000000000
         H            0.029778473888    -2.047406420964     0.286645867885     1.007825032230
         H           -2.076649326112    -2.326086820964    -0.409176832115     1.007825032230
         H           -0.717327326112     1.616354179036     0.653056167885     1.007825032230
         H            2.301760673888    -2.328953820964     0.332736167885     1.007825032230
         H           -4.383913326112    -1.480037820964    -0.640094832115     1.007825032230
         H           -3.024699326112     2.468691179036     0.390551167885     1.007825032230
         H           -4.875858326112     0.937830179036    -0.260957832115     1.007825032230
         H            4.554648673888    -1.331057820964     0.004784167885     1.007825032230
         H            4.739974673888     1.156058179036    -0.382802832115     1.007825032230
         H            2.633309673888     2.500180179036    -0.420390832115     1.007825032230

  Basis Set: AUG-CC-PVTZ
    Blend: AUG-CC-PVTZ
  Basis Set: (AUG-CC-PVTZ AUX)
    Blend: AUG-CC-PVTZ-JKFIT
	 Reference Energy          =    -531.4461161554462478 [Eh]
	 Singles Energy            =      -0.0000000000000000 [Eh]
	 Same-Spin Energy          =      -0.5925098827730253 [Eh]
	 Opposite-Spin Energy      =      -1.8150408854937057 [Eh]
	 Correlation Energy        =      -2.4075507682667308 [Eh]
	 Total Energy              =    -533.8536669237130354 [Eh]

	 ================> DF-SCS-MP2 Energies <==================
	-----------------------------------------------------------
	 SCS Same-Spin Scale       =       0.3333333333333333 [-]
	 SCS Opposite-Spin Scale   =       1.2000000000000000 [-]
	 SCS Same-Spin Energy      =      -0.1975032942576751 [Eh]
	 SCS Opposite-Spin Energy  =      -2.1780490625924469 [Eh]
	 SCS Correlation Energy    =      -2.3755523568501218 [Eh]
	 SCS Total Energy          =    -533.8216685122963554 [Eh]
	-----------------------------------------------------------

  Dipole Moment: [D]
     X:     1.4552      Y:    -1.8872      Z:    -0.0649     Total:     2.3840

*** Psi4 exiting successfully. Buy a developer a beer!
