                               Psi4 1.4a3.dev225

  ==> Input File <==

--------------------------------------------------------------------------
#psi4
#
memory 32 gb

molecule  {
0 1
  N        0.0358730    -0.9798690     0.3249120
  N        1.3785830     0.9084480    -0.0806070
  C       -1.2345860    -0.4058730     0.1373700
  C        1.2874650    -0.4145780     0.1205110
  C       -2.2834660    -1.2695640    -0.2193620
  C       -1.5135820     0.9493270     0.3763290
  C        2.4196470    -1.2564020     0.1639730
  C       -3.5834040    -0.7896780    -0.3581100
  C       -2.8175520     1.4190740     0.2143410
  C       -3.8597110     0.5618000    -0.1426300
  C        3.6734950    -0.6966520    -0.0183070
  C        3.7809840     0.6818220    -0.2348670
  C        2.5637520     1.4087695    -0.2478982
  H        0.0343890    -1.9933920     0.2907710
  H       -2.0721120    -2.3220440    -0.4067350
  H       -0.7127900     1.6203970     0.6554980
  H        2.3062980    -2.3249110     0.3351780
  H       -4.3793760    -1.4759950    -0.6376530
  H       -3.0201620     2.4727340     0.3929930
  H       -4.8713210     0.9418730    -0.2585160
  H        4.5591860    -1.3270150     0.0072260
  H        4.7445120     1.1601010    -0.3803610
  H        2.6378470     2.5042230    -0.4179490
units angstrom
no_reorient  #important for SAPT in psi4, default
symmetry c1  #important for SAPT in psi4, default
}

set PROPERTIES_ORIGIN ["COM"]
properties('MP2/aug-cc-pvtz', properties = ['dipole'])
--------------------------------------------------------------------------

    Molecular point group: c1
  Charge       = 0
  Multiplicity = 1
  Basis Set: AUG-CC-PVTZ
    Blend: AUG-CC-PVTZ
  Basis Set: (AUG-CC-PVTZ AUX)
    Blend: AUG-CC-PVTZ-JKFIT

    Orbital Energies [Eh]
    ---------------------

    Doubly Occupied:

       1A    -15.592711     2A    -15.556073     3A    -11.329343
       4A    -11.283280     5A    -11.281373     6A    -11.262022
       7A    -11.237286     8A    -11.235810     9A    -11.232558
      10A    -11.231022    11A    -11.230993    12A    -11.223835
      13A    -11.221441    14A     -1.302992    15A     -1.231955
      16A     -1.135730    17A     -1.089595    18A     -1.032940
      19A     -1.010156    20A     -0.979044    21A     -0.869702
      22A     -0.862942    23A     -0.825271    24A     -0.803532
      25A     -0.727733    26A     -0.715886    27A     -0.680063
      28A     -0.664533    29A     -0.645315    30A     -0.621831
      31A     -0.598879    32A     -0.596596    33A     -0.586424
      34A     -0.581136    35A     -0.569106    36A     -0.537306
      37A     -0.520201    38A     -0.507933    39A     -0.489702
      40A     -0.460945    41A     -0.416861    42A     -0.392630
      43A     -0.341110    44A     -0.333039    45A     -0.280231

  @DF-RHF Final Energy:  -531.44822653446226

   => Energetics <=

    Nuclear Repulsion Energy =            699.3791141220212921
    One-Electron Energy =               -2106.9965497940570458
    Two-Electron Energy =                 876.1692091375734890
    Total Energy =                       -531.4482265344622647
  Basis Set: (AUG-CC-PVTZ AUX)
    Blend: AUG-CC-PVTZ-RI
    Molecular point group: c1

    Geometry (in Angstrom), charge = 0, multiplicity = 1:

       Center              X                  Y                   Z               Mass
    ------------   -----------------  -----------------  -----------------  -----------------
         N            0.034558040152    -0.982847411927     0.322005280613    14.003074004430
         N            1.377268040152     0.905469588073    -0.083513719387    14.003074004430
         C           -1.235900959848    -0.408851411927     0.134463280613    12.000000000000
         C            1.286150040152    -0.417556411927     0.117604280613    12.000000000000
         C           -2.284780959848    -1.272542411927    -0.222268719387    12.000000000000
         C           -1.514896959848     0.946348588073     0.373422280613    12.000000000000
         C            2.418332040152    -1.259380411927     0.161066280613    12.000000000000
         C           -3.584718959848    -0.792656411927    -0.361016719387    12.000000000000
         C           -2.818866959848     1.416095588073     0.211434280613    12.000000000000
         C           -3.861025959848     0.558821588073    -0.145536719387    12.000000000000
         C            3.672180040152    -0.699630411927    -0.021213719387    12.000000000000
         C            3.779669040152     0.678843588073    -0.237773719387    12.000000000000
         C            2.562437040152     1.405791088073    -0.250804919387    12.000000000000
         H            0.033074040152    -1.996370411927     0.287864280613     1.007825032230
         H           -2.073426959848    -2.325022411927    -0.409641719387     1.007825032230
         H           -0.714104959848     1.617418588073     0.652591280613     1.007825032230
         H            2.304983040152    -2.327889411927     0.332271280613     1.007825032230
         H           -4.380690959848    -1.478973411927    -0.640559719387     1.007825032230
         H           -3.021476959848     2.469755588073     0.390086280613     1.007825032230
         H           -4.872635959848     0.938894588073    -0.261422719387     1.007825032230
         H            4.557871040152    -1.329993411927     0.004319280613     1.007825032230
         H            4.743197040152     1.157122588073    -0.383267719387     1.007825032230
         H            2.636532040152     2.501244588073    -0.420855719387     1.007825032230

  Basis Set: AUG-CC-PVTZ
    Blend: AUG-CC-PVTZ
  Basis Set: (AUG-CC-PVTZ AUX)
    Blend: AUG-CC-PVTZ-JKFIT
	 Reference Energy          =    -531.4482265344622647 [Eh]
	 Singles Energy            =      -0.0000000000000000 [Eh]
	 Same-Spin Energy          =      -0.5918878705479851 [Eh]
	 Opposite-Spin Energy      =      -1.8131557313312390 [Eh]
	 Correlation Energy        =      -2.4050436018792238 [Eh]
	 Total Energy              =    -533.8532701363415072 [Eh]

	 ================> DF-SCS-MP2 Energies <==================
	-----------------------------------------------------------
	 SCS Same-Spin Scale       =       0.3333333333333333 [-]
	 SCS Opposite-Spin Scale   =       1.2000000000000000 [-]
	 SCS Same-Spin Energy      =      -0.1972959568493284 [Eh]
	 SCS Opposite-Spin Energy  =      -2.1757868775974867 [Eh]
	 SCS Correlation Energy    =      -2.3730828344468149 [Eh]
	 SCS Total Energy          =    -533.8213093689090556 [Eh]
	-----------------------------------------------------------

  Dipole Moment: [D]
     X:     1.3740      Y:    -1.8546      Z:    -0.0606     Total:     2.3089

*** Psi4 exiting successfully. Buy a developer a beer!
