                               Psi4 1.4a3.dev225

  ==> Input File <==

--------------------------------------------------------------------------
#psi4
#
memory 32 gb

molecule  {
0 1
  N        0.0358730    -0.9798690     0.3249120
  N        1.3785830     0.9084480    -0.0806070
  C       -1.2165226    -0.4140341     0.1400365
  C        1.2874650    -0.4145780     0.1205110
  C       -2.2834660    -1.2695640    -0.2193620
  C       -1.5135820     0.9493270     0.3763290
  C        2.4196470    -1.2564020     0.1639730
  C       -3.5834040    -0.7896780    -0.3581100
  C       -2.8175520     1.4190740     0.2143410
  C       -3.8597110     0.5618000    -0.1426300
  C        3.6734950    -0.6966520    -0.0183070
  C        3.7809840     0.6818220    -0.2348670
  C        2.6094310     1.4280530    -0.2543460
  H        0.0343890    -1.9933920     0.2907710
  H       -2.0721120    -2.3220440    -0.4067350
  H       -0.7127900     1.6203970     0.6554980
  H        2.3062980    -2.3249110     0.3351780
  H       -4.3793760    -1.4759950    -0.6376530
  H       -3.0201620     2.4727340     0.3929930
  H       -4.8713210     0.9418730    -0.2585160
  H        4.5591860    -1.3270150     0.0072260
  H        4.7445120     1.1601010    -0.3803610
  H        2.6378470     2.5042230    -0.4179490
units angstrom
no_reorient  #important for SAPT in psi4, default
symmetry c1  #important for SAPT in psi4, default
}

set PROPERTIES_ORIGIN ["COM"]
properties('MP2/aug-cc-pvtz', properties = ['dipole'])
--------------------------------------------------------------------------

    Molecular point group: c1
  Charge       = 0
  Multiplicity = 1
  Basis Set: AUG-CC-PVTZ
    Blend: AUG-CC-PVTZ
  Basis Set: (AUG-CC-PVTZ AUX)
    Blend: AUG-CC-PVTZ-JKFIT

    Orbital Energies [Eh]
    ---------------------

    Doubly Occupied:

       1A    -15.593879     2A    -15.557583     3A    -11.329246
       4A    -11.283345     5A    -11.280842     6A    -11.264692
       7A    -11.240890     8A    -11.234452     9A    -11.231568
      10A    -11.231062    11A    -11.230142    12A    -11.222065
      13A    -11.220627    14A     -1.300144    15A     -1.225740
      16A     -1.132151    17A     -1.089159    18A     -1.036305
      19A     -1.007420    20A     -0.980164    21A     -0.870841
      22A     -0.864172    23A     -0.823400    24A     -0.801887
      25A     -0.729524    26A     -0.716637    27A     -0.680698
      28A     -0.664993    29A     -0.643712    30A     -0.624513
      31A     -0.601758    32A     -0.595950    33A     -0.583565
      34A     -0.579757    35A     -0.569546    36A     -0.535413
      37A     -0.518169    38A     -0.508141    39A     -0.486190
      40A     -0.460395    41A     -0.419836    42A     -0.387046
      43A     -0.343732    44A     -0.331393    45A     -0.280529

  @DF-RHF Final Energy:  -531.44923529983555

   => Energetics <=

    Nuclear Repulsion Energy =            698.6071796485103960
    One-Electron Energy =               -2105.4862881445660605
    Two-Electron Energy =                 875.4298731962202282
    Total Energy =                       -531.4492352998355500
  Basis Set: (AUG-CC-PVTZ AUX)
    Blend: AUG-CC-PVTZ-RI
    Molecular point group: c1

    Geometry (in Angstrom), charge = 0, multiplicity = 1:

       Center              X                  Y                   Z               Mass
    ------------   -----------------  -----------------  -----------------  -----------------
         N            0.030060809321    -0.983632132932     0.322272063460    14.003074004430
         N            1.372770809321     0.904684867068    -0.083246936540    14.003074004430
         C           -1.222334790679    -0.417797232932     0.137396563460    12.000000000000
         C            1.281652809321    -0.418341132932     0.117871063460    12.000000000000
         C           -2.289278190679    -1.273327132932    -0.222001936540    12.000000000000
         C           -1.519394190679     0.945563867068     0.373689063460    12.000000000000
         C            2.413834809321    -1.260165132932     0.161333063460    12.000000000000
         C           -3.589216190679    -0.793441132932    -0.360749936540    12.000000000000
         C           -2.823364190679     1.415310867068     0.211701063460    12.000000000000
         C           -3.865523190679     0.558036867068    -0.145269936540    12.000000000000
         C            3.667682809321    -0.700415132932    -0.020946936540    12.000000000000
         C            3.775171809321     0.678058867068    -0.237506936540    12.000000000000
         C            2.603618809321     1.424289867068    -0.256985936540    12.000000000000
         H            0.028576809321    -1.997155132932     0.288131063460     1.007825032230
         H           -2.077924190679    -2.325807132932    -0.409374936540     1.007825032230
         H           -0.718602190679     1.616633867068     0.652858063460     1.007825032230
         H            2.300485809321    -2.328674132932     0.332538063460     1.007825032230
         H           -4.385188190679    -1.479758132932    -0.640292936540     1.007825032230
         H           -3.025974190679     2.468970867068     0.390353063460     1.007825032230
         H           -4.877133190679     0.938109867068    -0.261155936540     1.007825032230
         H            4.553373809321    -1.330778132932     0.004586063460     1.007825032230
         H            4.738699809321     1.156337867068    -0.383000936540     1.007825032230
         H            2.632034809321     2.500459867068    -0.420588936540     1.007825032230

  Basis Set: AUG-CC-PVTZ
    Blend: AUG-CC-PVTZ
  Basis Set: (AUG-CC-PVTZ AUX)
    Blend: AUG-CC-PVTZ-JKFIT
	 Reference Energy          =    -531.4492352998355500 [Eh]
	 Singles Energy            =      -0.0000000000000000 [Eh]
	 Same-Spin Energy          =      -0.5922698314298869 [Eh]
	 Opposite-Spin Energy      =      -1.8142101751503796 [Eh]
	 Correlation Energy        =      -2.4064800065802663 [Eh]
	 Total Energy              =    -533.8557153064158456 [Eh]

	 ================> DF-SCS-MP2 Energies <==================
	-----------------------------------------------------------
	 SCS Same-Spin Scale       =       0.3333333333333333 [-]
	 SCS Opposite-Spin Scale   =       1.2000000000000000 [-]
	 SCS Same-Spin Energy      =      -0.1974232771432956 [Eh]
	 SCS Opposite-Spin Energy  =      -2.1770522101804555 [Eh]
	 SCS Correlation Energy    =      -2.3744754873237510 [Eh]
	 SCS Total Energy          =    -533.8237107871592571 [Eh]
	-----------------------------------------------------------

  Dipole Moment: [D]
     X:     1.6368      Y:    -1.8748      Z:    -0.0559     Total:     2.4894

*** Psi4 exiting successfully. Buy a developer a beer!
