                               Psi4 1.3.2 release

  ==> Input File <==

--------------------------------------------------------------------------
#psi4
#
memory 32 gb

molecule  {
0 1
  N        0.0358730    -0.9798690     0.3249120
  N        1.3785830     0.9084480    -0.0806070
  C       -1.2907371    -0.5344387     0.1820586
  C        1.2874650    -0.4145780     0.1205110
  C       -2.2834660    -1.2695640    -0.2193620
  C       -1.5135820     0.9493270     0.3763290
  C        2.4196470    -1.2564020     0.1639730
  C       -3.5834040    -0.7896780    -0.3581100
  C       -2.8175520     1.4190740     0.2143410
  C       -3.8597110     0.5618000    -0.1426300
  C        3.6734950    -0.6966520    -0.0183070
  C        3.7809840     0.6818220    -0.2348670
  C        2.6094310     1.4280530    -0.2543460
  H        0.0343890    -1.9933920     0.2907710
  H       -2.0721120    -2.3220440    -0.4067350
  H       -0.7127900     1.6203970     0.6554980
  H        2.3062980    -2.3249110     0.3351780
  H       -4.3793760    -1.4759950    -0.6376530
  H       -3.0201620     2.4727340     0.3929930
  H       -4.8713210     0.9418730    -0.2585160
  H        4.5591860    -1.3270150     0.0072260
  H        4.7445120     1.1601010    -0.3803610
  H        2.6378470     2.5042230    -0.4179490
units angstrom
no_reorient  #important for SAPT in psi4, default
symmetry c1  #important for SAPT in psi4, default
}

set PROPERTIES_ORIGIN ["COM"]
properties('MP2/aug-cc-pvtz', properties = ['dipole'])
--------------------------------------------------------------------------

    Molecular point group: c1
  Charge       = 0
  Multiplicity = 1
  Basis Set: AUG-CC-PVTZ
    Blend: AUG-CC-PVTZ
  Basis Set: (AUG-CC-PVTZ AUX)
    Blend: AUG-CC-PVTZ-JKFIT

    Orbital Energies [Eh]
    ---------------------

    Doubly Occupied:

       1A    -15.590779     2A    -15.556684     3A    -11.331654
       4A    -11.281110     5A    -11.280156     6A    -11.264193
       7A    -11.240458     8A    -11.235305     9A    -11.231760
      10A    -11.230743    11A    -11.229045    12A    -11.224717
      13A    -11.218686    14A     -1.295467    15A     -1.223904
      16A     -1.137119    17A     -1.088468    18A     -1.041423
      19A     -1.009256    20A     -0.979388    21A     -0.869031
      22A     -0.864473    23A     -0.824780    24A     -0.800245
      25A     -0.733679    26A     -0.709837    27A     -0.682061
      28A     -0.664521    29A     -0.642979    30A     -0.625185
      31A     -0.607566    32A     -0.590776    33A     -0.583376
      34A     -0.578143    35A     -0.565781    36A     -0.534817
      37A     -0.519892    38A     -0.512080    39A     -0.477249
      40A     -0.459858    41A     -0.420091    42A     -0.386719
      43A     -0.353377    44A     -0.326395    45A     -0.282111

  @DF-RHF Final Energy:  -531.42820198139145

   => Energetics <=

    Nuclear Repulsion Energy =            698.0391567380256674
    One-Electron Energy =               -2104.3240398513125911
    Two-Electron Energy =                 874.8566811318954706
    Total Energy =                       -531.4282019813914530
  Basis Set: (AUG-CC-PVTZ AUX)
    Blend: AUG-CC-PVTZ-RI
    Molecular point group: c1

    Geometry (in Angstrom), charge = 0, multiplicity = 1:

       Center              X                  Y                   Z               Mass
    ------------   -----------------  -----------------  -----------------  -----------------
         N            0.035296880405    -0.975137202097     0.319307269482    14.003074004430
         N            1.378006880405     0.913179797903    -0.086211730518    14.003074004430
         C           -1.291313219595    -0.529706902097     0.176453869482    12.000000000000
         C            1.286888880405    -0.409846202097     0.114906269482    12.000000000000
         C           -2.284042119595    -1.264832202097    -0.224966730518    12.000000000000
         C           -1.514158119595     0.954058797903     0.370724269482    12.000000000000
         C            2.419070880405    -1.251670202097     0.158368269482    12.000000000000
         C           -3.583980119595    -0.784946202097    -0.363714730518    12.000000000000
         C           -2.818128119595     1.423805797903     0.208736269482    12.000000000000
         C           -3.860287119595     0.566531797903    -0.148234730518    12.000000000000
         C            3.672918880405    -0.691920202097    -0.023911730518    12.000000000000
         C            3.780407880405     0.686553797903    -0.240471730518    12.000000000000
         C            2.608854880405     1.432784797903    -0.259950730518    12.000000000000
         H            0.033812880405    -1.988660202097     0.285166269482     1.007825032230
         H           -2.072688119595    -2.317312202097    -0.412339730518     1.007825032230
         H           -0.713366119595     1.625128797903     0.649893269482     1.007825032230
         H            2.305721880405    -2.320179202097     0.329573269482     1.007825032230
         H           -4.379952119595    -1.471263202097    -0.643257730518     1.007825032230
         H           -3.020738119595     2.477465797903     0.387388269482     1.007825032230
         H           -4.871897119595     0.946604797903    -0.264120730518     1.007825032230
         H            4.558609880405    -1.322283202097     0.001621269482     1.007825032230
         H            4.743935880405     1.164832797903    -0.385965730518     1.007825032230
         H            2.637270880405     2.508954797903    -0.423553730518     1.007825032230

  Basis Set: AUG-CC-PVTZ
    Blend: AUG-CC-PVTZ
  Basis Set: (AUG-CC-PVTZ AUX)
    Blend: AUG-CC-PVTZ-JKFIT
	 Reference Energy          =    -531.4282019813914530 [Eh]
	 Singles Energy            =      -0.0000000000000000 [Eh]
	 Same-Spin Energy          =      -0.5917106433664504 [Eh]
	 Opposite-Spin Energy      =      -1.8149743201213768 [Eh]
	 Correlation Energy        =      -2.4066849634878271 [Eh]
	 Total Energy              =    -533.8348869448792584 [Eh]

	 ================> DF-SCS-MP2 Energies <==================
	-----------------------------------------------------------
	 SCS Same-Spin Scale       =       0.3333333333333333 [-]
	 SCS Opposite-Spin Scale   =       1.2000000000000000 [-]
	 SCS Same-Spin Energy      =      -0.1972368811221501 [Eh]
	 SCS Opposite-Spin Energy  =      -2.1779691841456521 [Eh]
	 SCS Correlation Energy    =      -2.3752060652678022 [Eh]
	 SCS Total Energy          =    -533.8034080466592286 [Eh]
	-----------------------------------------------------------

  Dipole Moment: [D]
     X:     1.4831      Y:    -1.8291      Z:    -0.0815     Total:     2.3563

*** Psi4 exiting successfully. Buy a developer a beer!
