                               Psi4 1.3.2 release

  ==> Input File <==

--------------------------------------------------------------------------
#psi4
#
memory 32 gb

molecule  {
0 1
  N       -0.0023210    -1.0655137     0.2958211
  N        1.3785830     0.9084480    -0.0806070
  C       -1.2345860    -0.4058730     0.1373700
  C        1.2874650    -0.4145780     0.1205110
  C       -2.2834660    -1.2695640    -0.2193620
  C       -1.5135820     0.9493270     0.3763290
  C        2.4196470    -1.2564020     0.1639730
  C       -3.5834040    -0.7896780    -0.3581100
  C       -2.8175520     1.4190740     0.2143410
  C       -3.8597110     0.5618000    -0.1426300
  C        3.6734950    -0.6966520    -0.0183070
  C        3.7809840     0.6818220    -0.2348670
  C        2.6094310     1.4280530    -0.2543460
  H        0.0343890    -1.9933920     0.2907710
  H       -2.0721120    -2.3220440    -0.4067350
  H       -0.7127900     1.6203970     0.6554980
  H        2.3062980    -2.3249110     0.3351780
  H       -4.3793760    -1.4759950    -0.6376530
  H       -3.0201620     2.4727340     0.3929930
  H       -4.8713210     0.9418730    -0.2585160
  H        4.5591860    -1.3270150     0.0072260
  H        4.7445120     1.1601010    -0.3803610
  H        2.6378470     2.5042230    -0.4179490
units angstrom
no_reorient  #important for SAPT in psi4, default
symmetry c1  #important for SAPT in psi4, default
}

set PROPERTIES_ORIGIN ["COM"]
properties('MP2/aug-cc-pvtz', properties = ['dipole'])
--------------------------------------------------------------------------

    Molecular point group: c1
  Charge       = 0
  Multiplicity = 1
  Basis Set: AUG-CC-PVTZ
    Blend: AUG-CC-PVTZ
  Basis Set: (AUG-CC-PVTZ AUX)
    Blend: AUG-CC-PVTZ-JKFIT

    Orbital Energies [Eh]
    ---------------------

    Doubly Occupied:

       1A    -15.583521     2A    -15.563008     3A    -11.333013
       4A    -11.282936     5A    -11.280376     6A    -11.265720
       7A    -11.243079     8A    -11.235315     9A    -11.232208
      10A    -11.230760    11A    -11.225470    12A    -11.220516
      13A    -11.220058    14A     -1.289118    15A     -1.226697
      16A     -1.131420    17A     -1.090914    18A     -1.034189
      19A     -1.007144    20A     -0.983375    21A     -0.869991
      22A     -0.859700    23A     -0.823024    24A     -0.807739
      25A     -0.729484    26A     -0.716752    27A     -0.680896
      28A     -0.664017    29A     -0.647597    30A     -0.624795
      31A     -0.600635    32A     -0.596620    33A     -0.580705
      34A     -0.578677    35A     -0.566174    36A     -0.536837
      37A     -0.518767    38A     -0.504878    39A     -0.487651
      40A     -0.456568    41A     -0.420640    42A     -0.388593
      43A     -0.344754    44A     -0.330518    45A     -0.282986

  @DF-RHF Final Energy:  -531.43877563616616

   => Energetics <=

    Nuclear Repulsion Energy =            697.4510415911111068
    One-Electron Energy =               -2103.1839661095027623
    Two-Electron Energy =                 874.2941488822254996
    Total Energy =                       -531.4387756361661559
  Basis Set: (AUG-CC-PVTZ AUX)
    Blend: AUG-CC-PVTZ-RI
    Molecular point group: c1

    Geometry (in Angstrom), charge = 0, multiplicity = 1:

       Center              X                  Y                   Z               Mass
    ------------   -----------------  -----------------  -----------------  -----------------
         N           -0.003714242111    -1.062801483735     0.295764351747    14.003074004430
         N            1.377189757889     0.911160216265    -0.080663748253    14.003074004430
         C           -1.235979242111    -0.403160783735     0.137313251747    12.000000000000
         C            1.286071757889    -0.411865783735     0.120454251747    12.000000000000
         C           -2.284859242111    -1.266851783735    -0.219418748253    12.000000000000
         C           -1.514975242111     0.952039216265     0.376272251747    12.000000000000
         C            2.418253757889    -1.253689783735     0.163916251747    12.000000000000
         C           -3.584797242111    -0.786965783735    -0.358166748253    12.000000000000
         C           -2.818945242111     1.421786216265     0.214284251747    12.000000000000
         C           -3.861104242111     0.564512216265    -0.142686748253    12.000000000000
         C            3.672101757889    -0.693939783735    -0.018363748253    12.000000000000
         C            3.779590757889     0.684534216265    -0.234923748253    12.000000000000
         C            2.608037757889     1.430765216265    -0.254402748253    12.000000000000
         H            0.032995757889    -1.990679783735     0.290714251747     1.007825032230
         H           -2.073505242111    -2.319331783735    -0.406791748253     1.007825032230
         H           -0.714183242111     1.623109216265     0.655441251747     1.007825032230
         H            2.304904757889    -2.322198783735     0.335121251747     1.007825032230
         H           -4.380769242111    -1.473282783735    -0.637709748253     1.007825032230
         H           -3.021555242111     2.475446216265     0.392936251747     1.007825032230
         H           -4.872714242111     0.944585216265    -0.258572748253     1.007825032230
         H            4.557792757889    -1.324302783735     0.007169251747     1.007825032230
         H            4.743118757889     1.162813216265    -0.380417748253     1.007825032230
         H            2.636453757889     2.506935216265    -0.418005748253     1.007825032230

  Basis Set: AUG-CC-PVTZ
    Blend: AUG-CC-PVTZ
  Basis Set: (AUG-CC-PVTZ AUX)
    Blend: AUG-CC-PVTZ-JKFIT
	 Reference Energy          =    -531.4387756361661559 [Eh]
	 Singles Energy            =      -0.0000000000000000 [Eh]
	 Same-Spin Energy          =      -0.5915489044203472 [Eh]
	 Opposite-Spin Energy      =      -1.8135249351141756 [Eh]
	 Correlation Energy        =      -2.4050738395345226 [Eh]
	 Total Energy              =    -533.8438494757007220 [Eh]

	 ================> DF-SCS-MP2 Energies <==================
	-----------------------------------------------------------
	 SCS Same-Spin Scale       =       0.3333333333333333 [-]
	 SCS Opposite-Spin Scale   =       1.2000000000000000 [-]
	 SCS Same-Spin Energy      =      -0.1971829681401157 [Eh]
	 SCS Opposite-Spin Energy  =      -2.1762299221370105 [Eh]
	 SCS Correlation Energy    =      -2.3734128902771263 [Eh]
	 SCS Total Energy          =    -533.8121885264432649 [Eh]
	-----------------------------------------------------------

  Dipole Moment: [D]
     X:     1.9338      Y:    -1.7366      Z:    -0.0547     Total:     2.5996

*** Psi4 exiting successfully. Buy a developer a beer!
