                               Psi4 1.4a3.dev225

  ==> Input File <==

--------------------------------------------------------------------------
#psi4
#
memory 32 gb

molecule  {
0 1
  N        0.0358730    -0.9798690     0.3249120
  N        1.3785830     0.9084480    -0.0806070
  C       -1.2526494    -0.3977119     0.1347035
  C        1.2874650    -0.4145780     0.1205110
  C       -2.2834660    -1.2695640    -0.2193620
  C       -1.5135820     0.9493270     0.3763290
  C        2.4196470    -1.2564020     0.1639730
  C       -3.5834040    -0.7896780    -0.3581100
  C       -2.8175520     1.4190740     0.2143410
  C       -3.8597110     0.5618000    -0.1426300
  C        3.6734950    -0.6966520    -0.0183070
  C        3.7809840     0.6818220    -0.2348670
  C        2.6094310     1.4280530    -0.2543460
  H        0.0343890    -1.9933920     0.2907710
  H       -2.0721120    -2.3220440    -0.4067350
  H       -0.7127900     1.6203970     0.6554980
  H        2.3062980    -2.3249110     0.3351780
  H       -4.3793760    -1.4759950    -0.6376530
  H       -3.0201620     2.4727340     0.3929930
  H       -4.8713210     0.9418730    -0.2585160
  H        4.5591860    -1.3270150     0.0072260
  H        4.7445120     1.1601010    -0.3803610
  H        2.6378470     2.5042230    -0.4179490
units angstrom
no_reorient  #important for SAPT in psi4, default
symmetry c1  #important for SAPT in psi4, default
}

set PROPERTIES_ORIGIN ["COM"]
properties('MP2/aug-cc-pvtz', properties = ['dipole'])
--------------------------------------------------------------------------

    Molecular point group: c1
  Charge       = 0
  Multiplicity = 1
  Basis Set: AUG-CC-PVTZ
    Blend: AUG-CC-PVTZ
  Basis Set: (AUG-CC-PVTZ AUX)
    Blend: AUG-CC-PVTZ-JKFIT

    Orbital Energies [Eh]
    ---------------------

    Doubly Occupied:

       1A    -15.590145     2A    -15.555091     3A    -11.326872
       4A    -11.281857     5A    -11.279093     6A    -11.262852
       7A    -11.238395     8A    -11.235980     9A    -11.232656
      10A    -11.230802    11A    -11.229287    12A    -11.224516
      13A    -11.220659    14A     -1.292873    15A     -1.219118
      16A     -1.136944    17A     -1.087058    18A     -1.033725
      19A     -1.011648    20A     -0.982251    21A     -0.867978
      22A     -0.860083    23A     -0.826015    24A     -0.802219
      25A     -0.726713    26A     -0.713465    27A     -0.679108
      28A     -0.663521    29A     -0.640568    30A     -0.624705
      31A     -0.600789    32A     -0.596445    33A     -0.585197
      34A     -0.578966    35A     -0.568017    36A     -0.533533
      37A     -0.518059    38A     -0.507138    39A     -0.492469
      40A     -0.459863    41A     -0.417960    42A     -0.385233
      43A     -0.343473    44A     -0.333520    45A     -0.283876

  @DF-RHF Final Energy:  -531.44992428376747

   => Energetics <=

    Nuclear Repulsion Energy =            698.5520522083488686
    One-Electron Energy =               -2105.4424803416741270
    Two-Electron Energy =                 875.4405038495577855
    Total Energy =                       -531.4499242837674728
  Basis Set: (AUG-CC-PVTZ AUX)
    Blend: AUG-CC-PVTZ-RI
    Molecular point group: c1

    Geometry (in Angstrom), charge = 0, multiplicity = 1:

       Center              X                  Y                   Z               Mass
    ------------   -----------------  -----------------  -----------------  -----------------
         N            0.032609670970    -0.984783716510     0.322648323720    14.003074004430
         N            1.375319670970     0.903533283490    -0.082870676280    14.003074004430
         C           -1.255912729030    -0.402626616510     0.132439823720    12.000000000000
         C            1.284201670970    -0.419492716510     0.118247323720    12.000000000000
         C           -2.286729329030    -1.274478716510    -0.221625676280    12.000000000000
         C           -1.516845329030     0.944412283490     0.374065323720    12.000000000000
         C            2.416383670970    -1.261316716510     0.161709323720    12.000000000000
         C           -3.586667329030    -0.794592716510    -0.360373676280    12.000000000000
         C           -2.820815329030     1.414159283490     0.212077323720    12.000000000000
         C           -3.862974329030     0.556885283490    -0.144893676280    12.000000000000
         C            3.670231670970    -0.701566716510    -0.020570676280    12.000000000000
         C            3.777720670970     0.676907283490    -0.237130676280    12.000000000000
         C            2.606167670970     1.423138283490    -0.256609676280    12.000000000000
         H            0.031125670970    -1.998306716510     0.288507323720     1.007825032230
         H           -2.075375329030    -2.326958716510    -0.408998676280     1.007825032230
         H           -0.716053329030     1.615482283490     0.653234323720     1.007825032230
         H            2.303034670970    -2.329825716510     0.332914323720     1.007825032230
         H           -4.382639329030    -1.480909716510    -0.639916676280     1.007825032230
         H           -3.023425329030     2.467819283490     0.390729323720     1.007825032230
         H           -4.874584329030     0.936958283490    -0.260779676280     1.007825032230
         H            4.555922670970    -1.331929716510     0.004962323720     1.007825032230
         H            4.741248670970     1.155186283490    -0.382624676280     1.007825032230
         H            2.634583670970     2.499308283490    -0.420212676280     1.007825032230

  Basis Set: AUG-CC-PVTZ
    Blend: AUG-CC-PVTZ
  Basis Set: (AUG-CC-PVTZ AUX)
    Blend: AUG-CC-PVTZ-JKFIT
	 Reference Energy          =    -531.4499242837674728 [Eh]
	 Singles Energy            =      -0.0000000000000000 [Eh]
	 Same-Spin Energy          =      -0.5918708117615186 [Eh]
	 Opposite-Spin Energy      =      -1.8137693730457676 [Eh]
	 Correlation Energy        =      -2.4056401848072859 [Eh]
	 Total Energy              =    -533.8555644685748121 [Eh]

	 ================> DF-SCS-MP2 Energies <==================
	-----------------------------------------------------------
	 SCS Same-Spin Scale       =       0.3333333333333333 [-]
	 SCS Opposite-Spin Scale   =       1.2000000000000000 [-]
	 SCS Same-Spin Energy      =      -0.1972902705871729 [Eh]
	 SCS Opposite-Spin Energy  =      -2.1765232476549210 [Eh]
	 SCS Correlation Energy    =      -2.3738135182420939 [Eh]
	 SCS Total Energy          =    -533.8237378020095321 [Eh]
	-----------------------------------------------------------

  Dipole Moment: [D]
     X:     1.2962      Y:    -1.8309      Z:    -0.0759     Total:     2.2446

*** Psi4 exiting successfully. Buy a developer a beer!
