                               Psi4 1.3.2 release

  ==> Input File <==

--------------------------------------------------------------------------
#psi4
#
memory 32 gb

molecule  {
0 1
  N        0.0358730    -0.9798690     0.3249120
  N        1.3785830     0.9084480    -0.0806070
  C       -1.2345860    -0.4058730     0.1373700
  C        1.2806719    -0.5132139     0.1355050
  C       -2.2834660    -1.2695640    -0.2193620
  C       -1.5135820     0.9493270     0.3763290
  C        2.4196470    -1.2564020     0.1639730
  C       -3.5834040    -0.7896780    -0.3581100
  C       -2.8175520     1.4190740     0.2143410
  C       -3.8597110     0.5618000    -0.1426300
  C        3.6734950    -0.6966520    -0.0183070
  C        3.7809840     0.6818220    -0.2348670
  C        2.6094310     1.4280530    -0.2543460
  H        0.0343890    -1.9933920     0.2907710
  H       -2.0721120    -2.3220440    -0.4067350
  H       -0.7127900     1.6203970     0.6554980
  H        2.3062980    -2.3249110     0.3351780
  H       -4.3793760    -1.4759950    -0.6376530
  H       -3.0201620     2.4727340     0.3929930
  H       -4.8713210     0.9418730    -0.2585160
  H        4.5591860    -1.3270150     0.0072260
  H        4.7445120     1.1601010    -0.3803610
  H        2.6378470     2.5042230    -0.4179490
units angstrom
no_reorient  #important for SAPT in psi4, default
symmetry c1  #important for SAPT in psi4, default
}

set PROPERTIES_ORIGIN ["COM"]
properties('MP2/aug-cc-pvtz', properties = ['dipole'])
--------------------------------------------------------------------------

    Molecular point group: c1
  Charge       = 0
  Multiplicity = 1
  Basis Set: AUG-CC-PVTZ
    Blend: AUG-CC-PVTZ
  Basis Set: (AUG-CC-PVTZ AUX)
    Blend: AUG-CC-PVTZ-JKFIT

    Orbital Energies [Eh]
    ---------------------

    Doubly Occupied:

       1A    -15.597883     2A    -15.557492     3A    -11.326347
       4A    -11.287444     5A    -11.276953     6A    -11.263984
       7A    -11.237564     8A    -11.234356     9A    -11.233776
      10A    -11.230697    11A    -11.226492    12A    -11.226306
      13A    -11.223567    14A     -1.299325    15A     -1.210149
      16A     -1.139558    17A     -1.082180    18A     -1.038787
      19A     -1.012093    20A     -0.984583    21A     -0.871722
      22A     -0.859458    23A     -0.824586    24A     -0.804983
      25A     -0.732381    26A     -0.717942    27A     -0.682077
      28A     -0.660696    29A     -0.637349    30A     -0.625668
      31A     -0.606761    32A     -0.593858    33A     -0.586362
      34A     -0.581333    35A     -0.568891    36A     -0.527305
      37A     -0.515763    38A     -0.509453    39A     -0.490832
      40A     -0.464769    41A     -0.412470    42A     -0.380099
      43A     -0.344696    44A     -0.334305    45A     -0.281771

  @DF-RHF Final Energy:  -531.43488068471731

   => Energetics <=

    Nuclear Repulsion Energy =            698.0866584912783992
    One-Electron Energy =               -2104.4329505987461744
    Two-Electron Energy =                 874.9114114227505752
    Total Energy =                       -531.4348806847173137
  Basis Set: (AUG-CC-PVTZ AUX)
    Blend: AUG-CC-PVTZ-RI
    Molecular point group: c1

    Geometry (in Angstrom), charge = 0, multiplicity = 1:

       Center              X                  Y                   Z               Mass
    ------------   -----------------  -----------------  -----------------  -----------------
         N            0.031814515145    -0.977248845513     0.321402318784    14.003074004430
         N            1.374524515145     0.911068154487    -0.084116681216    14.003074004430
         C           -1.238644484855    -0.403252845513     0.133860318784    12.000000000000
         C            1.276613415145    -0.510593745513     0.131995318784    12.000000000000
         C           -2.287524484855    -1.266943845513    -0.222871681216    12.000000000000
         C           -1.517640484855     0.951947154487     0.372819318784    12.000000000000
         C            2.415588515145    -1.253781845513     0.160463318784    12.000000000000
         C           -3.587462484855    -0.787057845513    -0.361619681216    12.000000000000
         C           -2.821610484855     1.421694154487     0.210831318784    12.000000000000
         C           -3.863769484855     0.564420154487    -0.146139681216    12.000000000000
         C            3.669436515145    -0.694031845513    -0.021816681216    12.000000000000
         C            3.776925515145     0.684442154487    -0.238376681216    12.000000000000
         C            2.605372515145     1.430673154487    -0.257855681216    12.000000000000
         H            0.030330515145    -1.990771845513     0.287261318784     1.007825032230
         H           -2.076170484855    -2.319423845513    -0.410244681216     1.007825032230
         H           -0.716848484855     1.623017154487     0.651988318784     1.007825032230
         H            2.302239515145    -2.322290845513     0.331668318784     1.007825032230
         H           -4.383434484855    -1.473374845513    -0.641162681216     1.007825032230
         H           -3.024220484855     2.475354154487     0.389483318784     1.007825032230
         H           -4.875379484855     0.944493154487    -0.262025681216     1.007825032230
         H            4.555127515145    -1.324394845513     0.003716318784     1.007825032230
         H            4.740453515145     1.162721154487    -0.383870681216     1.007825032230
         H            2.633788515145     2.506843154487    -0.421458681216     1.007825032230

  Basis Set: AUG-CC-PVTZ
    Blend: AUG-CC-PVTZ
  Basis Set: (AUG-CC-PVTZ AUX)
    Blend: AUG-CC-PVTZ-JKFIT
	 Reference Energy          =    -531.4348806847173137 [Eh]
	 Singles Energy            =      -0.0000000000000000 [Eh]
	 Same-Spin Energy          =      -0.5932039408389593 [Eh]
	 Opposite-Spin Energy      =      -1.8164274776702585 [Eh]
	 Correlation Energy        =      -2.4096314185092176 [Eh]
	 Total Energy              =    -533.8445121032265206 [Eh]

	 ================> DF-SCS-MP2 Energies <==================
	-----------------------------------------------------------
	 SCS Same-Spin Scale       =       0.3333333333333333 [-]
	 SCS Opposite-Spin Scale   =       1.2000000000000000 [-]
	 SCS Same-Spin Energy      =      -0.1977346469463198 [Eh]
	 SCS Opposite-Spin Energy  =      -2.1797129732043099 [Eh]
	 SCS Correlation Energy    =      -2.3774476201506296 [Eh]
	 SCS Total Energy          =    -533.8123283048679468 [Eh]
	-----------------------------------------------------------

  Dipole Moment: [D]
     X:     0.9643      Y:    -1.9097      Z:    -0.0307     Total:     2.1396

*** Psi4 exiting successfully. Buy a developer a beer!
