                               Psi4 1.3.2 release

  ==> Input File <==

--------------------------------------------------------------------------
#psi4
#
memory 32 gb

molecule  {
0 1
  N        0.0358730    -0.9798690     0.3249120
  N        1.3785830     0.9084480    -0.0806070
  C       -1.2705582    -0.4967958     0.1284752
  C        1.2874650    -0.4145780     0.1205110
  C       -2.2834660    -1.2695640    -0.2193620
  C       -1.5135820     0.9493270     0.3763290
  C        2.4196470    -1.2564020     0.1639730
  C       -3.5834040    -0.7896780    -0.3581100
  C       -2.8175520     1.4190740     0.2143410
  C       -3.8597110     0.5618000    -0.1426300
  C        3.6734950    -0.6966520    -0.0183070
  C        3.7809840     0.6818220    -0.2348670
  C        2.6094310     1.4280530    -0.2543460
  H        0.0343890    -1.9933920     0.2907710
  H       -2.0721120    -2.3220440    -0.4067350
  H       -0.7127900     1.6203970     0.6554980
  H        2.3062980    -2.3249110     0.3351780
  H       -4.3793760    -1.4759950    -0.6376530
  H       -3.0201620     2.4727340     0.3929930
  H       -4.8713210     0.9418730    -0.2585160
  H        4.5591860    -1.3270150     0.0072260
  H        4.7445120     1.1601010    -0.3803610
  H        2.6378470     2.5042230    -0.4179490
units angstrom
no_reorient  #important for SAPT in psi4, default
symmetry c1  #important for SAPT in psi4, default
}

set PROPERTIES_ORIGIN ["COM"]
properties('MP2/aug-cc-pvtz', properties = ['dipole'])
--------------------------------------------------------------------------

    Molecular point group: c1
  Charge       = 0
  Multiplicity = 1
  Basis Set: AUG-CC-PVTZ
    Blend: AUG-CC-PVTZ
  Basis Set: (AUG-CC-PVTZ AUX)
    Blend: AUG-CC-PVTZ-JKFIT

    Orbital Energies [Eh]
    ---------------------

    Doubly Occupied:

       1A    -15.591226     2A    -15.556767     3A    -11.330368
       4A    -11.281090     5A    -11.280209     6A    -11.264163
       7A    -11.240326     8A    -11.235293     9A    -11.230833
      10A    -11.230139    11A    -11.228801    12A    -11.224120
      13A    -11.221055    14A     -1.295959    15A     -1.223624
      16A     -1.136271    17A     -1.088479    18A     -1.039518
      19A     -1.008668    20A     -0.980351    21A     -0.869243
      22A     -0.863653    23A     -0.823932    24A     -0.801726
      25A     -0.731997    26A     -0.711362    27A     -0.681519
      28A     -0.664016    29A     -0.642710    30A     -0.625277
      31A     -0.606115    32A     -0.591169    33A     -0.584221
      34A     -0.578694    35A     -0.567173    36A     -0.534817
      37A     -0.519579    38A     -0.510248    39A     -0.481806
      40A     -0.460213    41A     -0.419987    42A     -0.386603
      43A     -0.350510    44A     -0.327934    45A     -0.282524

  @DF-RHF Final Energy:  -531.43813803195508

   => Energetics <=

    Nuclear Repulsion Energy =            698.2745259696625908
    One-Electron Energy =               -2104.8167548008245831
    Two-Electron Energy =                 875.1040907992069151
    Total Energy =                       -531.4381380319550772
  Basis Set: (AUG-CC-PVTZ AUX)
    Blend: AUG-CC-PVTZ-RI
    Molecular point group: c1

    Geometry (in Angstrom), charge = 0, multiplicity = 1:

       Center              X                  Y                   Z               Mass
    ------------   -----------------  -----------------  -----------------  -----------------
         N            0.033873194268    -0.977793029465     0.323087750268    14.003074004430
         N            1.376583194268     0.910523970535    -0.082431249732    14.003074004430
         C           -1.272558005732    -0.494719829465     0.126650950268    12.000000000000
         C            1.285465194268    -0.412502029465     0.118686750268    12.000000000000
         C           -2.285465805732    -1.267488029465    -0.221186249732    12.000000000000
         C           -1.515581805732     0.951402970535     0.374504750268    12.000000000000
         C            2.417647194268    -1.254326029465     0.162148750268    12.000000000000
         C           -3.585403805732    -0.787602029465    -0.359934249732    12.000000000000
         C           -2.819551805732     1.421149970535     0.212516750268    12.000000000000
         C           -3.861710805732     0.563875970535    -0.144454249732    12.000000000000
         C            3.671495194268    -0.694576029465    -0.020131249732    12.000000000000
         C            3.778984194268     0.683897970535    -0.236691249732    12.000000000000
         C            2.607431194268     1.430128970535    -0.256170249732    12.000000000000
         H            0.032389194268    -1.991316029465     0.288946750268     1.007825032230
         H           -2.074111805732    -2.319968029465    -0.408559249732     1.007825032230
         H           -0.714789805732     1.622472970535     0.653673750268     1.007825032230
         H            2.304298194268    -2.322835029465     0.333353750268     1.007825032230
         H           -4.381375805732    -1.473919029465    -0.639477249732     1.007825032230
         H           -3.022161805732     2.474809970535     0.391168750268     1.007825032230
         H           -4.873320805732     0.943948970535    -0.260340249732     1.007825032230
         H            4.557186194268    -1.324939029465     0.005401750268     1.007825032230
         H            4.742512194268     1.162176970535    -0.382185249732     1.007825032230
         H            2.635847194268     2.506298970535    -0.419773249732     1.007825032230

  Basis Set: AUG-CC-PVTZ
    Blend: AUG-CC-PVTZ
  Basis Set: (AUG-CC-PVTZ AUX)
    Blend: AUG-CC-PVTZ-JKFIT
	 Reference Energy          =    -531.4381380319550772 [Eh]
	 Singles Energy            =      -0.0000000000000000 [Eh]
	 Same-Spin Energy          =      -0.5917465756745752 [Eh]
	 Opposite-Spin Energy      =      -1.8143735535761383 [Eh]
	 Correlation Energy        =      -2.4061201292507137 [Eh]
	 Total Energy              =    -533.8442581612057438 [Eh]

	 ================> DF-SCS-MP2 Energies <==================
	-----------------------------------------------------------
	 SCS Same-Spin Scale       =       0.3333333333333333 [-]
	 SCS Opposite-Spin Scale   =       1.2000000000000000 [-]
	 SCS Same-Spin Energy      =      -0.1972488585581917 [Eh]
	 SCS Opposite-Spin Energy  =      -2.1772482642913658 [Eh]
	 SCS Correlation Energy    =      -2.3744971228495575 [Eh]
	 SCS Total Energy          =    -533.8126351548046387 [Eh]
	-----------------------------------------------------------

  Dipole Moment: [D]
     X:     1.4963      Y:    -1.8357      Z:    -0.0860     Total:     2.3699

*** Psi4 exiting successfully. Buy a developer a beer!
