                               Psi4 1.3.2 release

  ==> Input File <==

--------------------------------------------------------------------------
#psi4
#
memory 32 gb

molecule  {
0 1
  N        0.0358730    -0.9798690     0.3249120
  N        1.3785830     0.9084480    -0.0806070
  C       -1.2238553    -0.3850197     0.1301087
  C        1.2874650    -0.4145780     0.1205110
  C       -2.2834660    -1.2695640    -0.2193620
  C       -1.5135820     0.9493270     0.3763290
  C        2.4196470    -1.2564020     0.1639730
  C       -3.5834040    -0.7896780    -0.3581100
  C       -2.8175520     1.4190740     0.2143410
  C       -3.8597110     0.5618000    -0.1426300
  C        3.6734950    -0.6966520    -0.0183070
  C        3.7809840     0.6818220    -0.2348670
  C        2.6094310     1.4280530    -0.2543460
  H        0.0343890    -1.9933920     0.2907710
  H       -2.0721120    -2.3220440    -0.4067350
  H       -0.7127900     1.6203970     0.6554980
  H        2.3062980    -2.3249110     0.3351780
  H       -4.3793760    -1.4759950    -0.6376530
  H       -3.0201620     2.4727340     0.3929930
  H       -4.8713210     0.9418730    -0.2585160
  H        4.5591860    -1.3270150     0.0072260
  H        4.7445120     1.1601010    -0.3803610
  H        2.6378470     2.5042230    -0.4179490
units angstrom
no_reorient  #important for SAPT in psi4, default
symmetry c1  #important for SAPT in psi4, default
}

set PROPERTIES_ORIGIN ["COM"]
properties('MP2/aug-cc-pvtz', properties = ['dipole'])
--------------------------------------------------------------------------

    Molecular point group: c1
  Charge       = 0
  Multiplicity = 1
  Basis Set: AUG-CC-PVTZ
    Blend: AUG-CC-PVTZ
  Basis Set: (AUG-CC-PVTZ AUX)
    Blend: AUG-CC-PVTZ-JKFIT

    Orbital Energies [Eh]
    ---------------------

    Doubly Occupied:

       1A    -15.592213     2A    -15.556243     3A    -11.327474
       4A    -11.282560     5A    -11.279917     6A    -11.263675
       7A    -11.239458     8A    -11.235180     9A    -11.232311
      10A    -11.232215    11A    -11.230336    12A    -11.223325
      13A    -11.218677    14A     -1.296491    15A     -1.222119
      16A     -1.134381    17A     -1.088021    18A     -1.034276
      19A     -1.010198    20A     -0.980930    21A     -0.869424
      22A     -0.861666    23A     -0.825461    24A     -0.801217
      25A     -0.727327    26A     -0.715746    27A     -0.679742
      28A     -0.664650    29A     -0.642020    30A     -0.624224
      31A     -0.600201    32A     -0.597835    33A     -0.583609
      34A     -0.579528    35A     -0.568879    36A     -0.534389
      37A     -0.517850    38A     -0.507814    39A     -0.489035
      40A     -0.460171    41A     -0.418654    42A     -0.386035
      43A     -0.343018    44A     -0.332869    45A     -0.282343

  @DF-RHF Final Energy:  -531.44934182047905

   => Energetics <=

    Nuclear Repulsion Energy =            698.6636286626794572
    One-Electron Energy =               -2105.6385246960785480
    Two-Electron Energy =                 875.5255542129200421
    Total Energy =                       -531.4493418204790487
  Basis Set: (AUG-CC-PVTZ AUX)
    Blend: AUG-CC-PVTZ-RI
    Molecular point group: c1

    Geometry (in Angstrom), charge = 0, multiplicity = 1:

       Center              X                  Y                   Z               Mass
    ------------   -----------------  -----------------  -----------------  -----------------
         N            0.030578154832    -0.985679191942     0.322972501602    14.003074004430
         N            1.373288154832     0.902637808058    -0.082546498398    14.003074004430
         C           -1.229150145168    -0.390829891942     0.128169201602    12.000000000000
         C            1.282170154832    -0.420388191942     0.118571501602    12.000000000000
         C           -2.288760845168    -1.275374191942    -0.221301498398    12.000000000000
         C           -1.518876845168     0.943516808058     0.374389501602    12.000000000000
         C            2.414352154832    -1.262212191942     0.162033501602    12.000000000000
         C           -3.588698845168    -0.795488191942    -0.360049498398    12.000000000000
         C           -2.822846845168     1.413263808058     0.212401501602    12.000000000000
         C           -3.865005845168     0.555989808058    -0.144569498398    12.000000000000
         C            3.668200154832    -0.702462191942    -0.020246498398    12.000000000000
         C            3.775689154832     0.676011808058    -0.236806498398    12.000000000000
         C            2.604136154832     1.422242808058    -0.256285498398    12.000000000000
         H            0.029094154832    -1.999202191942     0.288831501602     1.007825032230
         H           -2.077406845168    -2.327854191942    -0.408674498398     1.007825032230
         H           -0.718084845168     1.614586808058     0.653558501602     1.007825032230
         H            2.301003154832    -2.330721191942     0.333238501602     1.007825032230
         H           -4.384670845168    -1.481805191942    -0.639592498398     1.007825032230
         H           -3.025456845168     2.466923808058     0.391053501602     1.007825032230
         H           -4.876615845168     0.936062808058    -0.260455498398     1.007825032230
         H            4.553891154832    -1.332825191942     0.005286501602     1.007825032230
         H            4.739217154832     1.154290808058    -0.382300498398     1.007825032230
         H            2.632552154832     2.498412808058    -0.419888498398     1.007825032230

  Basis Set: AUG-CC-PVTZ
    Blend: AUG-CC-PVTZ
  Basis Set: (AUG-CC-PVTZ AUX)
    Blend: AUG-CC-PVTZ-JKFIT
	 Reference Energy          =    -531.4493418204790487 [Eh]
	 Singles Energy            =      -0.0000000000000000 [Eh]
	 Same-Spin Energy          =      -0.5920557637769448 [Eh]
	 Opposite-Spin Energy      =      -1.8140245158340891 [Eh]
	 Correlation Energy        =      -2.4060802796110341 [Eh]
	 Total Energy              =    -533.8554221000900952 [Eh]

	 ================> DF-SCS-MP2 Energies <==================
	-----------------------------------------------------------
	 SCS Same-Spin Scale       =       0.3333333333333333 [-]
	 SCS Opposite-Spin Scale   =       1.2000000000000000 [-]
	 SCS Same-Spin Energy      =      -0.1973519212589816 [Eh]
	 SCS Opposite-Spin Energy  =      -2.1768294190009070 [Eh]
	 SCS Correlation Energy    =      -2.3741813402598888 [Eh]
	 SCS Total Energy          =    -533.8235231607388869 [Eh]
	-----------------------------------------------------------

  Dipole Moment: [D]
     X:     1.4587      Y:    -1.8561      Z:    -0.0639     Total:     2.3616

*** Psi4 exiting successfully. Buy a developer a beer!
