                               Psi4 1.3.2 release

  ==> Input File <==

--------------------------------------------------------------------------
#psi4
#
memory 32 gb

molecule  {
0 1
  N        0.0358730    -0.9798690     0.3249120
  N        1.3785830     0.9084480    -0.0806070
  C       -1.4152201    -0.3242622     0.1107052
  C        1.2874650    -0.4145780     0.1205110
  C       -2.2834660    -1.2695640    -0.2193620
  C       -1.5135820     0.9493270     0.3763290
  C        2.4196470    -1.2564020     0.1639730
  C       -3.5834040    -0.7896780    -0.3581100
  C       -2.8175520     1.4190740     0.2143410
  C       -3.8597110     0.5618000    -0.1426300
  C        3.6734950    -0.6966520    -0.0183070
  C        3.7809840     0.6818220    -0.2348670
  C        2.6094310     1.4280530    -0.2543460
  H        0.0343890    -1.9933920     0.2907710
  H       -2.0721120    -2.3220440    -0.4067350
  H       -0.7127900     1.6203970     0.6554980
  H        2.3062980    -2.3249110     0.3351780
  H       -4.3793760    -1.4759950    -0.6376530
  H       -3.0201620     2.4727340     0.3929930
  H       -4.8713210     0.9418730    -0.2585160
  H        4.5591860    -1.3270150     0.0072260
  H        4.7445120     1.1601010    -0.3803610
  H        2.6378470     2.5042230    -0.4179490
units angstrom
no_reorient  #important for SAPT in psi4, default
symmetry c1  #important for SAPT in psi4, default
}

set PROPERTIES_ORIGIN ["COM"]
properties('MP2/aug-cc-pvtz', properties = ['dipole'])
--------------------------------------------------------------------------

    Molecular point group: c1
  Charge       = 0
  Multiplicity = 1
  Basis Set: AUG-CC-PVTZ
    Blend: AUG-CC-PVTZ
  Basis Set: (AUG-CC-PVTZ AUX)
    Blend: AUG-CC-PVTZ-JKFIT

    Orbital Energies [Eh]
    ---------------------

    Doubly Occupied:

       1A    -15.570942     2A    -15.544908     3A    -11.315926
       4A    -11.281070     5A    -11.271754     6A    -11.254951
       7A    -11.243977     8A    -11.241130     9A    -11.234703
      10A    -11.233222    11A    -11.228033    12A    -11.221513
      13A    -11.220017    14A     -1.271311    15A     -1.201914
      16A     -1.152360    17A     -1.078286    18A     -1.035061
      19A     -1.028663    20A     -0.984348    21A     -0.859211
      22A     -0.849137    23A     -0.834014    24A     -0.805313
      25A     -0.718683    26A     -0.707787    27A     -0.668545
      28A     -0.656393    29A     -0.640881    30A     -0.633152
      31A     -0.608915    32A     -0.591064    33A     -0.581770
      34A     -0.567456    35A     -0.558710    36A     -0.528027
      37A     -0.525482    38A     -0.514318    39A     -0.490829
      40A     -0.449087    41A     -0.408713    42A     -0.377547
      43A     -0.349564    44A     -0.344811    45A     -0.287977

  @DF-RHF Final Energy:  -531.40952452105466

   => Energetics <=

    Nuclear Repulsion Energy =            698.6471199243972023
    One-Electron Energy =               -2105.7703438434346026
    Two-Electron Energy =                 875.7136993979827366
    Total Energy =                       -531.4095245210546636
  Basis Set: (AUG-CC-PVTZ AUX)
    Blend: AUG-CC-PVTZ-RI
    Molecular point group: c1

    Geometry (in Angstrom), charge = 0, multiplicity = 1:

       Center              X                  Y                   Z               Mass
    ------------   -----------------  -----------------  -----------------  -----------------
         N            0.044079555446    -0.989965828501     0.324341480781    14.003074004430
         N            1.386789555446     0.898351171499    -0.081177519219    14.003074004430
         C           -1.407013544554    -0.334359028501     0.110134680781    12.000000000000
         C            1.295671555446    -0.424674828501     0.119940480781    12.000000000000
         C           -2.275259444554    -1.279660828501    -0.219932519219    12.000000000000
         C           -1.505375444554     0.939230171499     0.375758480781    12.000000000000
         C            2.427853555446    -1.266498828501     0.163402480781    12.000000000000
         C           -3.575197444554    -0.799774828501    -0.358680519219    12.000000000000
         C           -2.809345444554     1.408977171499     0.213770480781    12.000000000000
         C           -3.851504444554     0.551703171499    -0.143200519219    12.000000000000
         C            3.681701555446    -0.706748828501    -0.018877519219    12.000000000000
         C            3.789190555446     0.671725171499    -0.235437519219    12.000000000000
         C            2.617637555446     1.417956171499    -0.254916519219    12.000000000000
         H            0.042595555446    -2.003488828501     0.290200480781     1.007825032230
         H           -2.063905444554    -2.332140828501    -0.407305519219     1.007825032230
         H           -0.704583444554     1.610300171499     0.654927480781     1.007825032230
         H            2.314504555446    -2.335007828501     0.334607480781     1.007825032230
         H           -4.371169444554    -1.486091828501    -0.638223519219     1.007825032230
         H           -3.011955444554     2.462637171499     0.392422480781     1.007825032230
         H           -4.863114444554     0.931776171499    -0.259086519219     1.007825032230
         H            4.567392555446    -1.337111828501     0.006655480781     1.007825032230
         H            4.752718555446     1.150004171499    -0.380931519219     1.007825032230
         H            2.646053555446     2.494126171499    -0.418519519219     1.007825032230

  Basis Set: AUG-CC-PVTZ
    Blend: AUG-CC-PVTZ
  Basis Set: (AUG-CC-PVTZ AUX)
    Blend: AUG-CC-PVTZ-JKFIT
	 Reference Energy          =    -531.4095245210546636 [Eh]
	 Singles Energy            =      -0.0000000000000000 [Eh]
	 Same-Spin Energy          =      -0.5919710747690679 [Eh]
	 Opposite-Spin Energy      =      -1.8149655271997860 [Eh]
	 Correlation Energy        =      -2.4069366019688538 [Eh]
	 Total Energy              =    -533.8164611230234868 [Eh]

	 ================> DF-SCS-MP2 Energies <==================
	-----------------------------------------------------------
	 SCS Same-Spin Scale       =       0.3333333333333333 [-]
	 SCS Opposite-Spin Scale   =       1.2000000000000000 [-]
	 SCS Same-Spin Energy      =      -0.1973236915896893 [Eh]
	 SCS Opposite-Spin Energy  =      -2.1779586326397431 [Eh]
	 SCS Correlation Energy    =      -2.3752823242294325 [Eh]
	 SCS Total Energy          =    -533.7848068452841517 [Eh]
	-----------------------------------------------------------

  Dipole Moment: [D]
     X:    -0.1390      Y:    -1.6340      Z:    -0.1543     Total:     1.6472

*** Psi4 exiting successfully. Buy a developer a beer!
