                               Psi4 1.4a3.dev225

  ==> Input File <==

--------------------------------------------------------------------------
#psi4
#
memory 32 gb

molecule  {
0 1
  N        0.0358730    -0.9798690     0.3249120
  N        1.3785830     0.9084480    -0.0806070
  C       -1.2345860    -0.4058730     0.1373700
  C        1.2908616    -0.3652601     0.1130140
  C       -2.2834660    -1.2695640    -0.2193620
  C       -1.5135820     0.9493270     0.3763290
  C        2.4196470    -1.2564020     0.1639730
  C       -3.5834040    -0.7896780    -0.3581100
  C       -2.8175520     1.4190740     0.2143410
  C       -3.8597110     0.5618000    -0.1426300
  C        3.6734950    -0.6966520    -0.0183070
  C        3.7809840     0.6818220    -0.2348670
  C        2.6094310     1.4280530    -0.2543460
  H        0.0343890    -1.9933920     0.2907710
  H       -2.0721120    -2.3220440    -0.4067350
  H       -0.7127900     1.6203970     0.6554980
  H        2.3062980    -2.3249110     0.3351780
  H       -4.3793760    -1.4759950    -0.6376530
  H       -3.0201620     2.4727340     0.3929930
  H       -4.8713210     0.9418730    -0.2585160
  H        4.5591860    -1.3270150     0.0072260
  H        4.7445120     1.1601010    -0.3803610
  H        2.6378470     2.5042230    -0.4179490
units angstrom
no_reorient  #important for SAPT in psi4, default
symmetry c1  #important for SAPT in psi4, default
}

set PROPERTIES_ORIGIN ["COM"]
properties('MP2/aug-cc-pvtz', properties = ['dipole'])
--------------------------------------------------------------------------

    Molecular point group: c1
  Charge       = 0
  Multiplicity = 1
  Basis Set: AUG-CC-PVTZ
    Blend: AUG-CC-PVTZ
  Basis Set: (AUG-CC-PVTZ AUX)
    Blend: AUG-CC-PVTZ-JKFIT

    Orbital Energies [Eh]
    ---------------------

    Doubly Occupied:

       1A    -15.588476     2A    -15.555368     3A    -11.328094
       4A    -11.281526     5A    -11.280061     6A    -11.263497
       7A    -11.244021     8A    -11.233973     9A    -11.233058
      10A    -11.230862    11A    -11.228386    12A    -11.221648
      13A    -11.219148    14A     -1.300793    15A     -1.225992
      16A     -1.131872    17A     -1.092000    18A     -1.032635
      19A     -1.008148    20A     -0.979757    21A     -0.872842
      22A     -0.859625    23A     -0.824587    24A     -0.799893
      25A     -0.726676    26A     -0.713192    27A     -0.680071
      28A     -0.667360    29A     -0.643037    30A     -0.623214
      31A     -0.598025    32A     -0.596356    33A     -0.584589
      34A     -0.579408    35A     -0.568919    36A     -0.537347
      37A     -0.518855    38A     -0.506610    39A     -0.488539
      40A     -0.457647    41A     -0.420250    42A     -0.391236
      43A     -0.342294    44A     -0.331412    45A     -0.282414

  @DF-RHF Final Energy:  -531.44863399260817

   => Energetics <=

    Nuclear Repulsion Energy =            698.8674823818685127
    One-Electron Energy =               -2106.0448114036703373
    Two-Electron Energy =                 875.7286950291936591
    Total Energy =                       -531.4486339926081655
  Basis Set: (AUG-CC-PVTZ AUX)
    Blend: AUG-CC-PVTZ-RI
    Molecular point group: c1

    Geometry (in Angstrom), charge = 0, multiplicity = 1:

       Center              X                  Y                   Z               Mass
    ------------   -----------------  -----------------  -----------------  -----------------
         N            0.031095599118    -0.987687460798     0.322989130994    14.003074004430
         N            1.373805599118     0.900629539202    -0.082529869006    14.003074004430
         C           -1.239363400882    -0.413691460798     0.135447130994    12.000000000000
         C            1.286084199118    -0.373078560798     0.111091130994    12.000000000000
         C           -2.288243400882    -1.277382460798    -0.221284869006    12.000000000000
         C           -1.518359400882     0.941508539202     0.374406130994    12.000000000000
         C            2.414869599118    -1.264220460798     0.162050130994    12.000000000000
         C           -3.588181400882    -0.797496460798    -0.360032869006    12.000000000000
         C           -2.822329400882     1.411255539202     0.212418130994    12.000000000000
         C           -3.864488400882     0.553981539202    -0.144552869006    12.000000000000
         C            3.668717599118    -0.704470460798    -0.020229869006    12.000000000000
         C            3.776206599118     0.674003539202    -0.236789869006    12.000000000000
         C            2.604653599118     1.420234539202    -0.256268869006    12.000000000000
         H            0.029611599118    -2.001210460798     0.288848130994     1.007825032230
         H           -2.076889400882    -2.329862460798    -0.408657869006     1.007825032230
         H           -0.717567400882     1.612578539202     0.653575130994     1.007825032230
         H            2.301520599118    -2.332729460798     0.333255130994     1.007825032230
         H           -4.384153400882    -1.483813460798    -0.639575869006     1.007825032230
         H           -3.024939400882     2.464915539202     0.391070130994     1.007825032230
         H           -4.876098400882     0.934054539202    -0.260438869006     1.007825032230
         H            4.554408599118    -1.334833460798     0.005303130994     1.007825032230
         H            4.739734599118     1.152282539202    -0.382283869006     1.007825032230
         H            2.633069599118     2.496404539202    -0.419871869006     1.007825032230

  Basis Set: AUG-CC-PVTZ
    Blend: AUG-CC-PVTZ
  Basis Set: (AUG-CC-PVTZ AUX)
    Blend: AUG-CC-PVTZ-JKFIT
	 Reference Energy          =    -531.4486339926081655 [Eh]
	 Singles Energy            =      -0.0000000000000000 [Eh]
	 Same-Spin Energy          =      -0.5913979312923987 [Eh]
	 Opposite-Spin Energy      =      -1.8131765882918720 [Eh]
	 Correlation Energy        =      -2.4045745195842709 [Eh]
	 Total Energy              =    -533.8532085121923956 [Eh]

	 ================> DF-SCS-MP2 Energies <==================
	-----------------------------------------------------------
	 SCS Same-Spin Scale       =       0.3333333333333333 [-]
	 SCS Opposite-Spin Scale   =       1.2000000000000000 [-]
	 SCS Same-Spin Energy      =      -0.1971326437641329 [Eh]
	 SCS Opposite-Spin Energy  =      -2.1758119059502463 [Eh]
	 SCS Correlation Energy    =      -2.3729445497143793 [Eh]
	 SCS Total Energy          =    -533.8215785423225270 [Eh]
	-----------------------------------------------------------

  Dipole Moment: [D]
     X:     1.7240      Y:    -1.7966      Z:    -0.0888     Total:     2.4916

*** Psi4 exiting successfully. Buy a developer a beer!
