                               Psi4 1.4a3.dev225

  ==> Input File <==

--------------------------------------------------------------------------
#psi4
#
memory 32 gb

molecule  {
0 1
  N        0.0358730    -0.9798690     0.3249120
  N        1.3785830     0.9084480    -0.0806070
  C       -1.1894275    -0.4262757     0.1440362
  C        1.2874650    -0.4145780     0.1205110
  C       -2.2834660    -1.2695640    -0.2193620
  C       -1.5135820     0.9493270     0.3763290
  C        2.4196470    -1.2564020     0.1639730
  C       -3.5834040    -0.7896780    -0.3581100
  C       -2.8175520     1.4190740     0.2143410
  C       -3.8597110     0.5618000    -0.1426300
  C        3.6734950    -0.6966520    -0.0183070
  C        3.7809840     0.6818220    -0.2348670
  C        2.6094310     1.4280530    -0.2543460
  H        0.0343890    -1.9933920     0.2907710
  H       -2.0721120    -2.3220440    -0.4067350
  H       -0.7127900     1.6203970     0.6554980
  H        2.3062980    -2.3249110     0.3351780
  H       -4.3793760    -1.4759950    -0.6376530
  H       -3.0201620     2.4727340     0.3929930
  H       -4.8713210     0.9418730    -0.2585160
  H        4.5591860    -1.3270150     0.0072260
  H        4.7445120     1.1601010    -0.3803610
  H        2.6378470     2.5042230    -0.4179490
units angstrom
no_reorient  #important for SAPT in psi4, default
symmetry c1  #important for SAPT in psi4, default
}

set PROPERTIES_ORIGIN ["COM"]
properties('MP2/aug-cc-pvtz', properties = ['dipole'])
--------------------------------------------------------------------------

    Molecular point group: c1
  Charge       = 0
  Multiplicity = 1
  Basis Set: AUG-CC-PVTZ
    Blend: AUG-CC-PVTZ
  Basis Set: (AUG-CC-PVTZ AUX)
    Blend: AUG-CC-PVTZ-JKFIT

    Orbital Energies [Eh]
    ---------------------

    Doubly Occupied:

       1A    -15.596698     2A    -15.559571     3A    -11.331075
       4A    -11.284665     5A    -11.282227     6A    -11.266144
       7A    -11.242876     8A    -11.233392     9A    -11.233315
      10A    -11.229880    11A    -11.229588    12A    -11.220539
      13A    -11.219996    14A     -1.306626    15A     -1.230954
      16A     -1.128490    17A     -1.090823    18A     -1.038630
      19A     -1.004372    20A     -0.978253    21A     -0.873346
      22A     -0.867333    23A     -0.821619    24A     -0.801770
      25A     -0.731706    26A     -0.719502    27A     -0.681829
      28A     -0.665729    29A     -0.646324    30A     -0.624940
      31A     -0.603100    32A     -0.596415    33A     -0.582890
      34A     -0.578454    35A     -0.570111    36A     -0.536919
      37A     -0.518801    38A     -0.508556    39A     -0.481171
      40A     -0.460178    41A     -0.421223    42A     -0.388474
      43A     -0.344345    44A     -0.329842    45A     -0.277460

  @DF-RHF Final Energy:  -531.44592285225337

   => Energetics <=

    Nuclear Repulsion Energy =            698.6715788978482351
    One-Electron Energy =               -2105.5546978661955109
    Two-Electron Energy =                 875.4371961160940145
    Total Energy =                       -531.4459228522533749
  Basis Set: (AUG-CC-PVTZ AUX)
    Blend: AUG-CC-PVTZ-RI
    Molecular point group: c1

    Geometry (in Angstrom), charge = 0, multiplicity = 1:

       Center              X                  Y                   Z               Mass
    ------------   -----------------  -----------------  -----------------  -----------------
         N            0.028149163084    -0.982768448776     0.321989871792    14.003074004430
         N            1.370859163084     0.905548551224    -0.083529128208    14.003074004430
         C           -1.197151336916    -0.429175148776     0.141114071792    12.000000000000
         C            1.279741163084    -0.417477448776     0.117588871792    12.000000000000
         C           -2.291189836916    -1.272463448776    -0.222284128208    12.000000000000
         C           -1.521305836916     0.946427551224     0.373406871792    12.000000000000
         C            2.411923163084    -1.259301448776     0.161050871792    12.000000000000
         C           -3.591127836916    -0.792577448776    -0.361032128208    12.000000000000
         C           -2.825275836916     1.416174551224     0.211418871792    12.000000000000
         C           -3.867434836916     0.558900551224    -0.145552128208    12.000000000000
         C            3.665771163084    -0.699551448776    -0.021229128208    12.000000000000
         C            3.773260163084     0.678922551224    -0.237789128208    12.000000000000
         C            2.601707163084     1.425153551224    -0.257268128208    12.000000000000
         H            0.026665163084    -1.996291448776     0.287848871792     1.007825032230
         H           -2.079835836916    -2.324943448776    -0.409657128208     1.007825032230
         H           -0.720513836916     1.617497551224     0.652575871792     1.007825032230
         H            2.298574163084    -2.327810448776     0.332255871792     1.007825032230
         H           -4.387099836916    -1.478894448776    -0.640575128208     1.007825032230
         H           -3.027885836916     2.469834551224     0.390070871792     1.007825032230
         H           -4.879044836916     0.938973551224    -0.261438128208     1.007825032230
         H            4.551462163084    -1.329914448776     0.004303871792     1.007825032230
         H            4.736788163084     1.157201551224    -0.383283128208     1.007825032230
         H            2.630123163084     2.501323551224    -0.420871128208     1.007825032230

  Basis Set: AUG-CC-PVTZ
    Blend: AUG-CC-PVTZ
  Basis Set: (AUG-CC-PVTZ AUX)
    Blend: AUG-CC-PVTZ-JKFIT
	 Reference Energy          =    -531.4459228522533749 [Eh]
	 Singles Energy            =      -0.0000000000000000 [Eh]
	 Same-Spin Energy          =      -0.5926613631266369 [Eh]
	 Opposite-Spin Energy      =      -1.8147085873872748 [Eh]
	 Correlation Energy        =      -2.4073699505139117 [Eh]
	 Total Energy              =    -533.8532928027673279 [Eh]

	 ================> DF-SCS-MP2 Energies <==================
	-----------------------------------------------------------
	 SCS Same-Spin Scale       =       0.3333333333333333 [-]
	 SCS Opposite-Spin Scale   =       1.2000000000000000 [-]
	 SCS Same-Spin Energy      =      -0.1975537877088789 [Eh]
	 SCS Opposite-Spin Energy  =      -2.1776503048647298 [Eh]
	 SCS Correlation Energy    =      -2.3752040925736089 [Eh]
	 SCS Total Energy          =    -533.8211269448270286 [Eh]
	-----------------------------------------------------------

  Dipole Moment: [D]
     X:     1.9008      Y:    -1.9083      Z:    -0.0400     Total:     2.6937

*** Psi4 exiting successfully. Buy a developer a beer!
