                               Psi4 1.3.2 release

  ==> Input File <==

--------------------------------------------------------------------------
#psi4
#
memory 32 gb

molecule  {
0 1
  N        0.1039907    -1.1076952     0.3368286
  N        1.3785830     0.9084480    -0.0806070
  C       -1.2345860    -0.4058730     0.1373700
  C        1.2874650    -0.4145780     0.1205110
  C       -2.2834660    -1.2695640    -0.2193620
  C       -1.5135820     0.9493270     0.3763290
  C        2.4196470    -1.2564020     0.1639730
  C       -3.5834040    -0.7896780    -0.3581100
  C       -2.8175520     1.4190740     0.2143410
  C       -3.8597110     0.5618000    -0.1426300
  C        3.6734950    -0.6966520    -0.0183070
  C        3.7809840     0.6818220    -0.2348670
  C        2.6094310     1.4280530    -0.2543460
  H        0.0343890    -1.9933920     0.2907710
  H       -2.0721120    -2.3220440    -0.4067350
  H       -0.7127900     1.6203970     0.6554980
  H        2.3062980    -2.3249110     0.3351780
  H       -4.3793760    -1.4759950    -0.6376530
  H       -3.0201620     2.4727340     0.3929930
  H       -4.8713210     0.9418730    -0.2585160
  H        4.5591860    -1.3270150     0.0072260
  H        4.7445120     1.1601010    -0.3803610
  H        2.6378470     2.5042230    -0.4179490
units angstrom
no_reorient  #important for SAPT in psi4, default
symmetry c1  #important for SAPT in psi4, default
}

set PROPERTIES_ORIGIN ["COM"]
properties('MP2/aug-cc-pvtz', properties = ['dipole'])
--------------------------------------------------------------------------

    Molecular point group: c1
  Charge       = 0
  Multiplicity = 1
  Basis Set: AUG-CC-PVTZ
    Blend: AUG-CC-PVTZ
  Basis Set: (AUG-CC-PVTZ AUX)
    Blend: AUG-CC-PVTZ-JKFIT

    Orbital Energies [Eh]
    ---------------------

    Doubly Occupied:

       1A    -15.581699     2A    -15.556640     3A    -11.326194
       4A    -11.288771     5A    -11.278586     6A    -11.259139
       7A    -11.237562     8A    -11.235400     9A    -11.235195
      10A    -11.233311    11A    -11.229436    12A    -11.228486
      13A    -11.227725    14A     -1.289600    15A     -1.218098
      16A     -1.140942    17A     -1.084667    18A     -1.028578
      19A     -1.012616    20A     -0.989004    21A     -0.866646
      22A     -0.860209    23A     -0.823145    24A     -0.808916
      25A     -0.742780    26A     -0.708351    27A     -0.680824
      28A     -0.667203    29A     -0.636900    30A     -0.623667
      31A     -0.606956    32A     -0.592760    33A     -0.584787
      34A     -0.577704    35A     -0.561254    36A     -0.533651
      37A     -0.515322    38A     -0.504555    39A     -0.493466
      40A     -0.461203    41A     -0.414917    42A     -0.384095
      43A     -0.341486    44A     -0.334917    45A     -0.290156

  @DF-RHF Final Energy:  -531.42216484951348

   => Energetics <=

    Nuclear Repulsion Energy =            696.6747061341541212
    One-Electron Energy =               -2101.5987048340016372
    Two-Electron Energy =                 873.5018338503340374
    Total Energy =                       -531.4221648495134787
  Basis Set: (AUG-CC-PVTZ AUX)
    Blend: AUG-CC-PVTZ-RI
    Molecular point group: c1

    Geometry (in Angstrom), charge = 0, multiplicity = 1:

       Center              X                  Y                   Z               Mass
    ------------   -----------------  -----------------  -----------------  -----------------
         N            0.093844799696    -1.101510174519     0.333395698126    14.003074004430
         N            1.368437099696     0.914633025481    -0.084039901874    14.003074004430
         C           -1.244731900304    -0.399687974519     0.133937098126    12.000000000000
         C            1.277319099696    -0.408392974519     0.117078098126    12.000000000000
         C           -2.293611900304    -1.263378974519    -0.222794901874    12.000000000000
         C           -1.523727900304     0.955512025481     0.372896098126    12.000000000000
         C            2.409501099696    -1.250216974519     0.160540098126    12.000000000000
         C           -3.593549900304    -0.783492974519    -0.361542901874    12.000000000000
         C           -2.827697900304     1.425259025481     0.210908098126    12.000000000000
         C           -3.869856900304     0.567985025481    -0.146062901874    12.000000000000
         C            3.663349099696    -0.690466974519    -0.021739901874    12.000000000000
         C            3.770838099696     0.688007025481    -0.238299901874    12.000000000000
         C            2.599285099696     1.434238025481    -0.257778901874    12.000000000000
         H            0.024243099696    -1.987206974519     0.287338098126     1.007825032230
         H           -2.082257900304    -2.315858974519    -0.410167901874     1.007825032230
         H           -0.722935900304     1.626582025481     0.652065098126     1.007825032230
         H            2.296152099696    -2.318725974519     0.331745098126     1.007825032230
         H           -4.389521900304    -1.469809974519    -0.641085901874     1.007825032230
         H           -3.030307900304     2.478919025481     0.389560098126     1.007825032230
         H           -4.881466900304     0.948058025481    -0.261948901874     1.007825032230
         H            4.549040099696    -1.320829974519     0.003793098126     1.007825032230
         H            4.734366099696     1.166286025481    -0.383793901874     1.007825032230
         H            2.627701099696     2.510408025481    -0.421381901874     1.007825032230

  Basis Set: AUG-CC-PVTZ
    Blend: AUG-CC-PVTZ
  Basis Set: (AUG-CC-PVTZ AUX)
    Blend: AUG-CC-PVTZ-JKFIT
	 Reference Energy          =    -531.4221648495134787 [Eh]
	 Singles Energy            =      -0.0000000000000000 [Eh]
	 Same-Spin Energy          =      -0.5908009868693356 [Eh]
	 Opposite-Spin Energy      =      -1.8134674815528415 [Eh]
	 Correlation Energy        =      -2.4042684684221771 [Eh]
	 Total Energy              =    -533.8264333179356527 [Eh]

	 ================> DF-SCS-MP2 Energies <==================
	-----------------------------------------------------------
	 SCS Same-Spin Scale       =       0.3333333333333333 [-]
	 SCS Opposite-Spin Scale   =       1.2000000000000000 [-]
	 SCS Same-Spin Energy      =      -0.1969336622897785 [Eh]
	 SCS Opposite-Spin Energy  =      -2.1761609778634097 [Eh]
	 SCS Correlation Energy    =      -2.3730946401531883 [Eh]
	 SCS Total Energy          =    -533.7952594896667051 [Eh]
	-----------------------------------------------------------

  Dipole Moment: [D]
     X:     0.9152      Y:    -1.6834      Z:    -0.1215     Total:     1.9200

*** Psi4 exiting successfully. Buy a developer a beer!
