                               Psi4 1.3.2 release

  ==> Input File <==

--------------------------------------------------------------------------
#psi4
#
memory 32 gb

molecule  {
0 1
  N        0.0678775    -0.8914279     0.3530892
  N        1.3785830     0.9084480    -0.0806070
  C       -1.2345860    -0.4058730     0.1373700
  C        1.2874650    -0.4145780     0.1205110
  C       -2.2834660    -1.2695640    -0.2193620
  C       -1.5135820     0.9493270     0.3763290
  C        2.4196470    -1.2564020     0.1639730
  C       -3.5834040    -0.7896780    -0.3581100
  C       -2.8175520     1.4190740     0.2143410
  C       -3.8597110     0.5618000    -0.1426300
  C        3.6734950    -0.6966520    -0.0183070
  C        3.7809840     0.6818220    -0.2348670
  C        2.6094310     1.4280530    -0.2543460
  H        0.0343890    -1.9933920     0.2907710
  H       -2.0721120    -2.3220440    -0.4067350
  H       -0.7127900     1.6203970     0.6554980
  H        2.3062980    -2.3249110     0.3351780
  H       -4.3793760    -1.4759950    -0.6376530
  H       -3.0201620     2.4727340     0.3929930
  H       -4.8713210     0.9418730    -0.2585160
  H        4.5591860    -1.3270150     0.0072260
  H        4.7445120     1.1601010    -0.3803610
  H        2.6378470     2.5042230    -0.4179490
units angstrom
no_reorient  #important for SAPT in psi4, default
symmetry c1  #important for SAPT in psi4, default
}

set PROPERTIES_ORIGIN ["COM"]
properties('MP2/aug-cc-pvtz', properties = ['dipole'])
--------------------------------------------------------------------------

    Molecular point group: c1
  Charge       = 0
  Multiplicity = 1
  Basis Set: AUG-CC-PVTZ
    Blend: AUG-CC-PVTZ
  Basis Set: (AUG-CC-PVTZ AUX)
    Blend: AUG-CC-PVTZ-JKFIT

    Orbital Energies [Eh]
    ---------------------

    Doubly Occupied:

       1A    -15.599936     2A    -15.549719     3A    -11.322959
       4A    -11.286054     5A    -11.276997     6A    -11.261875
       7A    -11.238315     8A    -11.236311     9A    -11.235770
      10A    -11.233120    11A    -11.226473    12A    -11.225670
      13A    -11.221748    14A     -1.306516    15A     -1.218620
      16A     -1.138445    17A     -1.085342    18A     -1.036806
      19A     -1.012176    20A     -0.980095    21A     -0.869326
      22A     -0.864951    23A     -0.827081    24A     -0.798713
      25A     -0.733426    26A     -0.707652    27A     -0.678879
      28A     -0.665080    29A     -0.637030    30A     -0.624082
      31A     -0.604559    32A     -0.593604    33A     -0.588149
      34A     -0.577225    35A     -0.566193    36A     -0.530842
      37A     -0.517616    38A     -0.510014    39A     -0.490003
      40A     -0.463577    41A     -0.416911    42A     -0.383709
      43A     -0.343198    44A     -0.334539    45A     -0.281480

  @DF-RHF Final Energy:  -531.43599022987542

   => Energetics <=

    Nuclear Repulsion Energy =            699.7317960044167648
    One-Electron Energy =               -2107.7339998223219482
    Two-Electron Energy =                 876.5662135880297683
    Total Energy =                       -531.4359902298754150
  Basis Set: (AUG-CC-PVTZ AUX)
    Blend: AUG-CC-PVTZ-RI
    Molecular point group: c1

    Geometry (in Angstrom), charge = 0, multiplicity = 1:

       Center              X                  Y                   Z               Mass
    ------------   -----------------  -----------------  -----------------  -----------------
         N            0.060704804864    -0.903048193739     0.348317560491    14.003074004430
         N            1.371410304864     0.896827706261    -0.085378639509    14.003074004430
         C           -1.241758695136    -0.417493293739     0.132598360491    12.000000000000
         C            1.280292304864    -0.426198293739     0.115739360491    12.000000000000
         C           -2.290638695136    -1.281184293739    -0.224133639509    12.000000000000
         C           -1.520754695136     0.937706706261     0.371557360491    12.000000000000
         C            2.412474304864    -1.268022293739     0.159201360491    12.000000000000
         C           -3.590576695136    -0.801298293739    -0.362881639509    12.000000000000
         C           -2.824724695136     1.407453706261     0.209569360491    12.000000000000
         C           -3.866883695136     0.550179706261    -0.147401639509    12.000000000000
         C            3.666322304864    -0.708272293739    -0.023078639509    12.000000000000
         C            3.773811304864     0.670201706261    -0.239638639509    12.000000000000
         C            2.602258304864     1.416432706261    -0.259117639509    12.000000000000
         H            0.027216304864    -2.005012293739     0.285999360491     1.007825032230
         H           -2.079284695136    -2.333664293739    -0.411506639509     1.007825032230
         H           -0.719962695136     1.608776706261     0.650726360491     1.007825032230
         H            2.299125304864    -2.336531293739     0.330406360491     1.007825032230
         H           -4.386548695136    -1.487615293739    -0.642424639509     1.007825032230
         H           -3.027334695136     2.461113706261     0.388221360491     1.007825032230
         H           -4.878493695136     0.930252706261    -0.263287639509     1.007825032230
         H            4.552013304864    -1.338635293739     0.002454360491     1.007825032230
         H            4.737339304864     1.148480706261    -0.385132639509     1.007825032230
         H            2.630674304864     2.492602706261    -0.422720639509     1.007825032230

  Basis Set: AUG-CC-PVTZ
    Blend: AUG-CC-PVTZ
  Basis Set: (AUG-CC-PVTZ AUX)
    Blend: AUG-CC-PVTZ-JKFIT
	 Reference Energy          =    -531.4359902298754150 [Eh]
	 Singles Energy            =      -0.0000000000000000 [Eh]
	 Same-Spin Energy          =      -0.5930557306412247 [Eh]
	 Opposite-Spin Energy      =      -1.8158504229850432 [Eh]
	 Correlation Energy        =      -2.4089061536262681 [Eh]
	 Total Energy              =    -533.8448963835016912 [Eh]

	 ================> DF-SCS-MP2 Energies <==================
	-----------------------------------------------------------
	 SCS Same-Spin Scale       =       0.3333333333333333 [-]
	 SCS Opposite-Spin Scale   =       1.2000000000000000 [-]
	 SCS Same-Spin Energy      =      -0.1976852435470749 [Eh]
	 SCS Opposite-Spin Energy  =      -2.1790205075820519 [Eh]
	 SCS Correlation Energy    =      -2.3767057511291267 [Eh]
	 SCS Total Energy          =    -533.8126959810045946 [Eh]
	-----------------------------------------------------------

  Dipole Moment: [D]
     X:     1.0065      Y:    -1.9230      Z:    -0.0760     Total:     2.1718

*** Psi4 exiting successfully. Buy a developer a beer!
