                               Psi4 1.3.2 release

  ==> Input File <==

--------------------------------------------------------------------------
#psi4
#
memory 32 gb

molecule  {
0 1
  N        0.0463475    -1.0015479     0.3276583
  N        1.3785830     0.9084480    -0.0806070
  C       -1.2345860    -0.4058730     0.1373700
  C        1.2874650    -0.4145780     0.1205110
  C       -2.2834660    -1.2695640    -0.2193620
  C       -1.5135820     0.9493270     0.3763290
  C        2.4196470    -1.2564020     0.1639730
  C       -3.5834040    -0.7896780    -0.3581100
  C       -2.8175520     1.4190740     0.2143410
  C       -3.8597110     0.5618000    -0.1426300
  C        3.6734950    -0.6966520    -0.0183070
  C        3.7809840     0.6818220    -0.2348670
  C        2.6094310     1.4280530    -0.2543460
  H        0.0343890    -1.9933920     0.2907710
  H       -2.0721120    -2.3220440    -0.4067350
  H       -0.7127900     1.6203970     0.6554980
  H        2.3062980    -2.3249110     0.3351780
  H       -4.3793760    -1.4759950    -0.6376530
  H       -3.0201620     2.4727340     0.3929930
  H       -4.8713210     0.9418730    -0.2585160
  H        4.5591860    -1.3270150     0.0072260
  H        4.7445120     1.1601010    -0.3803610
  H        2.6378470     2.5042230    -0.4179490
units angstrom
no_reorient  #important for SAPT in psi4, default
symmetry c1  #important for SAPT in psi4, default
}

set PROPERTIES_ORIGIN ["COM"]
properties('MP2/aug-cc-pvtz', properties = ['dipole'])
--------------------------------------------------------------------------

    Molecular point group: c1
  Charge       = 0
  Multiplicity = 1
  Basis Set: AUG-CC-PVTZ
    Blend: AUG-CC-PVTZ
  Basis Set: (AUG-CC-PVTZ AUX)
    Blend: AUG-CC-PVTZ-JKFIT

    Orbital Energies [Eh]
    ---------------------

    Doubly Occupied:

       1A    -15.590276     2A    -15.556236     3A    -11.327400
       4A    -11.283633     5A    -11.279661     6A    -11.262930
       7A    -11.238445     8A    -11.235635     9A    -11.232490
      10A    -11.231344    11A    -11.229850    12A    -11.224448
      13A    -11.222047    14A     -1.294718    15A     -1.221079
      16A     -1.135654    17A     -1.087442    18A     -1.033621
      19A     -1.010078    20A     -0.982443    21A     -0.868670
      22A     -0.861114    23A     -0.824431    24A     -0.803033
      25A     -0.729068    26A     -0.714868    27A     -0.680113
      28A     -0.664777    29A     -0.641472    30A     -0.624252
      31A     -0.601070    32A     -0.596861    33A     -0.584128
      34A     -0.580149    35A     -0.567832    36A     -0.534307
      37A     -0.517499    38A     -0.507513    39A     -0.490242
      40A     -0.460451    41A     -0.418211    42A     -0.385702
      43A     -0.343042    44A     -0.332893    45A     -0.283777

  @DF-RHF Final Energy:  -531.44997265426059

   => Energetics <=

    Nuclear Repulsion Energy =            698.2402054610569166
    One-Electron Energy =               -2104.7905491878714201
    Two-Electron Energy =                 875.1003710725537985
    Total Energy =                       -531.4499726542605913
  Basis Set: (AUG-CC-PVTZ AUX)
    Blend: AUG-CC-PVTZ-RI
    Molecular point group: c1

    Geometry (in Angstrom), charge = 0, multiplicity = 1:

       Center              X                  Y                   Z               Mass
    ------------   -----------------  -----------------  -----------------  -----------------
         N            0.040947372991    -1.004101997635     0.324980390300    14.003074004430
         N            1.373182872991     0.905893902365    -0.083284909700    14.003074004430
         C           -1.239986127009    -0.408427097635     0.134692090300    12.000000000000
         C            1.282064872991    -0.417132097635     0.117833090300    12.000000000000
         C           -2.288866127009    -1.272118097635    -0.222039909700    12.000000000000
         C           -1.518982127009     0.946772902365     0.373651090300    12.000000000000
         C            2.414246872991    -1.258956097635     0.161295090300    12.000000000000
         C           -3.588804127009    -0.792232097635    -0.360787909700    12.000000000000
         C           -2.822952127009     1.416519902365     0.211663090300    12.000000000000
         C           -3.865111127009     0.559245902365    -0.145307909700    12.000000000000
         C            3.668094872991    -0.699206097635    -0.020984909700    12.000000000000
         C            3.775583872991     0.679267902365    -0.237544909700    12.000000000000
         C            2.604030872991     1.425498902365    -0.257023909700    12.000000000000
         H            0.028988872991    -1.995946097635     0.288093090300     1.007825032230
         H           -2.077512127009    -2.324598097635    -0.409412909700     1.007825032230
         H           -0.718190127009     1.617842902365     0.652820090300     1.007825032230
         H            2.300897872991    -2.327465097635     0.332500090300     1.007825032230
         H           -4.384776127009    -1.478549097635    -0.640330909700     1.007825032230
         H           -3.025562127009     2.470179902365     0.390315090300     1.007825032230
         H           -4.876721127009     0.939318902365    -0.261193909700     1.007825032230
         H            4.553785872991    -1.329569097635     0.004548090300     1.007825032230
         H            4.739111872991     1.157546902365    -0.383038909700     1.007825032230
         H            2.632446872991     2.501668902365    -0.420626909700     1.007825032230

  Basis Set: AUG-CC-PVTZ
    Blend: AUG-CC-PVTZ
  Basis Set: (AUG-CC-PVTZ AUX)
    Blend: AUG-CC-PVTZ-JKFIT
	 Reference Energy          =    -531.4499726542605913 [Eh]
	 Singles Energy            =      -0.0000000000000000 [Eh]
	 Same-Spin Energy          =      -0.5917319643901658 [Eh]
	 Opposite-Spin Energy      =      -1.8135965910872858 [Eh]
	 Correlation Energy        =      -2.4053285554774515 [Eh]
	 Total Energy              =    -533.8553012097380588 [Eh]

	 ================> DF-SCS-MP2 Energies <==================
	-----------------------------------------------------------
	 SCS Same-Spin Scale       =       0.3333333333333333 [-]
	 SCS Opposite-Spin Scale   =       1.2000000000000000 [-]
	 SCS Same-Spin Energy      =      -0.1972439881300553 [Eh]
	 SCS Opposite-Spin Energy  =      -2.1763159093047428 [Eh]
	 SCS Correlation Energy    =      -2.3735598974347982 [Eh]
	 SCS Total Energy          =    -533.8235325516953935 [Eh]
	-----------------------------------------------------------

  Dipole Moment: [D]
     X:     1.3643      Y:    -1.8285      Z:    -0.0755     Total:     2.2827

*** Psi4 exiting successfully. Buy a developer a beer!
