                               Psi4 1.3.2 release

  ==> Input File <==

--------------------------------------------------------------------------
#psi4
#
memory 32 gb

molecule  {
0 1
  N        0.0358730    -0.9798690     0.3249120
  N        1.3785830     0.9084480    -0.0806070
  C       -1.2345860    -0.4058730     0.1373700
  C        1.2874650    -0.4145780     0.1205110
  C       -2.2834660    -1.2695640    -0.2193620
  C       -1.5135820     0.9493270     0.3763290
  C        2.4196470    -1.2564020     0.1639730
  C       -3.5834040    -0.7896780    -0.3581100
  C       -2.8175520     1.4190740     0.2143410
  C       -3.8597110     0.5618000    -0.1426300
  C        3.6734950    -0.6966520    -0.0183070
  C        3.7809840     0.6818220    -0.2348670
  C        2.6094310     1.4280530    -0.2543460
  H        0.0343890    -1.9933920     0.2907710
  H       -2.0721120    -2.3220440    -0.4067350
  H       -0.7127900     1.6203970     0.6554980
  H        2.3062980    -2.3249110     0.3351780
  H       -4.3793760    -1.4759950    -0.6376530
  H       -3.0201620     2.4727340     0.3929930
  H       -4.8713210     0.9418730    -0.2585160
  H        4.5591860    -1.3270150     0.0072260
  H        4.7445120     1.1601010    -0.3803610
  H        2.6378470     2.5042230    -0.4179490
units angstrom
no_reorient  #important for SAPT in psi4, default
symmetry c1  #important for SAPT in psi4, default
}

set PROPERTIES_ORIGIN ["COM"]
properties('MP2/aug-cc-pvtz', properties = ['dipole'])
--------------------------------------------------------------------------

    Molecular point group: c1
  Charge       = 0
  Multiplicity = 1
  Basis Set: AUG-CC-PVTZ
    Blend: AUG-CC-PVTZ
  Basis Set: (AUG-CC-PVTZ AUX)
    Blend: AUG-CC-PVTZ-JKFIT

    Orbital Energies [Eh]
    ---------------------

    Doubly Occupied:

       1A    -15.592014     2A    -15.556317     3A    -11.328052
       4A    -11.282558     5A    -11.279955     6A    -11.263760
       7A    -11.239624     8A    -11.235213     9A    -11.231855
      10A    -11.230479    11A    -11.230408    12A    -11.223329
      13A    -11.220653    14A     -1.296332    15A     -1.222368
      16A     -1.134565    17A     -1.088094    18A     -1.034941
      19A     -1.009507    20A     -0.981277    21A     -0.869352
      22A     -0.862096    23A     -0.824687    24A     -0.802030
      25A     -0.728100    26A     -0.714941    27A     -0.679931
      28A     -0.664313    29A     -0.642082    30A     -0.624491
      31A     -0.601160    32A     -0.596039    33A     -0.584396
      34A     -0.579663    35A     -0.568853    36A     -0.534457
      37A     -0.518010    38A     -0.507708    39A     -0.489394
      40A     -0.460239    41A     -0.418901    42A     -0.386128
      43A     -0.343523    44A     -0.332445    45A     -0.282313

  @DF-RHF Final Energy:  -531.45009122733518

   => Energetics <=

    Nuclear Repulsion Energy =            698.5754175630961527
    One-Electron Energy =               -2105.4579127969691399
    Two-Electron Energy =                 875.4324040065378085
    Total Energy =                       -531.4500912273351787
  Basis Set: (AUG-CC-PVTZ AUX)
    Blend: AUG-CC-PVTZ-RI
    Molecular point group: c1

    Geometry (in Angstrom), charge = 0, multiplicity = 1:

       Center              X                  Y                   Z               Mass
    ------------   -----------------  -----------------  -----------------  -----------------
         N            0.031335240145    -0.984207924721     0.322460193590    14.003074004430
         N            1.374045240145     0.904109075279    -0.083058806410    14.003074004430
         C           -1.239123759855    -0.410211924721     0.134918193590    12.000000000000
         C            1.282927240145    -0.418916924721     0.118059193590    12.000000000000
         C           -2.288003759855    -1.273902924721    -0.221813806410    12.000000000000
         C           -1.518119759855     0.944988075279     0.373877193590    12.000000000000
         C            2.415109240145    -1.260740924721     0.161521193590    12.000000000000
         C           -3.587941759855    -0.794016924721    -0.360561806410    12.000000000000
         C           -2.822089759855     1.414735075279     0.211889193590    12.000000000000
         C           -3.864248759855     0.557461075279    -0.145081806410    12.000000000000
         C            3.668957240145    -0.700990924721    -0.020758806410    12.000000000000
         C            3.776446240145     0.677483075279    -0.237318806410    12.000000000000
         C            2.604893240145     1.423714075279    -0.256797806410    12.000000000000
         H            0.029851240145    -1.997730924721     0.288319193590     1.007825032230
         H           -2.076649759855    -2.326382924721    -0.409186806410     1.007825032230
         H           -0.717327759855     1.616058075279     0.653046193590     1.007825032230
         H            2.301760240145    -2.329249924721     0.332726193590     1.007825032230
         H           -4.383913759855    -1.480333924721    -0.640104806410     1.007825032230
         H           -3.024699759855     2.468395075279     0.390541193590     1.007825032230
         H           -4.875858759855     0.937534075279    -0.260967806410     1.007825032230
         H            4.554648240145    -1.331353924721     0.004774193590     1.007825032230
         H            4.739974240145     1.155762075279    -0.382812806410     1.007825032230
         H            2.633309240145     2.499884075279    -0.420400806410     1.007825032230

  Basis Set: AUG-CC-PVTZ
    Blend: AUG-CC-PVTZ
  Basis Set: (AUG-CC-PVTZ AUX)
    Blend: AUG-CC-PVTZ-JKFIT
	 Reference Energy          =    -531.4500912273351787 [Eh]
	 Singles Energy            =      -0.0000000000000000 [Eh]
	 Same-Spin Energy          =      -0.5920520046620674 [Eh]
	 Opposite-Spin Energy      =      -1.8139569842830174 [Eh]
	 Correlation Energy        =      -2.4060089889450849 [Eh]
	 Total Energy              =    -533.8561002162803106 [Eh]

	 ================> DF-SCS-MP2 Energies <==================
	-----------------------------------------------------------
	 SCS Same-Spin Scale       =       0.3333333333333333 [-]
	 SCS Opposite-Spin Scale   =       1.2000000000000000 [-]
	 SCS Same-Spin Energy      =      -0.1973506682206891 [Eh]
	 SCS Opposite-Spin Energy  =      -2.1767483811396207 [Eh]
	 SCS Correlation Energy    =      -2.3740990493603098 [Eh]
	 SCS Total Energy          =    -533.8241902766955036 [Eh]
	-----------------------------------------------------------

  Dipole Moment: [D]
     X:     1.4649      Y:    -1.8528      Z:    -0.0661     Total:     2.3629

*** Psi4 exiting successfully. Buy a developer a beer!
