                               Psi4 1.3.2 release

  ==> Input File <==

--------------------------------------------------------------------------
#psi4
#
memory 32 gb

molecule  {
0 1
  N        0.0358730    -0.9798690     0.3249120
  N        1.3785830     0.9084480    -0.0806070
  C       -1.2449297    -0.4269012     0.1446884
  C        1.2874650    -0.4145780     0.1205110
  C       -2.2834660    -1.2695640    -0.2193620
  C       -1.5135820     0.9493270     0.3763290
  C        2.4196470    -1.2564020     0.1639730
  C       -3.5834040    -0.7896780    -0.3581100
  C       -2.8175520     1.4190740     0.2143410
  C       -3.8597110     0.5618000    -0.1426300
  C        3.6734950    -0.6966520    -0.0183070
  C        3.7809840     0.6818220    -0.2348670
  C        2.6094310     1.4280530    -0.2543460
  H        0.0343890    -1.9933920     0.2907710
  H       -2.0721120    -2.3220440    -0.4067350
  H       -0.7127900     1.6203970     0.6554980
  H        2.3062980    -2.3249110     0.3351780
  H       -4.3793760    -1.4759950    -0.6376530
  H       -3.0201620     2.4727340     0.3929930
  H       -4.8713210     0.9418730    -0.2585160
  H        4.5591860    -1.3270150     0.0072260
  H        4.7445120     1.1601010    -0.3803610
  H        2.6378470     2.5042230    -0.4179490
units angstrom
no_reorient  #important for SAPT in psi4, default
symmetry c1  #important for SAPT in psi4, default
}

set PROPERTIES_ORIGIN ["COM"]
properties('MP2/aug-cc-pvtz', properties = ['dipole'])
--------------------------------------------------------------------------

    Molecular point group: c1
  Charge       = 0
  Multiplicity = 1
  Basis Set: AUG-CC-PVTZ
    Blend: AUG-CC-PVTZ
  Basis Set: (AUG-CC-PVTZ AUX)
    Blend: AUG-CC-PVTZ-JKFIT

    Orbital Energies [Eh]
    ---------------------

    Doubly Occupied:

       1A    -15.591811     2A    -15.556389     3A    -11.328638
       4A    -11.282481     5A    -11.279993     6A    -11.263843
       7A    -11.239782     8A    -11.235259     9A    -11.231470
      10A    -11.230477    11A    -11.228564    12A    -11.223403
      13A    -11.222604    14A     -1.296178    15A     -1.222618
      16A     -1.134815    17A     -1.088164    18A     -1.035743
      19A     -1.008987    20A     -0.981435    21A     -0.869287
      22A     -0.862514    23A     -0.824084    24A     -0.802579
      25A     -0.728945    26A     -0.714103    27A     -0.680173
      28A     -0.664070    29A     -0.642198    30A     -0.624720
      31A     -0.602221    32A     -0.594291    33A     -0.585016
      34A     -0.579643    35A     -0.568726    36A     -0.534525
      37A     -0.518220    38A     -0.507930    39A     -0.488984
      40A     -0.460271    41A     -0.419133    42A     -0.386222
      43A     -0.344553    44A     -0.331661    45A     -0.282283

  @DF-RHF Final Energy:  -531.44959909648571

   => Energetics <=

    Nuclear Repulsion Energy =            698.4869776104749235
    One-Electron Energy =               -2105.2751472777035815
    Two-Electron Energy =                 875.3385705707429452
    Total Energy =                       -531.4495990964857128
  Basis Set: (AUG-CC-PVTZ AUX)
    Blend: AUG-CC-PVTZ-RI
    Molecular point group: c1

    Geometry (in Angstrom), charge = 0, multiplicity = 1:

       Center              X                  Y                   Z               Mass
    ------------   -----------------  -----------------  -----------------  -----------------
         N            0.032065021367    -0.982724317745     0.321943856990    14.003074004430
         N            1.374775021367     0.905592682255    -0.083575143010    14.003074004430
         C           -1.248737678633    -0.429756517745     0.141720256990    12.000000000000
         C            1.283657021367    -0.417433317745     0.117542856990    12.000000000000
         C           -2.287273978633    -1.272419317745    -0.222330143010    12.000000000000
         C           -1.517389978633     0.946471682255     0.373360856990    12.000000000000
         C            2.415839021367    -1.259257317745     0.161004856990    12.000000000000
         C           -3.587211978633    -0.792533317745    -0.361078143010    12.000000000000
         C           -2.821359978633     1.416218682255     0.211372856990    12.000000000000
         C           -3.863518978633     0.558944682255    -0.145598143010    12.000000000000
         C            3.669687021367    -0.699507317745    -0.021275143010    12.000000000000
         C            3.777176021367     0.678966682255    -0.237835143010    12.000000000000
         C            2.605623021367     1.425197682255    -0.257314143010    12.000000000000
         H            0.030581021367    -1.996247317745     0.287802856990     1.007825032230
         H           -2.075919978633    -2.324899317745    -0.409703143010     1.007825032230
         H           -0.716597978633     1.617541682255     0.652529856990     1.007825032230
         H            2.302490021367    -2.327766317745     0.332209856990     1.007825032230
         H           -4.383183978633    -1.478850317745    -0.640621143010     1.007825032230
         H           -3.023969978633     2.469878682255     0.390024856990     1.007825032230
         H           -4.875128978633     0.939017682255    -0.261484143010     1.007825032230
         H            4.555378021367    -1.329870317745     0.004257856990     1.007825032230
         H            4.740704021367     1.157245682255    -0.383329143010     1.007825032230
         H            2.634039021367     2.501367682255    -0.420917143010     1.007825032230

  Basis Set: AUG-CC-PVTZ
    Blend: AUG-CC-PVTZ
  Basis Set: (AUG-CC-PVTZ AUX)
    Blend: AUG-CC-PVTZ-JKFIT
	 Reference Energy          =    -531.4495990964857128 [Eh]
	 Singles Energy            =      -0.0000000000000000 [Eh]
	 Same-Spin Energy          =      -0.5920298762916110 [Eh]
	 Opposite-Spin Energy      =      -1.8139581272310255 [Eh]
	 Correlation Energy        =      -2.4059880035226362 [Eh]
	 Total Energy              =    -533.8555871000083926 [Eh]

	 ================> DF-SCS-MP2 Energies <==================
	-----------------------------------------------------------
	 SCS Same-Spin Scale       =       0.3333333333333333 [-]
	 SCS Opposite-Spin Scale   =       1.2000000000000000 [-]
	 SCS Same-Spin Energy      =      -0.1973432920972036 [Eh]
	 SCS Opposite-Spin Energy  =      -2.1767497526772304 [Eh]
	 SCS Correlation Energy    =      -2.3740930447744342 [Eh]
	 SCS Total Energy          =    -533.8236921412601532 [Eh]
	-----------------------------------------------------------

  Dipole Moment: [D]
     X:     1.4705      Y:    -1.8490      Z:    -0.0684     Total:     2.3634

*** Psi4 exiting successfully. Buy a developer a beer!
