                               Psi4 1.3.2 release

  ==> Input File <==

--------------------------------------------------------------------------
#psi4
#
memory 32 gb

molecule  {
0 1
  N        0.0358730    -0.9798690     0.3249120
  N        1.3785830     0.9084480    -0.0806070
  C       -1.2345860    -0.4058730     0.1373700
  C        1.2738787    -0.6118497     0.1504990
  C       -2.2834660    -1.2695640    -0.2193620
  C       -1.5135820     0.9493270     0.3763290
  C        2.4196470    -1.2564020     0.1639730
  C       -3.5834040    -0.7896780    -0.3581100
  C       -2.8175520     1.4190740     0.2143410
  C       -3.8597110     0.5618000    -0.1426300
  C        3.6734950    -0.6966520    -0.0183070
  C        3.7809840     0.6818220    -0.2348670
  C        2.6094310     1.4280530    -0.2543460
  H        0.0343890    -1.9933920     0.2907710
  H       -2.0721120    -2.3220440    -0.4067350
  H       -0.7127900     1.6203970     0.6554980
  H        2.3062980    -2.3249110     0.3351780
  H       -4.3793760    -1.4759950    -0.6376530
  H       -3.0201620     2.4727340     0.3929930
  H       -4.8713210     0.9418730    -0.2585160
  H        4.5591860    -1.3270150     0.0072260
  H        4.7445120     1.1601010    -0.3803610
  H        2.6378470     2.5042230    -0.4179490
units angstrom
no_reorient  #important for SAPT in psi4, default
symmetry c1  #important for SAPT in psi4, default
}

set PROPERTIES_ORIGIN ["COM"]
properties('MP2/aug-cc-pvtz', properties = ['dipole'])
--------------------------------------------------------------------------

    Molecular point group: c1
  Charge       = 0
  Multiplicity = 1
  Basis Set: AUG-CC-PVTZ
    Blend: AUG-CC-PVTZ
  Basis Set: (AUG-CC-PVTZ AUX)
    Blend: AUG-CC-PVTZ-JKFIT

    Orbital Energies [Eh]
    ---------------------

    Doubly Occupied:

       1A    -15.602581     2A    -15.557284     3A    -11.324031
       4A    -11.292177     5A    -11.273805     6A    -11.263843
       7A    -11.239737     8A    -11.237748     9A    -11.235563
      10A    -11.229328    11A    -11.226273    12A    -11.223782
      13A    -11.222689    14A     -1.309286    15A     -1.198006
      16A     -1.143959    17A     -1.079629    18A     -1.041063
      19A     -1.014451    20A     -0.988564    21A     -0.876383
      22A     -0.857556    23A     -0.826832    24A     -0.803726
      25A     -0.737521    26A     -0.720128    27A     -0.684816
      28A     -0.663205    29A     -0.630628    30A     -0.625896
      31A     -0.610264    32A     -0.591853    33A     -0.587418
      34A     -0.583797    35A     -0.568390    36A     -0.521737
      37A     -0.512280    38A     -0.509654    39A     -0.491374
      40A     -0.468163    41A     -0.400912    42A     -0.379171
      43A     -0.344065    44A     -0.335687    45A     -0.281207

  @DF-RHF Final Energy:  -531.40023077240426

   => Energetics <=

    Nuclear Repulsion Energy =            697.6703879918391067
    One-Electron Energy =               -2103.5083229817523716
    Two-Electron Energy =                 874.4377042175090082
    Total Energy =                       -531.4002307724042566
  Basis Set: (AUG-CC-PVTZ AUX)
    Blend: AUG-CC-PVTZ-RI
    Molecular point group: c1

    Geometry (in Angstrom), charge = 0, multiplicity = 1:

       Center              X                  Y                   Z               Mass
    ------------   -----------------  -----------------  -----------------  -----------------
         N            0.032293797201    -0.970289773361     0.320344443977    14.003074004430
         N            1.375003797201     0.918027226639    -0.085174556023    14.003074004430
         C           -1.238165202799    -0.396293773361     0.132802443977    12.000000000000
         C            1.270299497201    -0.602270473361     0.145931443977    12.000000000000
         C           -2.287045202799    -1.259984773361    -0.223929556023    12.000000000000
         C           -1.517161202799     0.958906226639     0.371761443977    12.000000000000
         C            2.416067797201    -1.246822773361     0.159405443977    12.000000000000
         C           -3.586983202799    -0.780098773361    -0.362677556023    12.000000000000
         C           -2.821131202799     1.428653226639     0.209773443977    12.000000000000
         C           -3.863290202799     0.571379226639    -0.147197556023    12.000000000000
         C            3.669915797201    -0.687072773361    -0.022874556023    12.000000000000
         C            3.777404797201     0.691401226639    -0.239434556023    12.000000000000
         C            2.605851797201     1.437632226639    -0.258913556023    12.000000000000
         H            0.030809797201    -1.983812773361     0.286203443977     1.007825032230
         H           -2.075691202799    -2.312464773361    -0.411302556023     1.007825032230
         H           -0.716369202799     1.629976226639     0.650930443977     1.007825032230
         H            2.302718797201    -2.315331773361     0.330610443977     1.007825032230
         H           -4.382955202799    -1.466415773361    -0.642220556023     1.007825032230
         H           -3.023741202799     2.482313226639     0.388425443977     1.007825032230
         H           -4.874900202799     0.951452226639    -0.263083556023     1.007825032230
         H            4.555606797201    -1.317435773361     0.002658443977     1.007825032230
         H            4.740932797201     1.169680226639    -0.384928556023     1.007825032230
         H            2.634267797201     2.513802226639    -0.422516556023     1.007825032230

  Basis Set: AUG-CC-PVTZ
    Blend: AUG-CC-PVTZ
  Basis Set: (AUG-CC-PVTZ AUX)
    Blend: AUG-CC-PVTZ-JKFIT
	 Reference Energy          =    -531.4002307724042566 [Eh]
	 Singles Energy            =      -0.0000000000000000 [Eh]
	 Same-Spin Energy          =      -0.5944400061452204 [Eh]
	 Opposite-Spin Energy      =      -1.8202042984581284 [Eh]
	 Correlation Energy        =      -2.4146443046033488 [Eh]
	 Total Energy              =    -533.8148750770076276 [Eh]

	 ================> DF-SCS-MP2 Energies <==================
	-----------------------------------------------------------
	 SCS Same-Spin Scale       =       0.3333333333333333 [-]
	 SCS Opposite-Spin Scale   =       1.2000000000000000 [-]
	 SCS Same-Spin Energy      =      -0.1981466687150735 [Eh]
	 SCS Opposite-Spin Energy  =      -2.1842451581497540 [Eh]
	 SCS Correlation Energy    =      -2.3823918268648274 [Eh]
	 SCS Total Energy          =    -533.7826225992690752 [Eh]
	-----------------------------------------------------------

  Dipole Moment: [D]
     X:     0.5005      Y:    -1.9201      Z:    -0.0054     Total:     1.9843

*** Psi4 exiting successfully. Buy a developer a beer!
