                               Psi4 1.3.2 release

  ==> Input File <==

--------------------------------------------------------------------------
#psi4
#
memory 32 gb

molecule  {
0 1
  N        0.0570891    -1.0232366     0.3291400
  N        1.3785830     0.9084480    -0.0806070
  C       -1.2345860    -0.4058730     0.1373700
  C        1.2874650    -0.4145780     0.1205110
  C       -2.2834660    -1.2695640    -0.2193620
  C       -1.5135820     0.9493270     0.3763290
  C        2.4196470    -1.2564020     0.1639730
  C       -3.5834040    -0.7896780    -0.3581100
  C       -2.8175520     1.4190740     0.2143410
  C       -3.8597110     0.5618000    -0.1426300
  C        3.6734950    -0.6966520    -0.0183070
  C        3.7809840     0.6818220    -0.2348670
  C        2.6094310     1.4280530    -0.2543460
  H        0.0343890    -1.9933920     0.2907710
  H       -2.0721120    -2.3220440    -0.4067350
  H       -0.7127900     1.6203970     0.6554980
  H        2.3062980    -2.3249110     0.3351780
  H       -4.3793760    -1.4759950    -0.6376530
  H       -3.0201620     2.4727340     0.3929930
  H       -4.8713210     0.9418730    -0.2585160
  H        4.5591860    -1.3270150     0.0072260
  H        4.7445120     1.1601010    -0.3803610
  H        2.6378470     2.5042230    -0.4179490
units angstrom
no_reorient  #important for SAPT in psi4, default
symmetry c1  #important for SAPT in psi4, default
}

set PROPERTIES_ORIGIN ["COM"]
properties('MP2/aug-cc-pvtz', properties = ['dipole'])
--------------------------------------------------------------------------

    Molecular point group: c1
  Charge       = 0
  Multiplicity = 1
  Basis Set: AUG-CC-PVTZ
    Blend: AUG-CC-PVTZ
  Basis Set: (AUG-CC-PVTZ AUX)
    Blend: AUG-CC-PVTZ-JKFIT

    Orbital Energies [Eh]
    ---------------------

    Doubly Occupied:

       1A    -15.588525     2A    -15.556206     3A    -11.326894
       4A    -11.284706     5A    -11.279393     6A    -11.262123
       7A    -11.237314     8A    -11.236039     9A    -11.233108
      10A    -11.232163    11A    -11.229331    12A    -11.225516
      13A    -11.223409    14A     -1.293327    15A     -1.220034
      16A     -1.136738    17A     -1.086822    18A     -1.032407
      19A     -1.010626    20A     -0.983659    21A     -0.868062
      22A     -0.860407    23A     -0.824159    24A     -0.804136
      25A     -0.731050    26A     -0.714071    27A     -0.680303
      28A     -0.665287    29A     -0.640736    30A     -0.624060
      31A     -0.601805    32A     -0.596889    33A     -0.583981
      34A     -0.580164    35A     -0.566710    36A     -0.534156
      37A     -0.517026    38A     -0.507207    39A     -0.491010
      40A     -0.460629    41A     -0.417534    42A     -0.385312
      43A     -0.342627    44A     -0.333325    45A     -0.285149

  @DF-RHF Final Energy:  -531.44812258714671

   => Energetics <=

    Nuclear Repulsion Energy =            697.9156405492864224
    One-Electron Energy =               -2104.1392580332753823
    Two-Electron Energy =                 874.7754948968423605
    Total Energy =                       -531.4481225871467132
  Basis Set: (AUG-CC-PVTZ AUX)
    Blend: AUG-CC-PVTZ-RI
    Molecular point group: c1

    Geometry (in Angstrom), charge = 0, multiplicity = 1:

       Center              X                  Y                   Z               Mass
    ------------   -----------------  -----------------  -----------------  -----------------
         N            0.050804615453    -1.024005063714     0.326340101717    14.003074004430
         N            1.372298515453     0.907679536286    -0.083406898283    14.003074004430
         C           -1.240870484547    -0.406641463714     0.134570101717    12.000000000000
         C            1.281180515453    -0.415346463714     0.117711101717    12.000000000000
         C           -2.289750484547    -1.270332463714    -0.222161898283    12.000000000000
         C           -1.519866484547     0.948558536286     0.373529101717    12.000000000000
         C            2.413362515453    -1.257170463714     0.161173101717    12.000000000000
         C           -3.589688484547    -0.790446463714    -0.360909898283    12.000000000000
         C           -2.823836484547     1.418305536286     0.211541101717    12.000000000000
         C           -3.865995484547     0.561031536286    -0.145429898283    12.000000000000
         C            3.667210515453    -0.697420463714    -0.021106898283    12.000000000000
         C            3.774699515453     0.681053536286    -0.237666898283    12.000000000000
         C            2.603146515453     1.427284536286    -0.257145898283    12.000000000000
         H            0.028104515453    -1.994160463714     0.287971101717     1.007825032230
         H           -2.078396484547    -2.322812463714    -0.409534898283     1.007825032230
         H           -0.719074484547     1.619628536286     0.652698101717     1.007825032230
         H            2.300013515453    -2.325679463714     0.332378101717     1.007825032230
         H           -4.385660484547    -1.476763463714    -0.640452898283     1.007825032230
         H           -3.026446484547     2.471965536286     0.390193101717     1.007825032230
         H           -4.877605484547     0.941104536286    -0.261315898283     1.007825032230
         H            4.552901515453    -1.327783463714     0.004426101717     1.007825032230
         H            4.738227515453     1.159332536286    -0.383160898283     1.007825032230
         H            2.631562515453     2.503454536286    -0.420748898283     1.007825032230

  Basis Set: AUG-CC-PVTZ
    Blend: AUG-CC-PVTZ
  Basis Set: (AUG-CC-PVTZ AUX)
    Blend: AUG-CC-PVTZ-JKFIT
	 Reference Energy          =    -531.4481225871467132 [Eh]
	 Singles Energy            =      -0.0000000000000000 [Eh]
	 Same-Spin Energy          =      -0.5914539097163792 [Eh]
	 Opposite-Spin Energy      =      -1.8133414656717486 [Eh]
	 Correlation Energy        =      -2.4047953753881277 [Eh]
	 Total Energy              =    -533.8529179625348888 [Eh]

	 ================> DF-SCS-MP2 Energies <==================
	-----------------------------------------------------------
	 SCS Same-Spin Scale       =       0.3333333333333333 [-]
	 SCS Opposite-Spin Scale   =       1.2000000000000000 [-]
	 SCS Same-Spin Energy      =      -0.1971513032387931 [Eh]
	 SCS Opposite-Spin Energy  =      -2.1760097588060980 [Eh]
	 SCS Correlation Energy    =      -2.3731610620448911 [Eh]
	 SCS Total Energy          =    -533.8212836491916278 [Eh]
	-----------------------------------------------------------

  Dipole Moment: [D]
     X:     1.2673      Y:    -1.8029      Z:    -0.0834     Total:     2.2053

*** Psi4 exiting successfully. Buy a developer a beer!
