                               Psi4 1.3.2 release

  ==> Input File <==

--------------------------------------------------------------------------
#psi4
#
memory 32 gb

molecule  {
0 1
  N       -0.0236821    -1.1071563     0.2809771
  N        1.3785830     0.9084480    -0.0806070
  C       -1.2345860    -0.4058730     0.1373700
  C        1.2874650    -0.4145780     0.1205110
  C       -2.2834660    -1.2695640    -0.2193620
  C       -1.5135820     0.9493270     0.3763290
  C        2.4196470    -1.2564020     0.1639730
  C       -3.5834040    -0.7896780    -0.3581100
  C       -2.8175520     1.4190740     0.2143410
  C       -3.8597110     0.5618000    -0.1426300
  C        3.6734950    -0.6966520    -0.0183070
  C        3.7809840     0.6818220    -0.2348670
  C        2.6094310     1.4280530    -0.2543460
  H        0.0343890    -1.9933920     0.2907710
  H       -2.0721120    -2.3220440    -0.4067350
  H       -0.7127900     1.6203970     0.6554980
  H        2.3062980    -2.3249110     0.3351780
  H       -4.3793760    -1.4759950    -0.6376530
  H       -3.0201620     2.4727340     0.3929930
  H       -4.8713210     0.9418730    -0.2585160
  H        4.5591860    -1.3270150     0.0072260
  H        4.7445120     1.1601010    -0.3803610
  H        2.6378470     2.5042230    -0.4179490
units angstrom
no_reorient  #important for SAPT in psi4, default
symmetry c1  #important for SAPT in psi4, default
}

set PROPERTIES_ORIGIN ["COM"]
properties('MP2/aug-cc-pvtz', properties = ['dipole'])
--------------------------------------------------------------------------

    Molecular point group: c1
  Charge       = 0
  Multiplicity = 1
  Basis Set: AUG-CC-PVTZ
    Blend: AUG-CC-PVTZ
  Basis Set: (AUG-CC-PVTZ AUX)
    Blend: AUG-CC-PVTZ-JKFIT

    Orbital Energies [Eh]
    ---------------------

    Doubly Occupied:

       1A    -15.579259     2A    -15.566178     3A    -11.335182
       4A    -11.284335     5A    -11.279879     6A    -11.266642
       7A    -11.244738     8A    -11.237663     9A    -11.230798
      10A    -11.230329    11A    -11.223217    12A    -11.220032
      13A    -11.219319    14A     -1.286639    15A     -1.229215
      16A     -1.130318    17A     -1.092241    18A     -1.034152
      19A     -1.006155    20A     -0.985031    21A     -0.870354
      22A     -0.858765    23A     -0.822839    24A     -0.811546
      25A     -0.732883    26A     -0.714944    27A     -0.680886
      28A     -0.664408    29A     -0.649176    30A     -0.624901
      31A     -0.601739    32A     -0.594836    33A     -0.579847
      34A     -0.577406    35A     -0.563740    36A     -0.537305
      37A     -0.519213    38A     -0.503332    39A     -0.486512
      40A     -0.454733    41A     -0.421168    42A     -0.389757
      43A     -0.345639    44A     -0.329689    45A     -0.283276

  @DF-RHF Final Energy:  -531.42211387032319

   => Energetics <=

    Nuclear Repulsion Energy =            696.9130780951392126
    One-Electron Energy =               -2102.0699499789611764
    Two-Electron Energy =                 873.7347580134988903
    Total Energy =                       -531.4221138703231873
  Basis Set: (AUG-CC-PVTZ AUX)
    Blend: AUG-CC-PVTZ-RI
    Molecular point group: c1

    Geometry (in Angstrom), charge = 0, multiplicity = 1:

       Center              X                  Y                   Z               Mass
    ------------   -----------------  -----------------  -----------------  -----------------
         N           -0.023316679546    -1.101015642236     0.282142460492    14.003074004430
         N            1.378948420454     0.914588657764    -0.079441639508    14.003074004430
         C           -1.234220579546    -0.399732342236     0.138535360492    12.000000000000
         C            1.287830420454    -0.408437342236     0.121676360492    12.000000000000
         C           -2.283100579546    -1.263423342236    -0.218196639508    12.000000000000
         C           -1.513216579546     0.955467657764     0.377494360492    12.000000000000
         C            2.420012420454    -1.250261342236     0.165138360492    12.000000000000
         C           -3.583038579546    -0.783537342236    -0.356944639508    12.000000000000
         C           -2.817186579546     1.425214657764     0.215506360492    12.000000000000
         C           -3.859345579546     0.567940657764    -0.141464639508    12.000000000000
         C            3.673860420454    -0.690511342236    -0.017141639508    12.000000000000
         C            3.781349420454     0.687962657764    -0.233701639508    12.000000000000
         C            2.609796420454     1.434193657764    -0.253180639508    12.000000000000
         H            0.034754420454    -1.987251342236     0.291936360492     1.007825032230
         H           -2.071746579546    -2.315903342236    -0.405569639508     1.007825032230
         H           -0.712424579546     1.626537657764     0.656663360492     1.007825032230
         H            2.306663420454    -2.318770342236     0.336343360492     1.007825032230
         H           -4.379010579546    -1.469854342236    -0.636487639508     1.007825032230
         H           -3.019796579546     2.478874657764     0.394158360492     1.007825032230
         H           -4.870955579546     0.948013657764    -0.257350639508     1.007825032230
         H            4.559551420454    -1.320874342236     0.008391360492     1.007825032230
         H            4.744877420454     1.166241657764    -0.379195639508     1.007825032230
         H            2.638212420454     2.510363657764    -0.416783639508     1.007825032230

  Basis Set: AUG-CC-PVTZ
    Blend: AUG-CC-PVTZ
  Basis Set: (AUG-CC-PVTZ AUX)
    Blend: AUG-CC-PVTZ-JKFIT
	 Reference Energy          =    -531.4221138703231873 [Eh]
	 Singles Energy            =      -0.0000000000000000 [Eh]
	 Same-Spin Energy          =      -0.5915011295801557 [Eh]
	 Opposite-Spin Energy      =      -1.8139066317802237 [Eh]
	 Correlation Energy        =      -2.4054077613603795 [Eh]
	 Total Energy              =    -533.8275216316835667 [Eh]

	 ================> DF-SCS-MP2 Energies <==================
	-----------------------------------------------------------
	 SCS Same-Spin Scale       =       0.3333333333333333 [-]
	 SCS Opposite-Spin Scale   =       1.2000000000000000 [-]
	 SCS Same-Spin Energy      =      -0.1971670431933852 [Eh]
	 SCS Opposite-Spin Energy  =      -2.1766879581362684 [Eh]
	 SCS Correlation Energy    =      -2.3738550013296535 [Eh]
	 SCS Total Energy          =    -533.7959688716528035 [Eh]
	-----------------------------------------------------------

  Dipole Moment: [D]
     X:     2.1584      Y:    -1.6659      Z:    -0.0463     Total:     2.7268

*** Psi4 exiting successfully. Buy a developer a beer!
