                               Psi4 1.3.2 release

  ==> Input File <==

--------------------------------------------------------------------------
#psi4
#
memory 32 gb

molecule  {
0 1
  N        0.0358730    -0.9798690     0.3249120
  N        1.3785830     0.9084480    -0.0806070
  C       -1.2246183    -0.3835622     0.1397383
  C        1.2874650    -0.4145780     0.1205110
  C       -2.2834660    -1.2695640    -0.2193620
  C       -1.5135820     0.9493270     0.3763290
  C        2.4196470    -1.2564020     0.1639730
  C       -3.5834040    -0.7896780    -0.3581100
  C       -2.8175520     1.4190740     0.2143410
  C       -3.8597110     0.5618000    -0.1426300
  C        3.6734950    -0.6966520    -0.0183070
  C        3.7809840     0.6818220    -0.2348670
  C        2.6094310     1.4280530    -0.2543460
  H        0.0343890    -1.9933920     0.2907710
  H       -2.0721120    -2.3220440    -0.4067350
  H       -0.7127900     1.6203970     0.6554980
  H        2.3062980    -2.3249110     0.3351780
  H       -4.3793760    -1.4759950    -0.6376530
  H       -3.0201620     2.4727340     0.3929930
  H       -4.8713210     0.9418730    -0.2585160
  H        4.5591860    -1.3270150     0.0072260
  H        4.7445120     1.1601010    -0.3803610
  H        2.6378470     2.5042230    -0.4179490
units angstrom
no_reorient  #important for SAPT in psi4, default
symmetry c1  #important for SAPT in psi4, default
}

set PROPERTIES_ORIGIN ["COM"]
properties('MP2/aug-cc-pvtz', properties = ['dipole'])
--------------------------------------------------------------------------

    Molecular point group: c1
  Charge       = 0
  Multiplicity = 1
  Basis Set: AUG-CC-PVTZ
    Blend: AUG-CC-PVTZ
  Basis Set: (AUG-CC-PVTZ AUX)
    Blend: AUG-CC-PVTZ-JKFIT

    Orbital Energies [Eh]
    ---------------------

    Doubly Occupied:

       1A    -15.592221     2A    -15.556207     3A    -11.327494
       4A    -11.282565     5A    -11.279896     6A    -11.263659
       7A    -11.239438     8A    -11.235197     9A    -11.232547
      10A    -11.232309    11A    -11.230302    12A    -11.223295
      13A    -11.218279    14A     -1.296441    15A     -1.222078
      16A     -1.134433    17A     -1.088000    18A     -1.034241
      19A     -1.010390    20A     -0.980900    21A     -0.869405
      22A     -0.861690    23A     -0.825693    24A     -0.801057
      25A     -0.727286    26A     -0.715850    27A     -0.679694
      28A     -0.664739    29A     -0.642034    30A     -0.624174
      31A     -0.600101    32A     -0.598144    33A     -0.583516
      34A     -0.579520    35A     -0.568859    36A     -0.534366
      37A     -0.517811    38A     -0.507952    39A     -0.489030
      40A     -0.460117    41A     -0.418579    42A     -0.386020
      43A     -0.343059    44A     -0.332950    45A     -0.282274

  @DF-RHF Final Energy:  -531.44930356986595

   => Energetics <=

    Nuclear Repulsion Energy =            698.6630840708878623
    One-Electron Energy =               -2105.6371551254965198
    Two-Electron Energy =                 875.5247674847427106
    Total Energy =                       -531.4493035698659469
  Basis Set: (AUG-CC-PVTZ AUX)
    Blend: AUG-CC-PVTZ-RI
    Molecular point group: c1

    Geometry (in Angstrom), charge = 0, multiplicity = 1:

       Center              X                  Y                   Z               Mass
    ------------   -----------------  -----------------  -----------------  -----------------
         N            0.030631986930    -0.985782023243     0.322293102427    14.003074004430
         N            1.373341986930     0.902534976757    -0.083225897573    14.003074004430
         C           -1.229859313070    -0.389475223243     0.137119402427    12.000000000000
         C            1.282223986930    -0.420491023243     0.117892102427    12.000000000000
         C           -2.288707013070    -1.275477023243    -0.221980897573    12.000000000000
         C           -1.518823013070     0.943413976757     0.373710102427    12.000000000000
         C            2.414405986930    -1.262315023243     0.161354102427    12.000000000000
         C           -3.588645013070    -0.795591023243    -0.360728897573    12.000000000000
         C           -2.822793013070     1.413160976757     0.211722102427    12.000000000000
         C           -3.864952013070     0.555886976757    -0.145248897573    12.000000000000
         C            3.668253986930    -0.702565023243    -0.020925897573    12.000000000000
         C            3.775742986930     0.675908976757    -0.237485897573    12.000000000000
         C            2.604189986930     1.422139976757    -0.256964897573    12.000000000000
         H            0.029147986930    -1.999305023243     0.288152102427     1.007825032230
         H           -2.077353013070    -2.327957023243    -0.409353897573     1.007825032230
         H           -0.718031013070     1.614483976757     0.652879102427     1.007825032230
         H            2.301056986930    -2.330824023243     0.332559102427     1.007825032230
         H           -4.384617013070    -1.481908023243    -0.640271897573     1.007825032230
         H           -3.025403013070     2.466820976757     0.390374102427     1.007825032230
         H           -4.876562013070     0.935959976757    -0.261134897573     1.007825032230
         H            4.553944986930    -1.332928023243     0.004607102427     1.007825032230
         H            4.739270986930     1.154187976757    -0.382979897573     1.007825032230
         H            2.632605986930     2.498309976757    -0.420567897573     1.007825032230

  Basis Set: AUG-CC-PVTZ
    Blend: AUG-CC-PVTZ
  Basis Set: (AUG-CC-PVTZ AUX)
    Blend: AUG-CC-PVTZ-JKFIT
	 Reference Energy          =    -531.4493035698659469 [Eh]
	 Singles Energy            =      -0.0000000000000000 [Eh]
	 Same-Spin Energy          =      -0.5920413481708773 [Eh]
	 Opposite-Spin Energy      =      -1.8140123343488310 [Eh]
	 Correlation Energy        =      -2.4060536825197083 [Eh]
	 Total Energy              =    -533.8553572523856019 [Eh]

	 ================> DF-SCS-MP2 Energies <==================
	-----------------------------------------------------------
	 SCS Same-Spin Scale       =       0.3333333333333333 [-]
	 SCS Opposite-Spin Scale   =       1.2000000000000000 [-]
	 SCS Same-Spin Energy      =      -0.1973471160569591 [Eh]
	 SCS Opposite-Spin Energy  =      -2.1768148012185971 [Eh]
	 SCS Correlation Energy    =      -2.3741619172755559 [Eh]
	 SCS Total Energy          =    -533.8234654871414477 [Eh]
	-----------------------------------------------------------

  Dipole Moment: [D]
     X:     1.4571      Y:    -1.8567      Z:    -0.0618     Total:     2.3609

*** Psi4 exiting successfully. Buy a developer a beer!
