                               Psi4 1.3.2 release

  ==> Input File <==

--------------------------------------------------------------------------
#psi4
#
memory 32 gb

molecule  {
0 1
  N        0.0358730    -0.9798690     0.3249120
  N        1.3785830     0.9084480    -0.0806070
  C       -1.1645155    -0.2835961     0.0947361
  C        1.2874650    -0.4145780     0.1205110
  C       -2.2834660    -1.2695640    -0.2193620
  C       -1.5135820     0.9493270     0.3763290
  C        2.4196470    -1.2564020     0.1639730
  C       -3.5834040    -0.7896780    -0.3581100
  C       -2.8175520     1.4190740     0.2143410
  C       -3.8597110     0.5618000    -0.1426300
  C        3.6734950    -0.6966520    -0.0183070
  C        3.7809840     0.6818220    -0.2348670
  C        2.6094310     1.4280530    -0.2543460
  H        0.0343890    -1.9933920     0.2907710
  H       -2.0721120    -2.3220440    -0.4067350
  H       -0.7127900     1.6203970     0.6554980
  H        2.3062980    -2.3249110     0.3351780
  H       -4.3793760    -1.4759950    -0.6376530
  H       -3.0201620     2.4727340     0.3929930
  H       -4.8713210     0.9418730    -0.2585160
  H        4.5591860    -1.3270150     0.0072260
  H        4.7445120     1.1601010    -0.3803610
  H        2.6378470     2.5042230    -0.4179490
units angstrom
no_reorient  #important for SAPT in psi4, default
symmetry c1  #important for SAPT in psi4, default
}

set PROPERTIES_ORIGIN ["COM"]
properties('MP2/aug-cc-pvtz', properties = ['dipole'])
--------------------------------------------------------------------------

    Molecular point group: c1
  Charge       = 0
  Multiplicity = 1
  Basis Set: AUG-CC-PVTZ
    Blend: AUG-CC-PVTZ
  Basis Set: (AUG-CC-PVTZ AUX)
    Blend: AUG-CC-PVTZ-JKFIT

    Orbital Energies [Eh]
    ---------------------

    Doubly Occupied:

       1A    -15.593261     2A    -15.555921     3A    -11.324781
       4A    -11.281800     5A    -11.279790     6A    -11.263265
       7A    -11.240604     8A    -11.238584     9A    -11.234193
      10A    -11.233605    11A    -11.229971    12A    -11.224273
      13A    -11.209150    14A     -1.297459    15A     -1.220963
      16A     -1.134357    17A     -1.087700    18A     -1.033658
      19A     -1.014457    20A     -0.977424    21A     -0.869981
      22A     -0.859320    23A     -0.830288    24A     -0.795008
      25A     -0.726084    26A     -0.717888    27A     -0.679857
      28A     -0.667099    29A     -0.642558    30A     -0.622629
      31A     -0.605526    32A     -0.597293    33A     -0.582133
      34A     -0.574457    35A     -0.566887    36A     -0.534085
      37A     -0.518003    38A     -0.510679    39A     -0.478474
      40A     -0.458862    41A     -0.417117    42A     -0.385639
      43A     -0.348173    44A     -0.329534    45A     -0.282487

  @DF-RHF Final Energy:  -531.42782685408861

   => Energetics <=

    Nuclear Repulsion Energy =            699.0973742069983246
    One-Electron Energy =               -2106.4998507084683297
    Two-Electron Energy =                 875.9746496473815114
    Total Energy =                       -531.4278268540886074
  Basis Set: (AUG-CC-PVTZ AUX)
    Blend: AUG-CC-PVTZ-RI
    Molecular point group: c1

    Geometry (in Angstrom), charge = 0, multiplicity = 1:

       Center              X                  Y                   Z               Mass
    ------------   -----------------  -----------------  -----------------  -----------------
         N            0.026391541557    -0.992834952329     0.325468152022    14.003074004430
         N            1.369101541557     0.895482047671    -0.080050847978    14.003074004430
         C           -1.173996958443    -0.296562052329     0.095292252022    12.000000000000
         C            1.277983541557    -0.427543952329     0.121067152022    12.000000000000
         C           -2.292947458443    -1.282529952329    -0.218805847978    12.000000000000
         C           -1.523063458443     0.936361047671     0.376885152022    12.000000000000
         C            2.410165541557    -1.269367952329     0.164529152022    12.000000000000
         C           -3.592885458443    -0.802643952329    -0.357553847978    12.000000000000
         C           -2.827033458443     1.406108047671     0.214897152022    12.000000000000
         C           -3.869192458443     0.548834047671    -0.142073847978    12.000000000000
         C            3.664013541557    -0.709617952329    -0.017750847978    12.000000000000
         C            3.771502541557     0.668856047671    -0.234310847978    12.000000000000
         C            2.599949541557     1.415087047671    -0.253789847978    12.000000000000
         H            0.024907541557    -2.006357952329     0.291327152022     1.007825032230
         H           -2.081593458443    -2.335009952329    -0.406178847978     1.007825032230
         H           -0.722271458443     1.607431047671     0.656054152022     1.007825032230
         H            2.296816541557    -2.337876952329     0.335734152022     1.007825032230
         H           -4.388857458443    -1.488960952329    -0.637096847978     1.007825032230
         H           -3.029643458443     2.459768047671     0.393549152022     1.007825032230
         H           -4.880802458443     0.928907047671    -0.257959847978     1.007825032230
         H            4.549704541557    -1.339980952329     0.007782152022     1.007825032230
         H            4.735030541557     1.147135047671    -0.379804847978     1.007825032230
         H            2.628365541557     2.491257047671    -0.417392847978     1.007825032230

  Basis Set: AUG-CC-PVTZ
    Blend: AUG-CC-PVTZ
  Basis Set: (AUG-CC-PVTZ AUX)
    Blend: AUG-CC-PVTZ-JKFIT
	 Reference Energy          =    -531.4278268540886074 [Eh]
	 Singles Energy            =      -0.0000000000000000 [Eh]
	 Same-Spin Energy          =      -0.5919040607211744 [Eh]
	 Opposite-Spin Energy      =      -1.8154043098387609 [Eh]
	 Correlation Energy        =      -2.4073083705599352 [Eh]
	 Total Energy              =    -533.8351352246485249 [Eh]

	 ================> DF-SCS-MP2 Energies <==================
	-----------------------------------------------------------
	 SCS Same-Spin Scale       =       0.3333333333333333 [-]
	 SCS Opposite-Spin Scale   =       1.2000000000000000 [-]
	 SCS Same-Spin Energy      =      -0.1973013535737248 [Eh]
	 SCS Opposite-Spin Energy  =      -2.1784851718065128 [Eh]
	 SCS Correlation Energy    =      -2.3757865253802377 [Eh]
	 SCS Total Energy          =    -533.8036133794688567 [Eh]
	-----------------------------------------------------------

  Dipole Moment: [D]
     X:     1.4233      Y:    -1.8626      Z:    -0.0545     Total:     2.3448

*** Psi4 exiting successfully. Buy a developer a beer!
