                               Psi4 1.3.2 release

  ==> Input File <==

--------------------------------------------------------------------------
#psi4
#
memory 32 gb

molecule  {
0 1
  N        0.0258352    -0.9579236     0.3227043
  N        1.3785830     0.9084480    -0.0806070
  C       -1.2345860    -0.4058730     0.1373700
  C        1.2874650    -0.4145780     0.1205110
  C       -2.2834660    -1.2695640    -0.2193620
  C       -1.5135820     0.9493270     0.3763290
  C        2.4196470    -1.2564020     0.1639730
  C       -3.5834040    -0.7896780    -0.3581100
  C       -2.8175520     1.4190740     0.2143410
  C       -3.8597110     0.5618000    -0.1426300
  C        3.6734950    -0.6966520    -0.0183070
  C        3.7809840     0.6818220    -0.2348670
  C        2.6094310     1.4280530    -0.2543460
  H        0.0343890    -1.9933920     0.2907710
  H       -2.0721120    -2.3220440    -0.4067350
  H       -0.7127900     1.6203970     0.6554980
  H        2.3062980    -2.3249110     0.3351780
  H       -4.3793760    -1.4759950    -0.6376530
  H       -3.0201620     2.4727340     0.3929930
  H       -4.8713210     0.9418730    -0.2585160
  H        4.5591860    -1.3270150     0.0072260
  H        4.7445120     1.1601010    -0.3803610
  H        2.6378470     2.5042230    -0.4179490
units angstrom
no_reorient  #important for SAPT in psi4, default
symmetry c1  #important for SAPT in psi4, default
}

set PROPERTIES_ORIGIN ["COM"]
properties('MP2/aug-cc-pvtz', properties = ['dipole'])
--------------------------------------------------------------------------

    Molecular point group: c1
  Charge       = 0
  Multiplicity = 1
  Basis Set: AUG-CC-PVTZ
    Blend: AUG-CC-PVTZ
  Basis Set: (AUG-CC-PVTZ AUX)
    Blend: AUG-CC-PVTZ-JKFIT

    Orbital Energies [Eh]
    ---------------------

    Doubly Occupied:

       1A    -15.593756     2A    -15.556454     3A    -11.328827
       4A    -11.281487     5A    -11.280274     6A    -11.264610
       7A    -11.240846     8A    -11.234786     9A    -11.231209
      10A    -11.231014    11A    -11.229605    12A    -11.222190
      13A    -11.219241    14A     -1.298135    15A     -1.223832
      16A     -1.133484    17A     -1.088775    18A     -1.036334
      19A     -1.008929    20A     -0.980157    21A     -0.870094
      22A     -0.863282    23A     -0.824931    24A     -0.801115
      25A     -0.728203    26A     -0.714135    27A     -0.679767
      28A     -0.663923    29A     -0.642518    30A     -0.624786
      31A     -0.601638    32A     -0.595066    33A     -0.584534
      34A     -0.578697    35A     -0.569772    36A     -0.534593
      37A     -0.518584    38A     -0.507765    39A     -0.488462
      40A     -0.460010    41A     -0.419610    42A     -0.386584
      43A     -0.344053    44A     -0.331992    45A     -0.280829

  @DF-RHF Final Energy:  -531.44852335388202

   => Energetics <=

    Nuclear Repulsion Energy =            698.9134416645079000
    One-Electron Energy =               -2106.1261484428591757
    Two-Electron Energy =                 875.7641834244692518
    Total Energy =                       -531.4485233538820239
  Basis Set: (AUG-CC-PVTZ AUX)
    Blend: AUG-CC-PVTZ-RI
    Molecular point group: c1

    Geometry (in Angstrom), charge = 0, multiplicity = 1:

       Center              X                  Y                   Z               Mass
    ------------   -----------------  -----------------  -----------------  -----------------
         N            0.022123853724    -0.964069292792     0.320434253862    14.003074004430
         N            1.374871653724     0.902302307208    -0.082877046138    14.003074004430
         C           -1.238297346276    -0.412018692792     0.135099953862    12.000000000000
         C            1.283753653724    -0.420723692792     0.118240953862    12.000000000000
         C           -2.287177346276    -1.275709692792    -0.221632046138    12.000000000000
         C           -1.517293346276     0.943181307208     0.374058953862    12.000000000000
         C            2.415935653724    -1.262547692792     0.161702953862    12.000000000000
         C           -3.587115346276    -0.795823692792    -0.360380046138    12.000000000000
         C           -2.821263346276     1.412928307208     0.212070953862    12.000000000000
         C           -3.863422346276     0.555654307208    -0.144900046138    12.000000000000
         C            3.669783653724    -0.702797692792    -0.020577046138    12.000000000000
         C            3.777272653724     0.675676307208    -0.237137046138    12.000000000000
         C            2.605719653724     1.421907307208    -0.256616046138    12.000000000000
         H            0.030677653724    -1.999537692792     0.288500953862     1.007825032230
         H           -2.075823346276    -2.328189692792    -0.409005046138     1.007825032230
         H           -0.716501346276     1.614251307208     0.653227953862     1.007825032230
         H            2.302586653724    -2.331056692792     0.332907953862     1.007825032230
         H           -4.383087346276    -1.482140692792    -0.639923046138     1.007825032230
         H           -3.023873346276     2.466588307208     0.390722953862     1.007825032230
         H           -4.875032346276     0.935727307208    -0.260786046138     1.007825032230
         H            4.555474653724    -1.333160692792     0.004955953862     1.007825032230
         H            4.740800653724     1.153955307208    -0.382631046138     1.007825032230
         H            2.634135653724     2.498077307208    -0.420219046138     1.007825032230

  Basis Set: AUG-CC-PVTZ
    Blend: AUG-CC-PVTZ
  Basis Set: (AUG-CC-PVTZ AUX)
    Blend: AUG-CC-PVTZ-JKFIT
	 Reference Energy          =    -531.4485233538820239 [Eh]
	 Singles Energy            =      -0.0000000000000000 [Eh]
	 Same-Spin Energy          =      -0.5924131457930821 [Eh]
	 Opposite-Spin Energy      =      -1.8144280894428428 [Eh]
	 Correlation Energy        =      -2.4068412352359250 [Eh]
	 Total Energy              =    -533.8553645891179258 [Eh]

	 ================> DF-SCS-MP2 Energies <==================
	-----------------------------------------------------------
	 SCS Same-Spin Scale       =       0.3333333333333333 [-]
	 SCS Opposite-Spin Scale   =       1.2000000000000000 [-]
	 SCS Same-Spin Energy      =      -0.1974710485976940 [Eh]
	 SCS Opposite-Spin Energy  =      -2.1773137073314115 [Eh]
	 SCS Correlation Energy    =      -2.3747847559291055 [Eh]
	 SCS Total Energy          =    -533.8233081098111370 [Eh]
	-----------------------------------------------------------

  Dipole Moment: [D]
     X:     1.5678      Y:    -1.8743      Z:    -0.0579     Total:     2.4443

*** Psi4 exiting successfully. Buy a developer a beer!
