                               Psi4 1.3.2 release

  ==> Input File <==

--------------------------------------------------------------------------
#psi4
#
memory 32 gb

molecule  {
0 1
  N        0.0268980    -1.0015589     0.3177195
  N        1.3785830     0.9084480    -0.0806070
  C       -1.2345860    -0.4058730     0.1373700
  C        1.2874650    -0.4145780     0.1205110
  C       -2.2834660    -1.2695640    -0.2193620
  C       -1.5135820     0.9493270     0.3763290
  C        2.4196470    -1.2564020     0.1639730
  C       -3.5834040    -0.7896780    -0.3581100
  C       -2.8175520     1.4190740     0.2143410
  C       -3.8597110     0.5618000    -0.1426300
  C        3.6734950    -0.6966520    -0.0183070
  C        3.7809840     0.6818220    -0.2348670
  C        2.6094310     1.4280530    -0.2543460
  H        0.0343890    -1.9933920     0.2907710
  H       -2.0721120    -2.3220440    -0.4067350
  H       -0.7127900     1.6203970     0.6554980
  H        2.3062980    -2.3249110     0.3351780
  H       -4.3793760    -1.4759950    -0.6376530
  H       -3.0201620     2.4727340     0.3929930
  H       -4.8713210     0.9418730    -0.2585160
  H        4.5591860    -1.3270150     0.0072260
  H        4.7445120     1.1601010    -0.3803610
  H        2.6378470     2.5042230    -0.4179490
units angstrom
no_reorient  #important for SAPT in psi4, default
symmetry c1  #important for SAPT in psi4, default
}

set PROPERTIES_ORIGIN ["COM"]
properties('MP2/aug-cc-pvtz', properties = ['dipole'])
--------------------------------------------------------------------------

    Molecular point group: c1
  Charge       = 0
  Multiplicity = 1
  Basis Set: AUG-CC-PVTZ
    Blend: AUG-CC-PVTZ
  Basis Set: (AUG-CC-PVTZ AUX)
    Blend: AUG-CC-PVTZ-JKFIT

    Orbital Energies [Eh]
    ---------------------

    Doubly Occupied:

       1A    -15.589925     2A    -15.558008     3A    -11.329338
       4A    -11.281876     5A    -11.280711     6A    -11.264255
       7A    -11.240490     8A    -11.234446     9A    -11.231641
      10A    -11.231558    11A    -11.229181    12A    -11.222582
      13A    -11.220447    14A     -1.294238    15A     -1.223382
      16A     -1.133683    17A     -1.088806    18A     -1.034653
      19A     -1.008877    20A     -0.981684    21A     -0.869484
      22A     -0.861432    23A     -0.824176    24A     -0.803189
      25A     -0.727370    26A     -0.716402    27A     -0.680239
      28A     -0.664141    29A     -0.643624    30A     -0.624572
      31A     -0.600230    32A     -0.597241    33A     -0.583144
      34A     -0.579698    35A     -0.568563    36A     -0.535188
      37A     -0.518174    38A     -0.507041    39A     -0.489035
      40A     -0.459338    41A     -0.419388    42A     -0.386751
      43A     -0.343751    44A     -0.331939    45A     -0.282498

  @DF-RHF Final Energy:  -531.44984304778109

   => Energetics <=

    Nuclear Repulsion Energy =            698.2896214368687424
    One-Electron Energy =               -2104.8861502230533915
    Two-Electron Energy =                 875.1466857384034483
    Total Energy =                       -531.4498430477810871
  Basis Set: (AUG-CC-PVTZ AUX)
    Blend: AUG-CC-PVTZ-RI
    Molecular point group: c1

    Geometry (in Angstrom), charge = 0, multiplicity = 1:

       Center              X                  Y                   Z               Mass
    ------------   -----------------  -----------------  -----------------  -----------------
         N            0.023099153240    -1.004112092004     0.315859853193    14.003074004430
         N            1.374784153240     0.905894807996    -0.082466646807    14.003074004430
         C           -1.238384846760    -0.408426192004     0.135510353193    12.000000000000
         C            1.283666153240    -0.417131192004     0.118651353193    12.000000000000
         C           -2.287264846760    -1.272117192004    -0.221221646807    12.000000000000
         C           -1.517380846760     0.946773807996     0.374469353193    12.000000000000
         C            2.415848153240    -1.258955192004     0.162113353193    12.000000000000
         C           -3.587202846760    -0.792231192004    -0.359969646807    12.000000000000
         C           -2.821350846760     1.416520807996     0.212481353193    12.000000000000
         C           -3.863509846760     0.559246807996    -0.144489646807    12.000000000000
         C            3.669696153240    -0.699205192004    -0.020166646807    12.000000000000
         C            3.777185153240     0.679268807996    -0.236726646807    12.000000000000
         C            2.605632153240     1.425499807996    -0.256205646807    12.000000000000
         H            0.030590153240    -1.995945192004     0.288911353193     1.007825032230
         H           -2.075910846760    -2.324597192004    -0.408594646807     1.007825032230
         H           -0.716588846760     1.617843807996     0.653638353193     1.007825032230
         H            2.302499153240    -2.327464192004     0.333318353193     1.007825032230
         H           -4.383174846760    -1.478548192004    -0.639512646807     1.007825032230
         H           -3.023960846760     2.470180807996     0.391133353193     1.007825032230
         H           -4.875119846760     0.939319807996    -0.260375646807     1.007825032230
         H            4.555387153240    -1.329568192004     0.005366353193     1.007825032230
         H            4.740713153240     1.157547807996    -0.382220646807     1.007825032230
         H            2.634048153240     2.501669807996    -0.419808646807     1.007825032230

  Basis Set: AUG-CC-PVTZ
    Blend: AUG-CC-PVTZ
  Basis Set: (AUG-CC-PVTZ AUX)
    Blend: AUG-CC-PVTZ-JKFIT
	 Reference Energy          =    -531.4498430477810871 [Eh]
	 Singles Energy            =      -0.0000000000000000 [Eh]
	 Same-Spin Energy          =      -0.5918777163099942 [Eh]
	 Opposite-Spin Energy      =      -1.8137060423453994 [Eh]
	 Correlation Energy        =      -2.4055837586553936 [Eh]
	 Total Energy              =    -533.8554268064365260 [Eh]

	 ================> DF-SCS-MP2 Energies <==================
	-----------------------------------------------------------
	 SCS Same-Spin Scale       =       0.3333333333333333 [-]
	 SCS Opposite-Spin Scale   =       1.2000000000000000 [-]
	 SCS Same-Spin Energy      =      -0.1972925721033314 [Eh]
	 SCS Opposite-Spin Energy  =      -2.1764472508144794 [Eh]
	 SCS Correlation Energy    =      -2.3737398229178108 [Eh]
	 SCS Total Energy          =    -533.8235828706989423 [Eh]
	-----------------------------------------------------------

  Dipole Moment: [D]
     X:     1.5830      Y:    -1.8274      Z:    -0.0636     Total:     2.4185

*** Psi4 exiting successfully. Buy a developer a beer!
