                               Psi4 1.3.2 release

  ==> Input File <==

--------------------------------------------------------------------------
#psi4
#
memory 32 gb

molecule  {
0 1
  N        0.0358730    -0.9798690     0.3249120
  N        1.3785830     0.9084480    -0.0806070
  C       -1.2345860    -0.4058730     0.1373700
  C        1.3340802    -0.4174577     0.1172371
  C       -2.2834660    -1.2695640    -0.2193620
  C       -1.5135820     0.9493270     0.3763290
  C        2.4196470    -1.2564020     0.1639730
  C       -3.5834040    -0.7896780    -0.3581100
  C       -2.8175520     1.4190740     0.2143410
  C       -3.8597110     0.5618000    -0.1426300
  C        3.6734950    -0.6966520    -0.0183070
  C        3.7809840     0.6818220    -0.2348670
  C        2.6094310     1.4280530    -0.2543460
  H        0.0343890    -1.9933920     0.2907710
  H       -2.0721120    -2.3220440    -0.4067350
  H       -0.7127900     1.6203970     0.6554980
  H        2.3062980    -2.3249110     0.3351780
  H       -4.3793760    -1.4759950    -0.6376530
  H       -3.0201620     2.4727340     0.3929930
  H       -4.8713210     0.9418730    -0.2585160
  H        4.5591860    -1.3270150     0.0072260
  H        4.7445120     1.1601010    -0.3803610
  H        2.6378470     2.5042230    -0.4179490
units angstrom
no_reorient  #important for SAPT in psi4, default
symmetry c1  #important for SAPT in psi4, default
}

set PROPERTIES_ORIGIN ["COM"]
properties('MP2/aug-cc-pvtz', properties = ['dipole'])
--------------------------------------------------------------------------

    Molecular point group: c1
  Charge       = 0
  Multiplicity = 1
  Basis Set: AUG-CC-PVTZ
    Blend: AUG-CC-PVTZ
  Basis Set: (AUG-CC-PVTZ AUX)
    Blend: AUG-CC-PVTZ-JKFIT

    Orbital Energies [Eh]
    ---------------------

    Doubly Occupied:

       1A    -15.585874     2A    -15.561152     3A    -11.326322
       4A    -11.282852     5A    -11.279907     6A    -11.267532
       7A    -11.239146     8A    -11.234525     9A    -11.232766
      10A    -11.229521    11A    -11.227067    12A    -11.220256
      13A    -11.217527    14A     -1.291326    15A     -1.219458
      16A     -1.130357    17A     -1.094463    18A     -1.037576
      19A     -1.006776    20A     -0.979289    21A     -0.873672
      22A     -0.859298    23A     -0.822458    24A     -0.801551
      25A     -0.725112    26A     -0.710912    27A     -0.678377
      28A     -0.662882    29A     -0.644246    30A     -0.625847
      31A     -0.600161    32A     -0.592835    33A     -0.581752
      34A     -0.577942    35A     -0.569424    36A     -0.534642
      37A     -0.517836    38A     -0.504992    39A     -0.486829
      40A     -0.455975    41A     -0.426965    42A     -0.388833
      43A     -0.346964    44A     -0.330176    45A     -0.281699

  @DF-RHF Final Energy:  -531.44698856026264

   => Energetics <=

    Nuclear Repulsion Energy =            698.4436459781014719
    One-Electron Energy =               -2105.2511212775989407
    Two-Electron Energy =                 875.3604867392349433
    Total Energy =                       -531.4469885602626391
  Basis Set: (AUG-CC-PVTZ AUX)
    Blend: AUG-CC-PVTZ-RI
    Molecular point group: c1

    Geometry (in Angstrom), charge = 0, multiplicity = 1:

       Center              X                  Y                   Z               Mass
    ------------   -----------------  -----------------  -----------------  -----------------
         N            0.028046388225    -0.984004752647     0.322691177739    14.003074004430
         N            1.370756388225     0.904312247353    -0.082827822261    14.003074004430
         C           -1.242412611775    -0.410008752647     0.135149177739    12.000000000000
         C            1.326253588225    -0.421593452647     0.115016277739    12.000000000000
         C           -2.291292611775    -1.273699752647    -0.221582822261    12.000000000000
         C           -1.521408611775     0.945191247353     0.374108177739    12.000000000000
         C            2.411820388225    -1.260537752647     0.161752177739    12.000000000000
         C           -3.591230611775    -0.793813752647    -0.360330822261    12.000000000000
         C           -2.825378611775     1.414938247353     0.212120177739    12.000000000000
         C           -3.867537611775     0.557664247353    -0.144850822261    12.000000000000
         C            3.665668388225    -0.700787752647    -0.020527822261    12.000000000000
         C            3.773157388225     0.677686247353    -0.237087822261    12.000000000000
         C            2.601604388225     1.423917247353    -0.256566822261    12.000000000000
         H            0.026562388225    -1.997527752647     0.288550177739     1.007825032230
         H           -2.079938611775    -2.326179752647    -0.408955822261     1.007825032230
         H           -0.720616611775     1.616261247353     0.653277177739     1.007825032230
         H            2.298471388225    -2.329046752647     0.332957177739     1.007825032230
         H           -4.387202611775    -1.480130752647    -0.639873822261     1.007825032230
         H           -3.027988611775     2.468598247353     0.390772177739     1.007825032230
         H           -4.879147611775     0.937737247353    -0.260736822261     1.007825032230
         H            4.551359388225    -1.331150752647     0.005005177739     1.007825032230
         H            4.736685388225     1.155965247353    -0.382581822261     1.007825032230
         H            2.630020388225     2.500087247353    -0.420169822261     1.007825032230

  Basis Set: AUG-CC-PVTZ
    Blend: AUG-CC-PVTZ
  Basis Set: (AUG-CC-PVTZ AUX)
    Blend: AUG-CC-PVTZ-JKFIT
	 Reference Energy          =    -531.4469885602626391 [Eh]
	 Singles Energy            =      -0.0000000000000000 [Eh]
	 Same-Spin Energy          =      -0.5921619428592141 [Eh]
	 Opposite-Spin Energy      =      -1.8142191557459766 [Eh]
	 Correlation Energy        =      -2.4063810986051908 [Eh]
	 Total Energy              =    -533.8533696588677913 [Eh]

	 ================> DF-SCS-MP2 Energies <==================
	-----------------------------------------------------------
	 SCS Same-Spin Scale       =       0.3333333333333333 [-]
	 SCS Opposite-Spin Scale   =       1.2000000000000000 [-]
	 SCS Same-Spin Energy      =      -0.1973873142864047 [Eh]
	 SCS Opposite-Spin Energy  =      -2.1770629868951716 [Eh]
	 SCS Correlation Energy    =      -2.3744503011815765 [Eh]
	 SCS Total Energy          =    -533.8214388614442214 [Eh]
	-----------------------------------------------------------

  Dipole Moment: [D]
     X:     1.9586      Y:    -1.7704      Z:    -0.1085     Total:     2.6424

*** Psi4 exiting successfully. Buy a developer a beer!
