                               Psi4 1.3.2 release

  ==> Input File <==

--------------------------------------------------------------------------
#psi4
#
memory 32 gb

molecule  {
0 1
  N       -0.0019606    -0.8911213     0.3157144
  N        1.3785830     0.9084480    -0.0806070
  C       -1.2345860    -0.4058730     0.1373700
  C        1.2874650    -0.4145780     0.1205110
  C       -2.2834660    -1.2695640    -0.2193620
  C       -1.5135820     0.9493270     0.3763290
  C        2.4196470    -1.2564020     0.1639730
  C       -3.5834040    -0.7896780    -0.3581100
  C       -2.8175520     1.4190740     0.2143410
  C       -3.8597110     0.5618000    -0.1426300
  C        3.6734950    -0.6966520    -0.0183070
  C        3.7809840     0.6818220    -0.2348670
  C        2.6094310     1.4280530    -0.2543460
  H        0.0343890    -1.9933920     0.2907710
  H       -2.0721120    -2.3220440    -0.4067350
  H       -0.7127900     1.6203970     0.6554980
  H        2.3062980    -2.3249110     0.3351780
  H       -4.3793760    -1.4759950    -0.6376530
  H       -3.0201620     2.4727340     0.3929930
  H       -4.8713210     0.9418730    -0.2585160
  H        4.5591860    -1.3270150     0.0072260
  H        4.7445120     1.1601010    -0.3803610
  H        2.6378470     2.5042230    -0.4179490
units angstrom
no_reorient  #important for SAPT in psi4, default
symmetry c1  #important for SAPT in psi4, default
}

set PROPERTIES_ORIGIN ["COM"]
properties('MP2/aug-cc-pvtz', properties = ['dipole'])
--------------------------------------------------------------------------

    Molecular point group: c1
  Charge       = 0
  Multiplicity = 1
  Basis Set: AUG-CC-PVTZ
    Blend: AUG-CC-PVTZ
  Basis Set: (AUG-CC-PVTZ AUX)
    Blend: AUG-CC-PVTZ-JKFIT

    Orbital Energies [Eh]
    ---------------------

    Doubly Occupied:

       1A    -15.598957     2A    -15.557188     3A    -11.331901
       4A    -11.281365     5A    -11.278411     6A    -11.267259
       7A    -11.244742     8A    -11.233479     9A    -11.233076
      10A    -11.229228    11A    -11.226894    12A    -11.218644
      13A    -11.214957    14A     -1.304769    15A     -1.229187
      16A     -1.130333    17A     -1.090993    18A     -1.040917
      19A     -1.007164    20A     -0.977084    21A     -0.872797
      22A     -0.867726    23A     -0.825596    24A     -0.798991
      25A     -0.731975    26A     -0.709577    27A     -0.679620
      28A     -0.663276    29A     -0.642893    30A     -0.626031
      31A     -0.603335    32A     -0.595488    33A     -0.583553
      34A     -0.572462    35A     -0.571341    36A     -0.534766
      37A     -0.520551    38A     -0.507272    39A     -0.484993
      40A     -0.459170    41A     -0.421854    42A     -0.388127
      43A     -0.345946    44A     -0.330609    45A     -0.276201

  @DF-RHF Final Energy:  -531.43438247212544

   => Energetics <=

    Nuclear Repulsion Energy =            699.9524458529117510
    One-Electron Energy =               -2108.1522593218815018
    Two-Electron Energy =                 876.7654309968443158
    Total Energy =                       -531.4343824721254350
  Basis Set: (AUG-CC-PVTZ AUX)
    Blend: AUG-CC-PVTZ-RI
    Molecular point group: c1

    Geometry (in Angstrom), charge = 0, multiplicity = 1:

       Center              X                  Y                   Z               Mass
    ------------   -----------------  -----------------  -----------------  -----------------
         N           -0.003383513897    -0.902766836163     0.314019833377    14.003074004430
         N            1.377160086103     0.896802463837    -0.082301566623    14.003074004430
         C           -1.236008913897    -0.417518536163     0.135675433377    12.000000000000
         C            1.286042086103    -0.426223536163     0.118816433377    12.000000000000
         C           -2.284888913897    -1.281209536163    -0.221056566623    12.000000000000
         C           -1.515004913897     0.937681463837     0.374634433377    12.000000000000
         C            2.418224086103    -1.268047536163     0.162278433377    12.000000000000
         C           -3.584826913897    -0.801323536163    -0.359804566623    12.000000000000
         C           -2.818974913897     1.407428463837     0.212646433377    12.000000000000
         C           -3.861133913897     0.550154463837    -0.144324566623    12.000000000000
         C            3.672072086103    -0.708297536163    -0.020001566623    12.000000000000
         C            3.779561086103     0.670176463837    -0.236561566623    12.000000000000
         C            2.608008086103     1.416407463837    -0.256040566623    12.000000000000
         H            0.032966086103    -2.005037536163     0.289076433377     1.007825032230
         H           -2.073534913897    -2.333689536163    -0.408429566623     1.007825032230
         H           -0.714212913897     1.608751463837     0.653803433377     1.007825032230
         H            2.304875086103    -2.336556536163     0.333483433377     1.007825032230
         H           -4.380798913897    -1.487640536163    -0.639347566623     1.007825032230
         H           -3.021584913897     2.461088463837     0.391298433377     1.007825032230
         H           -4.872743913897     0.930227463837    -0.260210566623     1.007825032230
         H            4.557763086103    -1.338660536163     0.005531433377     1.007825032230
         H            4.743089086103     1.148455463837    -0.382055566623     1.007825032230
         H            2.636424086103     2.492577463837    -0.419643566623     1.007825032230

  Basis Set: AUG-CC-PVTZ
    Blend: AUG-CC-PVTZ
  Basis Set: (AUG-CC-PVTZ AUX)
    Blend: AUG-CC-PVTZ-JKFIT
	 Reference Energy          =    -531.4343824721254350 [Eh]
	 Singles Energy            =      -0.0000000000000000 [Eh]
	 Same-Spin Energy          =      -0.5937252929378967 [Eh]
	 Opposite-Spin Energy      =      -1.8164630637521575 [Eh]
	 Correlation Energy        =      -2.4101883566900542 [Eh]
	 Total Energy              =    -533.8445708288154492 [Eh]

	 ================> DF-SCS-MP2 Energies <==================
	-----------------------------------------------------------
	 SCS Same-Spin Scale       =       0.3333333333333333 [-]
	 SCS Opposite-Spin Scale   =       1.2000000000000000 [-]
	 SCS Same-Spin Energy      =      -0.1979084309792989 [Eh]
	 SCS Opposite-Spin Energy  =      -2.1797556765025887 [Eh]
	 SCS Correlation Energy    =      -2.3776641074818876 [Eh]
	 SCS Total Energy          =    -533.8120465796073404 [Eh]
	-----------------------------------------------------------

  Dipole Moment: [D]
     X:     1.8868      Y:    -1.9222      Z:    -0.0360     Total:     2.6937

*** Psi4 exiting successfully. Buy a developer a beer!
