                               Psi4 1.3.2 release

  ==> Input File <==

--------------------------------------------------------------------------
#psi4
#
memory 32 gb

molecule  {
0 1
  N        0.0358730    -0.9798690     0.3249120
  N        1.3785830     0.9084480    -0.0806070
  C       -1.2127409    -0.3643476     0.1229068
  C        1.2874650    -0.4145780     0.1205110
  C       -2.2834660    -1.2695640    -0.2193620
  C       -1.5135820     0.9493270     0.3763290
  C        2.4196470    -1.2564020     0.1639730
  C       -3.5834040    -0.7896780    -0.3581100
  C       -2.8175520     1.4190740     0.2143410
  C       -3.8597110     0.5618000    -0.1426300
  C        3.6734950    -0.6966520    -0.0183070
  C        3.7809840     0.6818220    -0.2348670
  C        2.6094310     1.4280530    -0.2543460
  H        0.0343890    -1.9933920     0.2907710
  H       -2.0721120    -2.3220440    -0.4067350
  H       -0.7127900     1.6203970     0.6554980
  H        2.3062980    -2.3249110     0.3351780
  H       -4.3793760    -1.4759950    -0.6376530
  H       -3.0201620     2.4727340     0.3929930
  H       -4.8713210     0.9418730    -0.2585160
  H        4.5591860    -1.3270150     0.0072260
  H        4.7445120     1.1601010    -0.3803610
  H        2.6378470     2.5042230    -0.4179490
units angstrom
no_reorient  #important for SAPT in psi4, default
symmetry c1  #important for SAPT in psi4, default
}

set PROPERTIES_ORIGIN ["COM"]
properties('MP2/aug-cc-pvtz', properties = ['dipole'])
--------------------------------------------------------------------------

    Molecular point group: c1
  Charge       = 0
  Multiplicity = 1
  Basis Set: AUG-CC-PVTZ
    Blend: AUG-CC-PVTZ
  Basis Set: (AUG-CC-PVTZ AUX)
    Blend: AUG-CC-PVTZ-JKFIT

    Orbital Energies [Eh]
    ---------------------

    Doubly Occupied:

       1A    -15.592410     2A    -15.556168     3A    -11.326906
       4A    -11.282494     5A    -11.279880     6A    -11.263589
       7A    -11.239286     8A    -11.235299     9A    -11.233893
      10A    -11.232557    11A    -11.230261    12A    -11.223389
      13A    -11.216699    14A     -1.296657    15A     -1.221873
      16A     -1.134263    17A     -1.087949    18A     -1.033765
      19A     -1.011016    20A     -0.980423    21A     -0.869506
      22A     -0.861222    23A     -0.826353    24A     -0.800200
      25A     -0.726657    26A     -0.716491    27A     -0.679612
      28A     -0.665065    29A     -0.642017    30A     -0.623928
      31A     -0.599800    32A     -0.599164    33A     -0.582845
      34A     -0.579114    35A     -0.568805    36A     -0.534320
      37A     -0.517746    38A     -0.508198    39A     -0.487955
      40A     -0.460059    41A     -0.418391    42A     -0.385944
      43A     -0.343155    44A     -0.332813    45A     -0.282373

  @DF-RHF Final Energy:  -531.44736993828565

   => Energetics <=

    Nuclear Repulsion Energy =            698.7515548468312545
    One-Electron Energy =               -2105.8168344569567125
    Two-Electron Energy =                 875.6179096718396977
    Total Energy =                       -531.4473699382856466
  Basis Set: (AUG-CC-PVTZ AUX)
    Blend: AUG-CC-PVTZ-RI
    Molecular point group: c1

    Geometry (in Angstrom), charge = 0, multiplicity = 1:

       Center              X                  Y                   Z               Mass
    ------------   -----------------  -----------------  -----------------  -----------------
         N            0.029793998253    -0.987137674921     0.323480618754    14.003074004430
         N            1.372503998253     0.901179325079    -0.082038381246    14.003074004430
         C           -1.218819901747    -0.371616274921     0.121475418754    12.000000000000
         C            1.281385998253    -0.421846674921     0.119079618754    12.000000000000
         C           -2.289545001747    -1.276832674921    -0.220793381246    12.000000000000
         C           -1.519661001747     0.942058325079     0.374897618754    12.000000000000
         C            2.413567998253    -1.263670674921     0.162541618754    12.000000000000
         C           -3.589483001747    -0.796946674921    -0.359541381246    12.000000000000
         C           -2.823631001747     1.411805325079     0.212909618754    12.000000000000
         C           -3.865790001747     0.554531325079    -0.144061381246    12.000000000000
         C            3.667415998253    -0.703920674921    -0.019738381246    12.000000000000
         C            3.774904998253     0.674553325079    -0.236298381246    12.000000000000
         C            2.603351998253     1.420784325079    -0.255777381246    12.000000000000
         H            0.028309998253    -2.000660674921     0.289339618754     1.007825032230
         H           -2.078191001747    -2.329312674921    -0.408166381246     1.007825032230
         H           -0.718869001747     1.613128325079     0.654066618754     1.007825032230
         H            2.300218998253    -2.332179674921     0.333746618754     1.007825032230
         H           -4.385455001747    -1.483263674921    -0.639084381246     1.007825032230
         H           -3.026241001747     2.465465325079     0.391561618754     1.007825032230
         H           -4.877400001747     0.934604325079    -0.259947381246     1.007825032230
         H            4.553106998253    -1.334283674921     0.005794618754     1.007825032230
         H            4.738432998253     1.152832325079    -0.381792381246     1.007825032230
         H            2.631767998253     2.496954325079    -0.419380381246     1.007825032230

  Basis Set: AUG-CC-PVTZ
    Blend: AUG-CC-PVTZ
  Basis Set: (AUG-CC-PVTZ AUX)
    Blend: AUG-CC-PVTZ-JKFIT
	 Reference Energy          =    -531.4473699382856466 [Eh]
	 Singles Energy            =      -0.0000000000000000 [Eh]
	 Same-Spin Energy          =      -0.5920425918861472 [Eh]
	 Opposite-Spin Energy      =      -1.8141611700854390 [Eh]
	 Correlation Energy        =      -2.4062037619715859 [Eh]
	 Total Energy              =    -533.8535737002572432 [Eh]

	 ================> DF-SCS-MP2 Energies <==================
	-----------------------------------------------------------
	 SCS Same-Spin Scale       =       0.3333333333333333 [-]
	 SCS Opposite-Spin Scale   =       1.2000000000000000 [-]
	 SCS Same-Spin Energy      =      -0.1973475306287157 [Eh]
	 SCS Opposite-Spin Energy  =      -2.1769934041025265 [Eh]
	 SCS Correlation Energy    =      -2.3743409347312423 [Eh]
	 SCS Total Energy          =    -533.8217108730168547 [Eh]
	-----------------------------------------------------------

  Dipole Moment: [D]
     X:     1.4518      Y:    -1.8590      Z:    -0.0618     Total:     2.3595

*** Psi4 exiting successfully. Buy a developer a beer!
