                               Psi4 1.3.2 release

  ==> Input File <==

--------------------------------------------------------------------------
#psi4
#
memory 32 gb

molecule  {
0 1
  N        0.0358730    -0.9798690     0.3249120
  N        1.3785830     0.9084480    -0.0806070
  C       -1.2345860    -0.4058730     0.1373700
  C        1.2874650    -0.4145780     0.1205110
  C       -2.1341344    -1.1465982    -0.1685732
  C       -1.5135820     0.9493270     0.3763290
  C        2.4196470    -1.2564020     0.1639730
  C       -3.5834040    -0.7896780    -0.3581100
  C       -2.8175520     1.4190740     0.2143410
  C       -3.8597110     0.5618000    -0.1426300
  C        3.6734950    -0.6966520    -0.0183070
  C        3.7809840     0.6818220    -0.2348670
  C        2.6094310     1.4280530    -0.2543460
  H        0.0343890    -1.9933920     0.2907710
  H       -2.0721120    -2.3220440    -0.4067350
  H       -0.7127900     1.6203970     0.6554980
  H        2.3062980    -2.3249110     0.3351780
  H       -4.3793760    -1.4759950    -0.6376530
  H       -3.0201620     2.4727340     0.3929930
  H       -4.8713210     0.9418730    -0.2585160
  H        4.5591860    -1.3270150     0.0072260
  H        4.7445120     1.1601010    -0.3803610
  H        2.6378470     2.5042230    -0.4179490
units angstrom
no_reorient  #important for SAPT in psi4, default
symmetry c1  #important for SAPT in psi4, default
}

set PROPERTIES_ORIGIN ["COM"]
properties('MP2/aug-cc-pvtz', properties = ['dipole'])
--------------------------------------------------------------------------

    Molecular point group: c1
  Charge       = 0
  Multiplicity = 1
  Basis Set: AUG-CC-PVTZ
    Blend: AUG-CC-PVTZ
  Basis Set: (AUG-CC-PVTZ AUX)
    Blend: AUG-CC-PVTZ-JKFIT

    Orbital Energies [Eh]
    ---------------------

    Doubly Occupied:

       1A    -15.584731     2A    -15.554160     3A    -11.325661
       4A    -11.278543     5A    -11.262145     6A    -11.254884
       7A    -11.245534     8A    -11.237005     9A    -11.230976
      10A    -11.228461    11A    -11.228200    12A    -11.226775
      13A    -11.225222    14A     -1.296474    15A     -1.227839
      16A     -1.144075    17A     -1.086163    18A     -1.048540
      19A     -0.996824    20A     -0.992488    21A     -0.868446
      22A     -0.860591    23A     -0.831659    24A     -0.796575
      25A     -0.731180    26A     -0.711932    27A     -0.677801
      28A     -0.657611    29A     -0.638474    30A     -0.634400
      31A     -0.608462    32A     -0.597750    33A     -0.586430
      34A     -0.572363    35A     -0.557643    36A     -0.533251
      37A     -0.527865    38A     -0.511052    39A     -0.465539
      40A     -0.458146    41A     -0.417807    42A     -0.385114
      43A     -0.360486    44A     -0.318491    45A     -0.293032

  @DF-RHF Final Energy:  -531.38936183159092

   => Energetics <=

    Nuclear Repulsion Energy =            702.0357518707328381
    One-Electron Energy =               -2112.2966347620558736
    Two-Electron Energy =                 878.8715210597321175
    Total Energy =                       -531.3893618315909180
  Basis Set: (AUG-CC-PVTZ AUX)
    Blend: AUG-CC-PVTZ-RI
    Molecular point group: c1

    Geometry (in Angstrom), charge = 0, multiplicity = 1:

       Center              X                  Y                   Z               Mass
    ------------   -----------------  -----------------  -----------------  -----------------
         N            0.020799416651    -0.992883556434     0.318876880800    14.003074004430
         N            1.363509416651     0.895433443566    -0.086642119200    14.003074004430
         C           -1.249659583349    -0.418887556434     0.131334880800    12.000000000000
         C            1.272391416651    -0.427592556434     0.114475880800    12.000000000000
         C           -2.149207983349    -1.159612756434    -0.174608319200    12.000000000000
         C           -1.528655583349     0.936312443566     0.370293880800    12.000000000000
         C            2.404573416651    -1.269416556434     0.157937880800    12.000000000000
         C           -3.598477583349    -0.802692556434    -0.364145119200    12.000000000000
         C           -2.832625583349     1.406059443566     0.208305880800    12.000000000000
         C           -3.874784583349     0.548785443566    -0.148665119200    12.000000000000
         C            3.658421416651    -0.709666556434    -0.024342119200    12.000000000000
         C            3.765910416651     0.668807443566    -0.240902119200    12.000000000000
         C            2.594357416651     1.415038443566    -0.260381119200    12.000000000000
         H            0.019315416651    -2.006406556434     0.284735880800     1.007825032230
         H           -2.087185583349    -2.335058556434    -0.412770119200     1.007825032230
         H           -0.727863583349     1.607382443566     0.649462880800     1.007825032230
         H            2.291224416651    -2.337925556434     0.329142880800     1.007825032230
         H           -4.394449583349    -1.489009556434    -0.643688119200     1.007825032230
         H           -3.035235583349     2.459719443566     0.386957880800     1.007825032230
         H           -4.886394583349     0.928858443566    -0.264551119200     1.007825032230
         H            4.544112416651    -1.340029556434     0.001190880800     1.007825032230
         H            4.729438416651     1.147086443566    -0.386396119200     1.007825032230
         H            2.622773416651     2.491208443566    -0.423984119200     1.007825032230

  Basis Set: AUG-CC-PVTZ
    Blend: AUG-CC-PVTZ
  Basis Set: (AUG-CC-PVTZ AUX)
    Blend: AUG-CC-PVTZ-JKFIT
	 Reference Energy          =    -531.3893618315909180 [Eh]
	 Singles Energy            =      -0.0000000000000000 [Eh]
	 Same-Spin Energy          =      -0.5914250470512341 [Eh]
	 Opposite-Spin Energy      =      -1.8155170786811232 [Eh]
	 Correlation Energy        =      -2.4069421257323573 [Eh]
	 Total Energy              =    -533.7963039573232891 [Eh]

	 ================> DF-SCS-MP2 Energies <==================
	-----------------------------------------------------------
	 SCS Same-Spin Scale       =       0.3333333333333333 [-]
	 SCS Opposite-Spin Scale   =       1.2000000000000000 [-]
	 SCS Same-Spin Energy      =      -0.1971416823504114 [Eh]
	 SCS Opposite-Spin Energy  =      -2.1786204944173480 [Eh]
	 SCS Correlation Energy    =      -2.3757621767677595 [Eh]
	 SCS Total Energy          =    -533.7651240083587254 [Eh]
	-----------------------------------------------------------

  Dipole Moment: [D]
     X:     1.0286      Y:    -1.7298      Z:    -0.0925     Total:     2.0146

*** Psi4 exiting successfully. Buy a developer a beer!
