                               Psi4 1.3.2 release

  ==> Input File <==

--------------------------------------------------------------------------
#psi4
#
memory 32 gb

molecule  {
0 1
  N        0.0358730    -0.9798690     0.3249120
  N        1.3785830     0.9084480    -0.0806070
  C       -1.1690854    -0.2748669     0.1524106
  C        1.2874650    -0.4145780     0.1205110
  C       -2.2834660    -1.2695640    -0.2193620
  C       -1.5135820     0.9493270     0.3763290
  C        2.4196470    -1.2564020     0.1639730
  C       -3.5834040    -0.7896780    -0.3581100
  C       -2.8175520     1.4190740     0.2143410
  C       -3.8597110     0.5618000    -0.1426300
  C        3.6734950    -0.6966520    -0.0183070
  C        3.7809840     0.6818220    -0.2348670
  C        2.6094310     1.4280530    -0.2543460
  H        0.0343890    -1.9933920     0.2907710
  H       -2.0721120    -2.3220440    -0.4067350
  H       -0.7127900     1.6203970     0.6554980
  H        2.3062980    -2.3249110     0.3351780
  H       -4.3793760    -1.4759950    -0.6376530
  H       -3.0201620     2.4727340     0.3929930
  H       -4.8713210     0.9418730    -0.2585160
  H        4.5591860    -1.3270150     0.0072260
  H        4.7445120     1.1601010    -0.3803610
  H        2.6378470     2.5042230    -0.4179490
units angstrom
no_reorient  #important for SAPT in psi4, default
symmetry c1  #important for SAPT in psi4, default
}

set PROPERTIES_ORIGIN ["COM"]
properties('MP2/aug-cc-pvtz', properties = ['dipole'])
--------------------------------------------------------------------------

    Molecular point group: c1
  Charge       = 0
  Multiplicity = 1
  Basis Set: AUG-CC-PVTZ
    Blend: AUG-CC-PVTZ
  Basis Set: (AUG-CC-PVTZ AUX)
    Blend: AUG-CC-PVTZ-JKFIT

    Orbital Energies [Eh]
    ---------------------

    Doubly Occupied:

       1A    -15.593454     2A    -15.555795     3A    -11.324940
       4A    -11.280904     5A    -11.279725     6A    -11.263240
       7A    -11.241168     8A    -11.238531     9A    -11.234123
      10A    -11.234048    11A    -11.229850    12A    -11.224072
      13A    -11.205970    14A     -1.297213    15A     -1.220839
      16A     -1.135370    17A     -1.087640    18A     -1.034820
      19A     -1.015709    20A     -0.976973    21A     -0.869940
      22A     -0.859587    23A     -0.831949    24A     -0.793696
      25A     -0.726144    26A     -0.718831    27A     -0.679935
      28A     -0.667879    29A     -0.642788    30A     -0.622447
      31A     -0.607040    32A     -0.597285    33A     -0.582492
      34A     -0.573685    35A     -0.566078    36A     -0.533997
      37A     -0.518238    38A     -0.511853    39A     -0.476857
      40A     -0.458112    41A     -0.416407    42A     -0.385615
      43A     -0.350732    44A     -0.329099    45A     -0.282195

  @DF-RHF Final Energy:  -531.42370830049811

   => Energetics <=

    Nuclear Repulsion Energy =            699.1695796109197545
    One-Electron Energy =               -2106.6320429511611110
    Two-Electron Energy =                 876.0387550397432506
    Total Energy =                       -531.4237083004981059
  Basis Set: (AUG-CC-PVTZ AUX)
    Blend: AUG-CC-PVTZ-RI
    Molecular point group: c1

    Geometry (in Angstrom), charge = 0, multiplicity = 1:

       Center              X                  Y                   Z               Mass
    ------------   -----------------  -----------------  -----------------  -----------------
         N            0.026713962664    -0.993450825395     0.321399031004    14.003074004430
         N            1.369423962664     0.894866174605    -0.084119968996    14.003074004430
         C           -1.178244437336    -0.288448725395     0.148897631004    12.000000000000
         C            1.278305962664    -0.428159825395     0.116998031004    12.000000000000
         C           -2.292625037336    -1.283145825395    -0.222874968996    12.000000000000
         C           -1.522741037336     0.935745174605     0.372816031004    12.000000000000
         C            2.410487962664    -1.269983825395     0.160460031004    12.000000000000
         C           -3.592563037336    -0.803259825395    -0.361622968996    12.000000000000
         C           -2.826711037336     1.405492174605     0.210828031004    12.000000000000
         C           -3.868870037336     0.548218174605    -0.146142968996    12.000000000000
         C            3.664335962664    -0.710233825395    -0.021819968996    12.000000000000
         C            3.771824962664     0.668240174605    -0.238379968996    12.000000000000
         C            2.600271962664     1.414471174605    -0.257858968996    12.000000000000
         H            0.025229962664    -2.006973825395     0.287258031004     1.007825032230
         H           -2.081271037336    -2.335625825395    -0.410247968996     1.007825032230
         H           -0.721949037336     1.606815174605     0.651985031004     1.007825032230
         H            2.297138962664    -2.338492825395     0.331665031004     1.007825032230
         H           -4.388535037336    -1.489576825395    -0.641165968996     1.007825032230
         H           -3.029321037336     2.459152174605     0.389480031004     1.007825032230
         H           -4.880480037336     0.928291174605    -0.262028968996     1.007825032230
         H            4.550026962664    -1.340596825395     0.003713031004     1.007825032230
         H            4.735352962664     1.146519174605    -0.383873968996     1.007825032230
         H            2.628687962664     2.490641174605    -0.421461968996     1.007825032230

  Basis Set: AUG-CC-PVTZ
    Blend: AUG-CC-PVTZ
  Basis Set: (AUG-CC-PVTZ AUX)
    Blend: AUG-CC-PVTZ-JKFIT
	 Reference Energy          =    -531.4237083004981059 [Eh]
	 Singles Energy            =      -0.0000000000000000 [Eh]
	 Same-Spin Energy          =      -0.5915977373674152 [Eh]
	 Opposite-Spin Energy      =      -1.8152535067841922 [Eh]
	 Correlation Energy        =      -2.4068512441516074 [Eh]
	 Total Energy              =    -533.8305595446497591 [Eh]

	 ================> DF-SCS-MP2 Energies <==================
	-----------------------------------------------------------
	 SCS Same-Spin Scale       =       0.3333333333333333 [-]
	 SCS Opposite-Spin Scale   =       1.2000000000000000 [-]
	 SCS Same-Spin Energy      =      -0.1971992457891384 [Eh]
	 SCS Opposite-Spin Energy  =      -2.1783042081410304 [Eh]
	 SCS Correlation Energy    =      -2.3755034539301687 [Eh]
	 SCS Total Energy          =    -533.7992117544282564 [Eh]
	-----------------------------------------------------------

  Dipole Moment: [D]
     X:     1.4280      Y:    -1.8649      Z:    -0.0428     Total:     2.3492

*** Psi4 exiting successfully. Buy a developer a beer!
