                               Psi4 1.4a3.dev225

  ==> Input File <==

--------------------------------------------------------------------------
#psi4
#
memory 32 gb

molecule  {
0 1
  N        0.0358730    -0.9798690     0.3249120
  N        1.3785830     0.9084480    -0.0806070
  C       -1.2345860    -0.4058730     0.1373700
  C        1.2840684    -0.4638959     0.1280080
  C       -2.2834660    -1.2695640    -0.2193620
  C       -1.5135820     0.9493270     0.3763290
  C        2.4196470    -1.2564020     0.1639730
  C       -3.5834040    -0.7896780    -0.3581100
  C       -2.8175520     1.4190740     0.2143410
  C       -3.8597110     0.5618000    -0.1426300
  C        3.6734950    -0.6966520    -0.0183070
  C        3.7809840     0.6818220    -0.2348670
  C        2.6094310     1.4280530    -0.2543460
  H        0.0343890    -1.9933920     0.2907710
  H       -2.0721120    -2.3220440    -0.4067350
  H       -0.7127900     1.6203970     0.6554980
  H        2.3062980    -2.3249110     0.3351780
  H       -4.3793760    -1.4759950    -0.6376530
  H       -3.0201620     2.4727340     0.3929930
  H       -4.8713210     0.9418730    -0.2585160
  H        4.5591860    -1.3270150     0.0072260
  H        4.7445120     1.1601010    -0.3803610
  H        2.6378470     2.5042230    -0.4179490
units angstrom
no_reorient  #important for SAPT in psi4, default
symmetry c1  #important for SAPT in psi4, default
}

set PROPERTIES_ORIGIN ["COM"]
properties('MP2/aug-cc-pvtz', properties = ['dipole'])
--------------------------------------------------------------------------

    Molecular point group: c1
  Charge       = 0
  Multiplicity = 1
  Basis Set: AUG-CC-PVTZ
    Blend: AUG-CC-PVTZ
  Basis Set: (AUG-CC-PVTZ AUX)
    Blend: AUG-CC-PVTZ-JKFIT

    Orbital Energies [Eh]
    ---------------------

    Doubly Occupied:

       1A    -15.595133     2A    -15.557040     3A    -11.327407
       4A    -11.285021     5A    -11.278446     6A    -11.263918
       7A    -11.236412     8A    -11.235129     9A    -11.232831
      10A    -11.232473    11A    -11.228156    12A    -11.224948
      13A    -11.222131    14A     -1.296393    15A     -1.216643
      16A     -1.137132    17A     -1.084763    18A     -1.037031
      19A     -1.010826    20A     -0.982868    21A     -0.869506
      22A     -0.861442    23A     -0.824569    24A     -0.803856
      25A     -0.730062    26A     -0.716536    27A     -0.680807
      28A     -0.661642    29A     -0.640268    30A     -0.625304
      31A     -0.604198    32A     -0.595243    33A     -0.585137
      34A     -0.580267    35A     -0.568889    36A     -0.531006
      37A     -0.516943    38A     -0.508699    39A     -0.490175
      40A     -0.462629    41A     -0.416292    42A     -0.382389
      43A     -0.344364    44A     -0.333418    45A     -0.282073

  @DF-RHF Final Energy:  -531.44522904000735

   => Energetics <=

    Nuclear Repulsion Energy =            698.3179576052011726
    One-Electron Energy =               -2104.9255449654192489
    Two-Electron Energy =                 875.1623583202107284
    Total Energy =                       -531.4452290400073480
  Basis Set: (AUG-CC-PVTZ AUX)
    Blend: AUG-CC-PVTZ-RI
    Molecular point group: c1

    Geometry (in Angstrom), charge = 0, multiplicity = 1:

       Center              X                  Y                   Z               Mass
    ------------   -----------------  -----------------  -----------------  -----------------
         N            0.031574881173    -0.980728388645     0.321931256187    14.003074004430
         N            1.374284881173     0.907588611355    -0.083587743813    14.003074004430
         C           -1.238884118827    -0.406732388645     0.134389256187    12.000000000000
         C            1.279770281173    -0.464755288645     0.125027256187    12.000000000000
         C           -2.287764118827    -1.270423388645    -0.222342743813    12.000000000000
         C           -1.517880118827     0.948467611355     0.373348256187    12.000000000000
         C            2.415348881173    -1.257261388645     0.160992256187    12.000000000000
         C           -3.587702118827    -0.790537388645    -0.361090743813    12.000000000000
         C           -2.821850118827     1.418214611355     0.211360256187    12.000000000000
         C           -3.864009118827     0.560940611355    -0.145610743813    12.000000000000
         C            3.669196881173    -0.697511388645    -0.021287743813    12.000000000000
         C            3.776685881173     0.680962611355    -0.237847743813    12.000000000000
         C            2.605132881173     1.427193611355    -0.257326743813    12.000000000000
         H            0.030090881173    -1.994251388645     0.287790256187     1.007825032230
         H           -2.076410118827    -2.322903388645    -0.409715743813     1.007825032230
         H           -0.717088118827     1.619537611355     0.652517256187     1.007825032230
         H            2.301999881173    -2.325770388645     0.332197256187     1.007825032230
         H           -4.383674118827    -1.476854388645    -0.640633743813     1.007825032230
         H           -3.024460118827     2.471874611355     0.390012256187     1.007825032230
         H           -4.875619118827     0.941013611355    -0.261496743813     1.007825032230
         H            4.554887881173    -1.327874388645     0.004245256187     1.007825032230
         H            4.740213881173     1.159241611355    -0.383341743813     1.007825032230
         H            2.633548881173     2.503363611355    -0.420929743813     1.007825032230

  Basis Set: AUG-CC-PVTZ
    Blend: AUG-CC-PVTZ
  Basis Set: (AUG-CC-PVTZ AUX)
    Blend: AUG-CC-PVTZ-JKFIT
	 Reference Energy          =    -531.4452290400073480 [Eh]
	 Singles Energy            =      -0.0000000000000000 [Eh]
	 Same-Spin Energy          =      -0.5926441225486685 [Eh]
	 Opposite-Spin Energy      =      -1.8150357987285113 [Eh]
	 Correlation Energy        =      -2.4076799212771798 [Eh]
	 Total Energy              =    -533.8529089612845837 [Eh]

	 ================> DF-SCS-MP2 Energies <==================
	-----------------------------------------------------------
	 SCS Same-Spin Scale       =       0.3333333333333333 [-]
	 SCS Opposite-Spin Scale   =       1.2000000000000000 [-]
	 SCS Same-Spin Energy      =      -0.1975480408495562 [Eh]
	 SCS Opposite-Spin Energy  =      -2.1780429584742134 [Eh]
	 SCS Correlation Energy    =      -2.3755909993237694 [Eh]
	 SCS Total Energy          =    -533.8208200393311245 [Eh]
	-----------------------------------------------------------

  Dipole Moment: [D]
     X:     1.2110      Y:    -1.8891      Z:    -0.0469     Total:     2.2444

*** Psi4 exiting successfully. Buy a developer a beer!
