                               Psi4 1.3.2 release

  ==> Input File <==

--------------------------------------------------------------------------
#psi4
#
memory 32 gb

molecule  {
0 1
  N        0.0358730    -0.9798690     0.3249120
  N        1.3785830     0.9084480    -0.0806070
  C       -1.3249030    -0.3650676     0.1240376
  C        1.2874650    -0.4145780     0.1205110
  C       -2.2834660    -1.2695640    -0.2193620
  C       -1.5135820     0.9493270     0.3763290
  C        2.4196470    -1.2564020     0.1639730
  C       -3.5834040    -0.7896780    -0.3581100
  C       -2.8175520     1.4190740     0.2143410
  C       -3.8597110     0.5618000    -0.1426300
  C        3.6734950    -0.6966520    -0.0183070
  C        3.7809840     0.6818220    -0.2348670
  C        2.6094310     1.4280530    -0.2543460
  H        0.0343890    -1.9933920     0.2907710
  H       -2.0721120    -2.3220440    -0.4067350
  H       -0.7127900     1.6203970     0.6554980
  H        2.3062980    -2.3249110     0.3351780
  H       -4.3793760    -1.4759950    -0.6376530
  H       -3.0201620     2.4727340     0.3929930
  H       -4.8713210     0.9418730    -0.2585160
  H        4.5591860    -1.3270150     0.0072260
  H        4.7445120     1.1601010    -0.3803610
  H        2.6378470     2.5042230    -0.4179490
units angstrom
no_reorient  #important for SAPT in psi4, default
symmetry c1  #important for SAPT in psi4, default
}

set PROPERTIES_ORIGIN ["COM"]
properties('MP2/aug-cc-pvtz', properties = ['dipole'])
--------------------------------------------------------------------------

    Molecular point group: c1
  Charge       = 0
  Multiplicity = 1
  Basis Set: AUG-CC-PVTZ
    Blend: AUG-CC-PVTZ
  Basis Set: (AUG-CC-PVTZ AUX)
    Blend: AUG-CC-PVTZ-JKFIT

    Orbital Energies [Eh]
    ---------------------

    Doubly Occupied:

       1A    -15.582356     2A    -15.550470     3A    -11.322175
       4A    -11.280133     5A    -11.275806     6A    -11.259354
       7A    -11.239213     8A    -11.236051     9A    -11.233739
      10A    -11.232152    11A    -11.228674    12A    -11.225074
      13A    -11.220696    14A     -1.281702    15A     -1.208055
      16A     -1.145754    17A     -1.083119    18A     -1.030354
      19A     -1.020885    20A     -0.984657    21A     -0.863316
      22A     -0.853157    23A     -0.831151    24A     -0.803357
      25A     -0.721749    26A     -0.709915    27A     -0.674944
      28A     -0.659796    29A     -0.636222    30A     -0.628389
      31A     -0.604358    32A     -0.595171    33A     -0.585781
      34A     -0.573963    35A     -0.563966    36A     -0.529983
      37A     -0.520490    38A     -0.503433    39A     -0.502793
      40A     -0.456472    41A     -0.414094    42A     -0.381801
      43A     -0.344818    44A     -0.338149    45A     -0.287843

  @DF-RHF Final Energy:  -531.43993154978568

   => Energetics <=

    Nuclear Repulsion Energy =            698.5336092105222860
    One-Electron Energy =               -2105.4960176531935758
    Two-Electron Energy =                 875.5224768928857202
    Total Energy =                       -531.4399315497856833
  Basis Set: (AUG-CC-PVTZ AUX)
    Blend: AUG-CC-PVTZ-RI
    Molecular point group: c1

    Geometry (in Angstrom), charge = 0, multiplicity = 1:

       Center              X                  Y                   Z               Mass
    ------------   -----------------  -----------------  -----------------  -----------------
         N            0.037707394268    -0.987086876611     0.323400837186    14.003074004430
         N            1.380417394268     0.901230123389    -0.082118162814    14.003074004430
         C           -1.323068605732    -0.372285476611     0.122526437186    12.000000000000
         C            1.289299394268    -0.421795876611     0.118999837186    12.000000000000
         C           -2.281631605732    -1.276781876611    -0.220873162814    12.000000000000
         C           -1.511747605732     0.942109123389     0.374817837186    12.000000000000
         C            2.421481394268    -1.263619876611     0.162461837186    12.000000000000
         C           -3.581569605732    -0.796895876611    -0.359621162814    12.000000000000
         C           -2.815717605732     1.411856123389     0.212829837186    12.000000000000
         C           -3.857876605732     0.554582123389    -0.144141162814    12.000000000000
         C            3.675329394268    -0.703869876611    -0.019818162814    12.000000000000
         C            3.782818394268     0.674604123389    -0.236378162814    12.000000000000
         C            2.611265394268     1.420835123389    -0.255857162814    12.000000000000
         H            0.036223394268    -2.000609876611     0.289259837186     1.007825032230
         H           -2.070277605732    -2.329261876611    -0.408246162814     1.007825032230
         H           -0.710955605732     1.613179123389     0.653986837186     1.007825032230
         H            2.308132394268    -2.332128876611     0.333666837186     1.007825032230
         H           -4.377541605732    -1.483212876611    -0.639164162814     1.007825032230
         H           -3.018327605732     2.465516123389     0.391481837186     1.007825032230
         H           -4.869486605732     0.934655123389    -0.260027162814     1.007825032230
         H            4.561020394268    -1.334232876611     0.005714837186     1.007825032230
         H            4.746346394268     1.152883123389    -0.381872162814     1.007825032230
         H            2.639681394268     2.497005123389    -0.419460162814     1.007825032230

  Basis Set: AUG-CC-PVTZ
    Blend: AUG-CC-PVTZ
  Basis Set: (AUG-CC-PVTZ AUX)
    Blend: AUG-CC-PVTZ-JKFIT
	 Reference Energy          =    -531.4399315497856833 [Eh]
	 Singles Energy            =      -0.0000000000000000 [Eh]
	 Same-Spin Energy          =      -0.5915313653972418 [Eh]
	 Opposite-Spin Energy      =      -1.8136833229710378 [Eh]
	 Correlation Energy        =      -2.4052146883682797 [Eh]
	 Total Energy              =    -533.8451462381539159 [Eh]

	 ================> DF-SCS-MP2 Energies <==================
	-----------------------------------------------------------
	 SCS Same-Spin Scale       =       0.3333333333333333 [-]
	 SCS Opposite-Spin Scale   =       1.2000000000000000 [-]
	 SCS Same-Spin Energy      =      -0.1971771217990806 [Eh]
	 SCS Opposite-Spin Energy  =      -2.1764199875652452 [Eh]
	 SCS Correlation Energy    =      -2.3735971093643258 [Eh]
	 SCS Total Energy          =    -533.8135286591500517 [Eh]
	-----------------------------------------------------------

  Dipole Moment: [D]
     X:     0.6466      Y:    -1.7448      Z:    -0.1127     Total:     1.8642

*** Psi4 exiting successfully. Buy a developer a beer!
