                               Psi4 1.3.2 release

  ==> Input File <==

--------------------------------------------------------------------------
#psi4
#
memory 32 gb

molecule  {
0 1
  N        0.0358730    -0.9798690     0.3249120
  N        1.3785830     0.9084480    -0.0806070
  C       -1.2441667    -0.4283586     0.1350589
  C        1.2874650    -0.4145780     0.1205110
  C       -2.2834660    -1.2695640    -0.2193620
  C       -1.5135820     0.9493270     0.3763290
  C        2.4196470    -1.2564020     0.1639730
  C       -3.5834040    -0.7896780    -0.3581100
  C       -2.8175520     1.4190740     0.2143410
  C       -3.8597110     0.5618000    -0.1426300
  C        3.6734950    -0.6966520    -0.0183070
  C        3.7809840     0.6818220    -0.2348670
  C        2.6094310     1.4280530    -0.2543460
  H        0.0343890    -1.9933920     0.2907710
  H       -2.0721120    -2.3220440    -0.4067350
  H       -0.7127900     1.6203970     0.6554980
  H        2.3062980    -2.3249110     0.3351780
  H       -4.3793760    -1.4759950    -0.6376530
  H       -3.0201620     2.4727340     0.3929930
  H       -4.8713210     0.9418730    -0.2585160
  H        4.5591860    -1.3270150     0.0072260
  H        4.7445120     1.1601010    -0.3803610
  H        2.6378470     2.5042230    -0.4179490
units angstrom
no_reorient  #important for SAPT in psi4, default
symmetry c1  #important for SAPT in psi4, default
}

set PROPERTIES_ORIGIN ["COM"]
properties('MP2/aug-cc-pvtz', properties = ['dipole'])
--------------------------------------------------------------------------

    Molecular point group: c1
  Charge       = 0
  Multiplicity = 1
  Basis Set: AUG-CC-PVTZ
    Blend: AUG-CC-PVTZ
  Basis Set: (AUG-CC-PVTZ AUX)
    Blend: AUG-CC-PVTZ-JKFIT

    Orbital Energies [Eh]
    ---------------------

    Doubly Occupied:

       1A    -15.591809     2A    -15.556429     3A    -11.328620
       4A    -11.282404     5A    -11.280017     6A    -11.263862
       7A    -11.239806     8A    -11.235250     9A    -11.231377
      10A    -11.230515    11A    -11.228256    12A    -11.223435
      13A    -11.222936    14A     -1.296230    15A     -1.222667
      16A     -1.134812    17A     -1.088189    18A     -1.035835
      19A     -1.008872    20A     -0.981419    21A     -0.869310
      22A     -0.862495    23A     -0.823938    24A     -0.802651
      25A     -0.728994    26A     -0.714027    27A     -0.680237
      28A     -0.664017    29A     -0.642194    30A     -0.624769
      31A     -0.602351    32A     -0.594058    33A     -0.585066
      34A     -0.579596    35A     -0.568715    36A     -0.534549
      37A     -0.518291    38A     -0.507884    39A     -0.488784
      40A     -0.460312    41A     -0.419200    42A     -0.386240
      43A     -0.344699    44A     -0.331496    45A     -0.282359

  @DF-RHF Final Energy:  -531.44938873414981

   => Energetics <=

    Nuclear Repulsion Energy =            698.4927172490891962
    One-Electron Energy =               -2105.2862645999257438
    Two-Electron Energy =                 875.3441586166866273
    Total Energy =                       -531.4493887341498066
  Basis Set: (AUG-CC-PVTZ AUX)
    Blend: AUG-CC-PVTZ-RI
    Molecular point group: c1

    Geometry (in Angstrom), charge = 0, multiplicity = 1:

       Center              X                  Y                   Z               Mass
    ------------   -----------------  -----------------  -----------------  -----------------
         N            0.032011189269    -0.982621493499     0.322623249110    14.003074004430
         N            1.374721189269     0.905695506501    -0.082895750890    14.003074004430
         C           -1.248028510731    -0.431111093499     0.132770149110    12.000000000000
         C            1.283603189269    -0.417330493499     0.118222249110    12.000000000000
         C           -2.287327810731    -1.272316493499    -0.221650750890    12.000000000000
         C           -1.517443810731     0.946574506501     0.374040249110    12.000000000000
         C            2.415785189269    -1.259154493499     0.161684249110    12.000000000000
         C           -3.587265810731    -0.792430493499    -0.360398750890    12.000000000000
         C           -2.821413810731     1.416321506501     0.212052249110    12.000000000000
         C           -3.863572810731     0.559047506501    -0.144918750890    12.000000000000
         C            3.669633189269    -0.699404493499    -0.020595750890    12.000000000000
         C            3.777122189269     0.679069506501    -0.237155750890    12.000000000000
         C            2.605569189269     1.425300506501    -0.256634750890    12.000000000000
         H            0.030527189269    -1.996144493499     0.288482249110     1.007825032230
         H           -2.075973810731    -2.324796493499    -0.409023750890     1.007825032230
         H           -0.716651810731     1.617644506501     0.653209249110     1.007825032230
         H            2.302436189269    -2.327663493499     0.332889249110     1.007825032230
         H           -4.383237810731    -1.478747493499    -0.639941750890     1.007825032230
         H           -3.024023810731     2.469981506501     0.390704249110     1.007825032230
         H           -4.875182810731     0.939120506501    -0.260804750890     1.007825032230
         H            4.555324189269    -1.329767493499     0.004937249110     1.007825032230
         H            4.740650189269     1.157348506501    -0.382649750890     1.007825032230
         H            2.633985189269     2.501470506501    -0.420237750890     1.007825032230

  Basis Set: AUG-CC-PVTZ
    Blend: AUG-CC-PVTZ
  Basis Set: (AUG-CC-PVTZ AUX)
    Blend: AUG-CC-PVTZ-JKFIT
	 Reference Energy          =    -531.4493887341498066 [Eh]
	 Singles Energy            =      -0.0000000000000000 [Eh]
	 Same-Spin Energy          =      -0.5920256793372889 [Eh]
	 Opposite-Spin Energy      =      -1.8139657990566467 [Eh]
	 Correlation Energy        =      -2.4059914783939353 [Eh]
	 Total Energy              =    -533.8553802125437642 [Eh]

	 ================> DF-SCS-MP2 Energies <==================
	-----------------------------------------------------------
	 SCS Same-Spin Scale       =       0.3333333333333333 [-]
	 SCS Opposite-Spin Scale   =       1.2000000000000000 [-]
	 SCS Same-Spin Energy      =      -0.1973418931124296 [Eh]
	 SCS Opposite-Spin Energy  =      -2.1767589588679761 [Eh]
	 SCS Correlation Energy    =      -2.3741008519804057 [Eh]
	 SCS Total Energy          =    -533.8234895861302221 [Eh]
	-----------------------------------------------------------

  Dipole Moment: [D]
     X:     1.4729      Y:    -1.8485      Z:    -0.0706     Total:     2.3647

*** Psi4 exiting successfully. Buy a developer a beer!
