                               Psi4 1.3.2 release

  ==> Input File <==

--------------------------------------------------------------------------
#psi4
#
memory 32 gb

molecule  {
0 1
  N        0.0358730    -0.9798690     0.3249120
  N        1.3785830     0.9084480    -0.0806070
  C       -1.2345860    -0.4058730     0.1373700
  C        1.2874650    -0.4145780     0.1205110
  C       -2.4327976    -1.3925298    -0.2701508
  C       -1.5135820     0.9493270     0.3763290
  C        2.4196470    -1.2564020     0.1639730
  C       -3.5834040    -0.7896780    -0.3581100
  C       -2.8175520     1.4190740     0.2143410
  C       -3.8597110     0.5618000    -0.1426300
  C        3.6734950    -0.6966520    -0.0183070
  C        3.7809840     0.6818220    -0.2348670
  C        2.6094310     1.4280530    -0.2543460
  H        0.0343890    -1.9933920     0.2907710
  H       -2.0721120    -2.3220440    -0.4067350
  H       -0.7127900     1.6203970     0.6554980
  H        2.3062980    -2.3249110     0.3351780
  H       -4.3793760    -1.4759950    -0.6376530
  H       -3.0201620     2.4727340     0.3929930
  H       -4.8713210     0.9418730    -0.2585160
  H        4.5591860    -1.3270150     0.0072260
  H        4.7445120     1.1601010    -0.3803610
  H        2.6378470     2.5042230    -0.4179490
units angstrom
no_reorient  #important for SAPT in psi4, default
symmetry c1  #important for SAPT in psi4, default
}

set PROPERTIES_ORIGIN ["COM"]
properties('MP2/aug-cc-pvtz', properties = ['dipole'])
--------------------------------------------------------------------------

    Molecular point group: c1
  Charge       = 0
  Multiplicity = 1
  Basis Set: AUG-CC-PVTZ
    Blend: AUG-CC-PVTZ
  Basis Set: (AUG-CC-PVTZ AUX)
    Blend: AUG-CC-PVTZ-JKFIT

    Orbital Energies [Eh]
    ---------------------

    Doubly Occupied:

       1A    -15.597205     2A    -15.557676     3A    -11.329309
       4A    -11.296467     5A    -11.280786     6A    -11.264766
       7A    -11.241377     8A    -11.234294     9A    -11.233762
      10A    -11.231911    11A    -11.226171    12A    -11.219452
      13A    -11.214878    14A     -1.296785    15A     -1.220492
      16A     -1.131270    17A     -1.089347    18A     -1.031240
      19A     -1.024207    20A     -0.970367    21A     -0.871483
      22A     -0.863618    23A     -0.827754    24A     -0.795848
      25A     -0.727930    26A     -0.712121    27A     -0.691670
      28A     -0.672396    29A     -0.648575    30A     -0.620488
      31A     -0.605517    32A     -0.593279    33A     -0.587283
      34A     -0.578476    35A     -0.562059    36A     -0.535362
      37A     -0.520797    38A     -0.511765    39A     -0.469962
      40A     -0.453794    41A     -0.417524    42A     -0.386784
      43A     -0.351020    44A     -0.335909    45A     -0.272312

  @DF-RHF Final Energy:  -531.40909050490791

   => Energetics <=

    Nuclear Repulsion Energy =            695.7406873858186600
    One-Electron Energy =               -2099.6885812390273713
    Two-Electron Energy =                 872.5388033483009167
    Total Energy =                       -531.4090905049079083
  Basis Set: (AUG-CC-PVTZ AUX)
    Blend: AUG-CC-PVTZ-RI
    Molecular point group: c1

    Geometry (in Angstrom), charge = 0, multiplicity = 1:

       Center              X                  Y                   Z               Mass
    ------------   -----------------  -----------------  -----------------  -----------------
         N            0.041871063640    -0.975532293009     0.326043506381    14.003074004430
         N            1.384581063640     0.912784706991    -0.079475493619    14.003074004430
         C           -1.228587936360    -0.401536293009     0.138501506381    12.000000000000
         C            1.293463063640    -0.410241293009     0.121642506381    12.000000000000
         C           -2.426799536360    -1.388193093009    -0.269019293619    12.000000000000
         C           -1.507583936360     0.953663706991     0.377460506381    12.000000000000
         C            2.425645063640    -1.252065293009     0.165104506381    12.000000000000
         C           -3.577405936360    -0.785341293009    -0.356978493619    12.000000000000
         C           -2.811553936360     1.423410706991     0.215472506381    12.000000000000
         C           -3.853712936360     0.566136706991    -0.141498493619    12.000000000000
         C            3.679493063640    -0.692315293009    -0.017175493619    12.000000000000
         C            3.786982063640     0.686158706991    -0.233735493619    12.000000000000
         C            2.615429063640     1.432389706991    -0.253214493619    12.000000000000
         H            0.040387063640    -1.989055293009     0.291902506381     1.007825032230
         H           -2.066113936360    -2.317707293009    -0.405603493619     1.007825032230
         H           -0.706791936360     1.624733706991     0.656629506381     1.007825032230
         H            2.312296063640    -2.320574293009     0.336309506381     1.007825032230
         H           -4.373377936360    -1.471658293009    -0.636521493619     1.007825032230
         H           -3.014163936360     2.477070706991     0.394124506381     1.007825032230
         H           -4.865322936360     0.946209706991    -0.257384493619     1.007825032230
         H            4.565184063640    -1.322678293009     0.008357506381     1.007825032230
         H            4.750510063640     1.164437706991    -0.379229493619     1.007825032230
         H            2.643845063640     2.508559706991    -0.416817493619     1.007825032230

  Basis Set: AUG-CC-PVTZ
    Blend: AUG-CC-PVTZ
  Basis Set: (AUG-CC-PVTZ AUX)
    Blend: AUG-CC-PVTZ-JKFIT
	 Reference Energy          =    -531.4090905049079083 [Eh]
	 Singles Energy            =      -0.0000000000000000 [Eh]
	 Same-Spin Energy          =      -0.5917113737403306 [Eh]
	 Opposite-Spin Energy      =      -1.8160008032175452 [Eh]
	 Correlation Energy        =      -2.4077121769578760 [Eh]
	 Total Energy              =    -533.8168026818657381 [Eh]

	 ================> DF-SCS-MP2 Energies <==================
	-----------------------------------------------------------
	 SCS Same-Spin Scale       =       0.3333333333333333 [-]
	 SCS Opposite-Spin Scale   =       1.2000000000000000 [-]
	 SCS Same-Spin Energy      =      -0.1972371245801102 [Eh]
	 SCS Opposite-Spin Energy  =      -2.1792009638610543 [Eh]
	 SCS Correlation Energy    =      -2.3764380884411644 [Eh]
	 SCS Total Energy          =    -533.7855285933491132 [Eh]
	-----------------------------------------------------------

  Dipole Moment: [D]
     X:     1.7030      Y:    -1.9402      Z:    -0.0595     Total:     2.5823

*** Psi4 exiting successfully. Buy a developer a beer!
