                               Psi4 1.3.2 release

  ==> Input File <==

--------------------------------------------------------------------------
#psi4
#
memory 32 gb

molecule  {
0 1
  N        0.0358730    -0.9798690     0.3249120
  N        1.3785830     0.9084480    -0.0806070
  C       -1.2345860    -0.4058730     0.1373700
  C        1.2874650    -0.4145780     0.1205110
  C       -2.2834660    -1.2695640    -0.2193620
  C       -1.5135820     0.9493270     0.3763290
  C        2.4196470    -1.2564020     0.1639730
  C       -3.5834040    -0.7896780    -0.3581100
  C       -2.8175520     1.4190740     0.2143410
  C       -3.8597110     0.5618000    -0.1426300
  C        3.6734950    -0.6966520    -0.0183070
  C        3.7809840     0.6818220    -0.2348670
  C        2.6094310     1.4280530    -0.2543460
  H        0.0342427    -2.0933352     0.2874044
  H       -2.0721120    -2.3220440    -0.4067350
  H       -0.7127900     1.6203970     0.6554980
  H        2.3062980    -2.3249110     0.3351780
  H       -4.3793760    -1.4759950    -0.6376530
  H       -3.0201620     2.4727340     0.3929930
  H       -4.8713210     0.9418730    -0.2585160
  H        4.5591860    -1.3270150     0.0072260
  H        4.7445120     1.1601010    -0.3803610
  H        2.6378470     2.5042230    -0.4179490
units angstrom
no_reorient  #important for SAPT in psi4, default
symmetry c1  #important for SAPT in psi4, default
}

set PROPERTIES_ORIGIN ["COM"]
properties('MP2/aug-cc-pvtz', properties = ['dipole'])
--------------------------------------------------------------------------

    Molecular point group: c1
  Charge       = 0
  Multiplicity = 1
  Basis Set: AUG-CC-PVTZ
    Blend: AUG-CC-PVTZ
  Basis Set: (AUG-CC-PVTZ AUX)
    Blend: AUG-CC-PVTZ-JKFIT

    Orbital Energies [Eh]
    ---------------------

    Doubly Occupied:

       1A    -15.600749     2A    -15.556142     3A    -11.328117
       4A    -11.282809     5A    -11.279785     6A    -11.263407
       7A    -11.239205     8A    -11.235043     9A    -11.231818
      10A    -11.230214    11A    -11.230040    12A    -11.223101
      13A    -11.220701    14A     -1.291959    15A     -1.217268
      16A     -1.133102    17A     -1.087707    18A     -1.034416
      19A     -1.009308    20A     -0.978147    21A     -0.868281
      22A     -0.859945    23A     -0.824020    24A     -0.798555
      25A     -0.725275    26A     -0.705969    27A     -0.678350
      28A     -0.663123    29A     -0.638551    30A     -0.624132
      31A     -0.600273    32A     -0.592176    33A     -0.584023
      34A     -0.575851    35A     -0.568408    36A     -0.534107
      37A     -0.517471    38A     -0.507537    39A     -0.489055
      40A     -0.459530    41A     -0.418697    42A     -0.385889
      43A     -0.343140    44A     -0.332361    45A     -0.281540

  @DF-RHF Final Energy:  -531.43914302145015

   => Energetics <=

    Nuclear Repulsion Energy =            697.9817003258497152
    One-Electron Energy =               -2104.3430986665566707
    Two-Electron Energy =                 874.9222553192568057
    Total Energy =                       -531.4391430214501497
  Basis Set: (AUG-CC-PVTZ AUX)
    Blend: AUG-CC-PVTZ-RI
    Molecular point group: c1

    Geometry (in Angstrom), charge = 0, multiplicity = 1:

       Center              X                  Y                   Z               Mass
    ------------   -----------------  -----------------  -----------------  -----------------
         N            0.031336107037    -0.983615717207     0.322480142179    14.003074004430
         N            1.374046107037     0.904701282793    -0.083038857821    14.003074004430
         C           -1.239122892963    -0.409619717207     0.134938142179    12.000000000000
         C            1.282928107037    -0.418324717207     0.118079142179    12.000000000000
         C           -2.288002892963    -1.273310717207    -0.221793857821    12.000000000000
         C           -1.518118892963     0.945580282793     0.373897142179    12.000000000000
         C            2.415110107037    -1.260148717207     0.161541142179    12.000000000000
         C           -3.587940892963    -0.793424717207    -0.360541857821    12.000000000000
         C           -2.822088892963     1.415327282793     0.211909142179    12.000000000000
         C           -3.864247892963     0.558053282793    -0.145061857821    12.000000000000
         C            3.668958107037    -0.700398717207    -0.020738857821    12.000000000000
         C            3.776447107037     0.678075282793    -0.237298857821    12.000000000000
         C            2.604894107037     1.424306282793    -0.256777857821    12.000000000000
         H            0.029705807037    -2.097081917207     0.284972542179     1.007825032230
         H           -2.076648892963    -2.325790717207    -0.409166857821     1.007825032230
         H           -0.717326892963     1.616650282793     0.653066142179     1.007825032230
         H            2.301761107037    -2.328657717207     0.332746142179     1.007825032230
         H           -4.383912892963    -1.479741717207    -0.640084857821     1.007825032230
         H           -3.024698892963     2.468987282793     0.390561142179     1.007825032230
         H           -4.875857892963     0.938126282793    -0.260947857821     1.007825032230
         H            4.554649107037    -1.330761717207     0.004794142179     1.007825032230
         H            4.739975107037     1.156354282793    -0.382792857821     1.007825032230
         H            2.633310107037     2.500476282793    -0.420380857821     1.007825032230

  Basis Set: AUG-CC-PVTZ
    Blend: AUG-CC-PVTZ
  Basis Set: (AUG-CC-PVTZ AUX)
    Blend: AUG-CC-PVTZ-JKFIT
	 Reference Energy          =    -531.4391430214501497 [Eh]
	 Singles Energy            =      -0.0000000000000000 [Eh]
	 Same-Spin Energy          =      -0.5929803410491714 [Eh]
	 Opposite-Spin Energy      =      -1.8162071178978503 [Eh]
	 Correlation Energy        =      -2.4091874589470219 [Eh]
	 Total Energy              =    -533.8483304803971805 [Eh]

	 ================> DF-SCS-MP2 Energies <==================
	-----------------------------------------------------------
	 SCS Same-Spin Scale       =       0.3333333333333333 [-]
	 SCS Opposite-Spin Scale   =       1.2000000000000000 [-]
	 SCS Same-Spin Energy      =      -0.1976601136830571 [Eh]
	 SCS Opposite-Spin Energy  =      -2.1794485414774201 [Eh]
	 SCS Correlation Energy    =      -2.3771086551604772 [Eh]
	 SCS Total Energy          =    -533.8162516766105909 [Eh]
	-----------------------------------------------------------

  Dipole Moment: [D]
     X:     1.4459      Y:    -1.9205      Z:    -0.0642     Total:     2.4048

*** Psi4 exiting successfully. Buy a developer a beer!
