                               Psi4 1.3.2 release

  ==> Input File <==

--------------------------------------------------------------------------
#psi4
#
memory 32 gb

molecule  {
0 1
  N        0.0358730    -0.9798690     0.3249120
  N        1.3785830     0.9084480    -0.0806070
  C       -1.2345860    -0.4058730     0.1373700
  C        1.1485120    -0.3962913     0.1288481
  C       -2.2834660    -1.2695640    -0.2193620
  C       -1.5135820     0.9493270     0.3763290
  C        2.4196470    -1.2564020     0.1639730
  C       -3.5834040    -0.7896780    -0.3581100
  C       -2.8175520     1.4190740     0.2143410
  C       -3.8597110     0.5618000    -0.1426300
  C        3.6734950    -0.6966520    -0.0183070
  C        3.7809840     0.6818220    -0.2348670
  C        2.6094310     1.4280530    -0.2543460
  H        0.0343890    -1.9933920     0.2907710
  H       -2.0721120    -2.3220440    -0.4067350
  H       -0.7127900     1.6203970     0.6554980
  H        2.3062980    -2.3249110     0.3351780
  H       -4.3793760    -1.4759950    -0.6376530
  H       -3.0201620     2.4727340     0.3929930
  H       -4.8713210     0.9418730    -0.2585160
  H        4.5591860    -1.3270150     0.0072260
  H        4.7445120     1.1601010    -0.3803610
  H        2.6378470     2.5042230    -0.4179490
units angstrom
no_reorient  #important for SAPT in psi4, default
symmetry c1  #important for SAPT in psi4, default
}

set PROPERTIES_ORIGIN ["COM"]
properties('MP2/aug-cc-pvtz', properties = ['dipole'])
--------------------------------------------------------------------------

    Molecular point group: c1
  Charge       = 0
  Multiplicity = 1
  Basis Set: AUG-CC-PVTZ
    Blend: AUG-CC-PVTZ
  Basis Set: (AUG-CC-PVTZ AUX)
    Blend: AUG-CC-PVTZ-JKFIT

    Orbital Energies [Eh]
    ---------------------

    Doubly Occupied:

       1A    -15.609834     2A    -15.541657     3A    -11.333059
       4A    -11.290150     5A    -11.272035     6A    -11.252518
       7A    -11.242773     8A    -11.240804     9A    -11.239456
      10A    -11.239065    11A    -11.232748    12A    -11.230315
      13A    -11.217447    14A     -1.330579    15A     -1.219825
      16A     -1.147224    17A     -1.072740    18A     -1.034447
      19A     -1.017883    20A     -0.980070    21A     -0.875167
      22A     -0.863466    23A     -0.829487    24A     -0.798331
      25A     -0.747260    26A     -0.727565    27A     -0.681607
      28A     -0.670549    29A     -0.634959    30A     -0.626824
      31A     -0.608149    32A     -0.599388    33A     -0.588666
      34A     -0.586036    35A     -0.561580    36A     -0.529330
      37A     -0.518964    38A     -0.512195    39A     -0.497487
      40A     -0.470590    41A     -0.390776    42A     -0.379349
      43A     -0.341388    44A     -0.337478    45A     -0.278573

  @DF-RHF Final Energy:  -531.42508229887403

   => Energetics <=

    Nuclear Repulsion Energy =            699.2557290263322329
    One-Electron Energy =               -2106.5620344005092193
    Two-Electron Energy =                 875.8812230753030690
    Total Energy =                       -531.4250822988740310
  Basis Set: (AUG-CC-PVTZ AUX)
    Blend: AUG-CC-PVTZ-RI
    Molecular point group: c1

    Geometry (in Angstrom), charge = 0, multiplicity = 1:

       Center              X                  Y                   Z               Mass
    ------------   -----------------  -----------------  -----------------  -----------------
         N            0.041138820111    -0.985498110077     0.321871984437    14.003074004430
         N            1.383848820111     0.902818889923    -0.083647015563    14.003074004430
         C           -1.229320179889    -0.411502110077     0.134329984437    12.000000000000
         C            1.153777820111    -0.401920410077     0.125808084437    12.000000000000
         C           -2.278200179889    -1.275193110077    -0.222402015563    12.000000000000
         C           -1.508316179889     0.943697889923     0.373288984437    12.000000000000
         C            2.424912820111    -1.262031110077     0.160932984437    12.000000000000
         C           -3.578138179889    -0.795307110077    -0.361150015563    12.000000000000
         C           -2.812286179889     1.413444889923     0.211300984437    12.000000000000
         C           -3.854445179889     0.556170889923    -0.145670015563    12.000000000000
         C            3.678760820111    -0.702281110077    -0.021347015563    12.000000000000
         C            3.786249820111     0.676192889923    -0.237907015563    12.000000000000
         C            2.614696820111     1.422423889923    -0.257386015563    12.000000000000
         H            0.039654820111    -1.999021110077     0.287730984437     1.007825032230
         H           -2.066846179889    -2.327673110077    -0.409775015563     1.007825032230
         H           -0.707524179889     1.614767889923     0.652457984437     1.007825032230
         H            2.311563820111    -2.330540110077     0.332137984437     1.007825032230
         H           -4.374110179889    -1.481624110077    -0.640693015563     1.007825032230
         H           -3.014896179889     2.467104889923     0.389952984437     1.007825032230
         H           -4.866055179889     0.936243889923    -0.261556015563     1.007825032230
         H            4.564451820111    -1.332644110077     0.004185984437     1.007825032230
         H            4.749777820111     1.154471889923    -0.383401015563     1.007825032230
         H            2.643112820111     2.498593889923    -0.420989015563     1.007825032230

  Basis Set: AUG-CC-PVTZ
    Blend: AUG-CC-PVTZ
  Basis Set: (AUG-CC-PVTZ AUX)
    Blend: AUG-CC-PVTZ-JKFIT
	 Reference Energy          =    -531.4250822988740310 [Eh]
	 Singles Energy            =      -0.0000000000000000 [Eh]
	 Same-Spin Energy          =      -0.5920819486290421 [Eh]
	 Opposite-Spin Energy      =      -1.8146797152880336 [Eh]
	 Correlation Energy        =      -2.4067616639170755 [Eh]
	 Total Energy              =    -533.8318439627911403 [Eh]

	 ================> DF-SCS-MP2 Energies <==================
	-----------------------------------------------------------
	 SCS Same-Spin Scale       =       0.3333333333333333 [-]
	 SCS Opposite-Spin Scale   =       1.2000000000000000 [-]
	 SCS Same-Spin Energy      =      -0.1973606495430140 [Eh]
	 SCS Opposite-Spin Energy  =      -2.1776156583456401 [Eh]
	 SCS Correlation Energy    =      -2.3749763078886543 [Eh]
	 SCS Total Energy          =    -533.8000586067627182 [Eh]
	-----------------------------------------------------------

  Dipole Moment: [D]
     X:    -0.0101      Y:    -2.0951      Z:     0.0601     Total:     2.0960

*** Psi4 exiting successfully. Buy a developer a beer!
