                               Psi4 1.4a3.dev225

  ==> Input File <==

--------------------------------------------------------------------------
#psi4
#
memory 32 gb

molecule  {
0 1
  N        0.0358730    -0.9798690     0.3249120
  N        1.3785830     0.9084480    -0.0806070
  C       -1.2345860    -0.4058730     0.1373700
  C        1.2874650    -0.4145780     0.1205110
  C       -2.3207989    -1.3003054    -0.2320592
  C       -1.5135820     0.9493270     0.3763290
  C        2.4196470    -1.2564020     0.1639730
  C       -3.5834040    -0.7896780    -0.3581100
  C       -2.8175520     1.4190740     0.2143410
  C       -3.8597110     0.5618000    -0.1426300
  C        3.6734950    -0.6966520    -0.0183070
  C        3.7809840     0.6818220    -0.2348670
  C        2.6094310     1.4280530    -0.2543460
  H        0.0343890    -1.9933920     0.2907710
  H       -2.0721120    -2.3220440    -0.4067350
  H       -0.7127900     1.6203970     0.6554980
  H        2.3062980    -2.3249110     0.3351780
  H       -4.3793760    -1.4759950    -0.6376530
  H       -3.0201620     2.4727340     0.3929930
  H       -4.8713210     0.9418730    -0.2585160
  H        4.5591860    -1.3270150     0.0072260
  H        4.7445120     1.1601010    -0.3803610
  H        2.6378470     2.5042230    -0.4179490
units angstrom
no_reorient  #important for SAPT in psi4, default
symmetry c1  #important for SAPT in psi4, default
}

set PROPERTIES_ORIGIN ["COM"]
properties('MP2/aug-cc-pvtz', properties = ['dipole'])
--------------------------------------------------------------------------

    Molecular point group: c1
  Charge       = 0
  Multiplicity = 1
  Basis Set: AUG-CC-PVTZ
    Blend: AUG-CC-PVTZ
  Basis Set: (AUG-CC-PVTZ AUX)
    Blend: AUG-CC-PVTZ-JKFIT

    Orbital Energies [Eh]
    ---------------------

    Doubly Occupied:

       1A    -15.593613     2A    -15.556772     3A    -11.328518
       4A    -11.287445     5A    -11.280247     6A    -11.264100
       7A    -11.240186     8A    -11.232840     9A    -11.232334
      10A    -11.230923    11A    -11.230887    12A    -11.222223
      13A    -11.219195    14A     -1.296515    15A     -1.221777
      16A     -1.133236    17A     -1.088505    18A     -1.033311
      19A     -1.013311    20A     -0.978100    21A     -0.869853
      22A     -0.862572    23A     -0.824830    24A     -0.800708
      25A     -0.727711    26A     -0.714835    27A     -0.681396
      28A     -0.666672    29A     -0.643647    30A     -0.622759
      31A     -0.599340    32A     -0.595607    33A     -0.585334
      34A     -0.581978    35A     -0.568552    36A     -0.534758
      37A     -0.516629    38A     -0.511114    39A     -0.485260
      40A     -0.460483    41A     -0.418944    42A     -0.386377
      43A     -0.341566    44A     -0.336296    45A     -0.279537

  @DF-RHF Final Energy:  -531.44693117266399

   => Energetics <=

    Nuclear Repulsion Energy =            697.8237583535410522
    One-Electron Energy =               -2103.9397879412422299
    Two-Electron Energy =                 874.6690984150371833
    Total Energy =                       -531.4469311726639944
  Basis Set: (AUG-CC-PVTZ AUX)
    Blend: AUG-CC-PVTZ-RI
    Molecular point group: c1

    Geometry (in Angstrom), charge = 0, multiplicity = 1:

       Center              X                  Y                   Z               Mass
    ------------   -----------------  -----------------  -----------------  -----------------
         N            0.033969196019    -0.982039020321     0.323356021788    14.003074004430
         N            1.376679196019     0.906277979679    -0.082162978212    14.003074004430
         C           -1.236489803981    -0.408043020321     0.135814021788    12.000000000000
         C            1.285561196019    -0.416748020321     0.118955021788    12.000000000000
         C           -2.322702703981    -1.302475420321    -0.233615178212    12.000000000000
         C           -1.515485803981     0.947156979679     0.374773021788    12.000000000000
         C            2.417743196019    -1.258572020321     0.162417021788    12.000000000000
         C           -3.585307803981    -0.791848020321    -0.359665978212    12.000000000000
         C           -2.819455803981     1.416903979679     0.212785021788    12.000000000000
         C           -3.861614803981     0.559629979679    -0.144185978212    12.000000000000
         C            3.671591196019    -0.698822020321    -0.019862978212    12.000000000000
         C            3.779080196019     0.679651979679    -0.236422978212    12.000000000000
         C            2.607527196019     1.425882979679    -0.255901978212    12.000000000000
         H            0.032485196019    -1.995562020321     0.289215021788     1.007825032230
         H           -2.074015803981    -2.324214020321    -0.408290978212     1.007825032230
         H           -0.714693803981     1.618226979679     0.653942021788     1.007825032230
         H            2.304394196019    -2.327081020321     0.333622021788     1.007825032230
         H           -4.381279803981    -1.478165020321    -0.639208978212     1.007825032230
         H           -3.022065803981     2.470563979679     0.391437021788     1.007825032230
         H           -4.873224803981     0.939702979679    -0.260071978212     1.007825032230
         H            4.557282196019    -1.329185020321     0.005670021788     1.007825032230
         H            4.742608196019     1.157930979679    -0.381916978212     1.007825032230
         H            2.635943196019     2.502052979679    -0.419504978212     1.007825032230

  Basis Set: AUG-CC-PVTZ
    Blend: AUG-CC-PVTZ
  Basis Set: (AUG-CC-PVTZ AUX)
    Blend: AUG-CC-PVTZ-JKFIT
	 Reference Energy          =    -531.4469311726639944 [Eh]
	 Singles Energy            =      -0.0000000000000000 [Eh]
	 Same-Spin Energy          =      -0.5920031625640936 [Eh]
	 Opposite-Spin Energy      =      -1.8141309272348227 [Eh]
	 Correlation Energy        =      -2.4061340897989165 [Eh]
	 Total Energy              =    -533.8530652624629056 [Eh]

	 ================> DF-SCS-MP2 Energies <==================
	-----------------------------------------------------------
	 SCS Same-Spin Scale       =       0.3333333333333333 [-]
	 SCS Opposite-Spin Scale   =       1.2000000000000000 [-]
	 SCS Same-Spin Energy      =      -0.1973343875213645 [Eh]
	 SCS Opposite-Spin Energy  =      -2.1769571126817873 [Eh]
	 SCS Correlation Energy    =      -2.3742915002031517 [Eh]
	 SCS Total Energy          =    -533.8212226728671794 [Eh]
	-----------------------------------------------------------

  Dipole Moment: [D]
     X:     1.5433      Y:    -1.8764      Z:    -0.0621     Total:     2.4303

*** Psi4 exiting successfully. Buy a developer a beer!
