                               Psi4 1.3.2 release

  ==> Input File <==

--------------------------------------------------------------------------
#psi4
#
memory 32 gb

molecule  {
0 1
  N        0.0257797    -0.9580179     0.3221035
  N        1.3785830     0.9084480    -0.0806070
  C       -1.2345860    -0.4058730     0.1373700
  C        1.2874650    -0.4145780     0.1205110
  C       -2.2834660    -1.2695640    -0.2193620
  C       -1.5135820     0.9493270     0.3763290
  C        2.4196470    -1.2564020     0.1639730
  C       -3.5834040    -0.7896780    -0.3581100
  C       -2.8175520     1.4190740     0.2143410
  C       -3.8597110     0.5618000    -0.1426300
  C        3.6734950    -0.6966520    -0.0183070
  C        3.7809840     0.6818220    -0.2348670
  C        2.6094310     1.4280530    -0.2543460
  H        0.0343890    -1.9933920     0.2907710
  H       -2.0721120    -2.3220440    -0.4067350
  H       -0.7127900     1.6203970     0.6554980
  H        2.3062980    -2.3249110     0.3351780
  H       -4.3793760    -1.4759950    -0.6376530
  H       -3.0201620     2.4727340     0.3929930
  H       -4.8713210     0.9418730    -0.2585160
  H        4.5591860    -1.3270150     0.0072260
  H        4.7445120     1.1601010    -0.3803610
  H        2.6378470     2.5042230    -0.4179490
units angstrom
no_reorient  #important for SAPT in psi4, default
symmetry c1  #important for SAPT in psi4, default
}

set PROPERTIES_ORIGIN ["COM"]
properties('MP2/aug-cc-pvtz', properties = ['dipole'])
--------------------------------------------------------------------------

    Molecular point group: c1
  Charge       = 0
  Multiplicity = 1
  Basis Set: AUG-CC-PVTZ
    Blend: AUG-CC-PVTZ
  Basis Set: (AUG-CC-PVTZ AUX)
    Blend: AUG-CC-PVTZ-JKFIT

    Orbital Energies [Eh]
    ---------------------

    Doubly Occupied:

       1A    -15.593751     2A    -15.556453     3A    -11.328834
       4A    -11.281488     5A    -11.280275     6A    -11.264611
       7A    -11.240847     8A    -11.234782     9A    -11.231208
      10A    -11.231012    11A    -11.229593    12A    -11.222180
      13A    -11.219237    14A     -1.298149    15A     -1.223850
      16A     -1.133480    17A     -1.088776    18A     -1.036342
      19A     -1.008924    20A     -0.980158    21A     -0.870098
      22A     -0.863296    23A     -0.824929    24A     -0.801121
      25A     -0.728211    26A     -0.714162    27A     -0.679770
      28A     -0.663923    29A     -0.642529    30A     -0.624785
      31A     -0.601643    32A     -0.595090    33A     -0.584529
      34A     -0.578698    35A     -0.569769    36A     -0.534595
      37A     -0.518581    38A     -0.507772    39A     -0.488460
      40A     -0.460003    41A     -0.419610    42A     -0.386586
      43A     -0.344059    44A     -0.331989    45A     -0.280806

  @DF-RHF Final Energy:  -531.44853454950521

   => Energetics <=

    Nuclear Repulsion Energy =            698.9159022719968561
    One-Electron Energy =               -2106.1309446272107380
    Two-Electron Energy =                 875.7665078057086703
    Total Energy =                       -531.4485345495052115
  Basis Set: (AUG-CC-PVTZ AUX)
    Blend: AUG-CC-PVTZ-RI
    Molecular point group: c1

    Geometry (in Angstrom), charge = 0, multiplicity = 1:

       Center              X                  Y                   Z               Mass
    ------------   -----------------  -----------------  -----------------  -----------------
         N            0.022072923047    -0.964155829059     0.319882917816    14.003074004430
         N            1.374876223047     0.902310070941    -0.082827582184    14.003074004430
         C           -1.238292776953    -0.412010929059     0.135149417816    12.000000000000
         C            1.283758223047    -0.420715929059     0.118290417816    12.000000000000
         C           -2.287172776953    -1.275701929059    -0.221582582184    12.000000000000
         C           -1.517288776953     0.943189070941     0.374108417816    12.000000000000
         C            2.415940223047    -1.262539929059     0.161752417816    12.000000000000
         C           -3.587110776953    -0.795815929059    -0.360330582184    12.000000000000
         C           -2.821258776953     1.412936070941     0.212120417816    12.000000000000
         C           -3.863417776953     0.555662070941    -0.144850582184    12.000000000000
         C            3.669788223047    -0.702789929059    -0.020527582184    12.000000000000
         C            3.777277223047     0.675684070941    -0.237087582184    12.000000000000
         C            2.605724223047     1.421915070941    -0.256566582184    12.000000000000
         H            0.030682223047    -1.999529929059     0.288550417816     1.007825032230
         H           -2.075818776953    -2.328181929059    -0.408955582184     1.007825032230
         H           -0.716496776953     1.614259070941     0.653277417816     1.007825032230
         H            2.302591223047    -2.331048929059     0.332957417816     1.007825032230
         H           -4.383082776953    -1.482132929059    -0.639873582184     1.007825032230
         H           -3.023868776953     2.466596070941     0.390772417816     1.007825032230
         H           -4.875027776953     0.935735070941    -0.260736582184     1.007825032230
         H            4.555479223047    -1.333152929059     0.005005417816     1.007825032230
         H            4.740805223047     1.153963070941    -0.382581582184     1.007825032230
         H            2.634140223047     2.498085070941    -0.420169582184     1.007825032230

  Basis Set: AUG-CC-PVTZ
    Blend: AUG-CC-PVTZ
  Basis Set: (AUG-CC-PVTZ AUX)
    Blend: AUG-CC-PVTZ-JKFIT
	 Reference Energy          =    -531.4485345495052115 [Eh]
	 Singles Energy            =      -0.0000000000000000 [Eh]
	 Same-Spin Energy          =      -0.5924129459312002 [Eh]
	 Opposite-Spin Energy      =      -1.8144255443068285 [Eh]
	 Correlation Energy        =      -2.4068384902380284 [Eh]
	 Total Energy              =    -533.8553730397431991 [Eh]

	 ================> DF-SCS-MP2 Energies <==================
	-----------------------------------------------------------
	 SCS Same-Spin Scale       =       0.3333333333333333 [-]
	 SCS Opposite-Spin Scale   =       1.2000000000000000 [-]
	 SCS Same-Spin Energy      =      -0.1974709819770667 [Eh]
	 SCS Opposite-Spin Energy  =      -2.1773106531681941 [Eh]
	 SCS Correlation Energy    =      -2.3747816351452609 [Eh]
	 SCS Total Energy          =    -533.8233161846504800 [Eh]
	-----------------------------------------------------------

  Dipole Moment: [D]
     X:     1.5682      Y:    -1.8747      Z:    -0.0570     Total:     2.4448

*** Psi4 exiting successfully. Buy a developer a beer!
