                               Psi4 1.3.2 release

  ==> Input File <==

--------------------------------------------------------------------------
#psi4
#
memory 32 gb

molecule  {
0 1
  N        0.0358730    -0.9798690     0.3249120
  N        1.3785830     0.9084480    -0.0806070
  C       -1.2345860    -0.4058730     0.1373700
  C        1.4274163    -0.4183694     0.1099704
  C       -2.2834660    -1.2695640    -0.2193620
  C       -1.5135820     0.9493270     0.3763290
  C        2.4196470    -1.2564020     0.1639730
  C       -3.5834040    -0.7896780    -0.3581100
  C       -2.8175520     1.4190740     0.2143410
  C       -3.8597110     0.5618000    -0.1426300
  C        3.6734950    -0.6966520    -0.0183070
  C        3.7809840     0.6818220    -0.2348670
  C        2.6094310     1.4280530    -0.2543460
  H        0.0343890    -1.9933920     0.2907710
  H       -2.0721120    -2.3220440    -0.4067350
  H       -0.7127900     1.6203970     0.6554980
  H        2.3062980    -2.3249110     0.3351780
  H       -4.3793760    -1.4759950    -0.6376530
  H       -3.0201620     2.4727340     0.3929930
  H       -4.8713210     0.9418730    -0.2585160
  H        4.5591860    -1.3270150     0.0072260
  H        4.7445120     1.1601010    -0.3803610
  H        2.6378470     2.5042230    -0.4179490
units angstrom
no_reorient  #important for SAPT in psi4, default
symmetry c1  #important for SAPT in psi4, default
}

set PROPERTIES_ORIGIN ["COM"]
properties('MP2/aug-cc-pvtz', properties = ['dipole'])
--------------------------------------------------------------------------

    Molecular point group: c1
  Charge       = 0
  Multiplicity = 1
  Basis Set: AUG-CC-PVTZ
    Blend: AUG-CC-PVTZ
  Basis Set: (AUG-CC-PVTZ AUX)
    Blend: AUG-CC-PVTZ-JKFIT

    Orbital Energies [Eh]
    ---------------------

    Doubly Occupied:

       1A    -15.573220     2A    -15.570603     3A    -11.323412
       4A    -11.288921     5A    -11.275147     6A    -11.274381
       7A    -11.242220     8A    -11.237933     9A    -11.227992
      10A    -11.225000    11A    -11.220415    12A    -11.214315
      13A    -11.211507    14A     -1.290604    15A     -1.208609
      16A     -1.123106    17A     -1.108883    18A     -1.044509
      19A     -1.001446    20A     -0.973127    21A     -0.884077
      22A     -0.855548    23A     -0.817647    24A     -0.798432
      25A     -0.724738    26A     -0.704220    27A     -0.676009
      28A     -0.664432    29A     -0.643990    30A     -0.625453
      31A     -0.599641    32A     -0.585932    33A     -0.580132
      34A     -0.576143    35A     -0.568029    36A     -0.530094
      37A     -0.515361    38A     -0.499013    39A     -0.482261
      40A     -0.447074    41A     -0.440214    42A     -0.395345
      43A     -0.355852    44A     -0.325605    45A     -0.278198

  @DF-RHF Final Energy:  -531.42423535366709

   => Energetics <=

    Nuclear Repulsion Energy =            698.3229430602578987
    One-Electron Energy =               -2105.0767769022413631
    Two-Electron Energy =                 875.3295984883164920
    Total Energy =                       -531.4242353536670862
  Basis Set: (AUG-CC-PVTZ AUX)
    Blend: AUG-CC-PVTZ-RI
    Molecular point group: c1

    Geometry (in Angstrom), charge = 0, multiplicity = 1:

       Center              X                  Y                   Z               Mass
    ------------   -----------------  -----------------  -----------------  -----------------
         N            0.021461226911    -0.983940429287     0.323203866739    14.003074004430
         N            1.364171226911     0.904376570713    -0.082315133261    14.003074004430
         C           -1.248997773089    -0.409944429287     0.135661866739    12.000000000000
         C            1.413004526911    -0.422440829287     0.108262266739    12.000000000000
         C           -2.297877773089    -1.273635429287    -0.221070133261    12.000000000000
         C           -1.527993773089     0.945255570713     0.374620866739    12.000000000000
         C            2.405235226911    -1.260473429287     0.162264866739    12.000000000000
         C           -3.597815773089    -0.793749429287    -0.359818133261    12.000000000000
         C           -2.831963773089     1.415002570713     0.212632866739    12.000000000000
         C           -3.874122773089     0.557728570713    -0.144338133261    12.000000000000
         C            3.659083226911    -0.700723429287    -0.020015133261    12.000000000000
         C            3.766572226911     0.677750570713    -0.236575133261    12.000000000000
         C            2.595019226911     1.423981570713    -0.256054133261    12.000000000000
         H            0.019977226911    -1.997463429287     0.289062866739     1.007825032230
         H           -2.086523773089    -2.326115429287    -0.408443133261     1.007825032230
         H           -0.727201773089     1.616325570713     0.653789866739     1.007825032230
         H            2.291886226911    -2.328982429287     0.333469866739     1.007825032230
         H           -4.393787773089    -1.480066429287    -0.639361133261     1.007825032230
         H           -3.034573773089     2.468662570713     0.391284866739     1.007825032230
         H           -4.885732773089     0.937801570713    -0.260224133261     1.007825032230
         H            4.544774226911    -1.331086429287     0.005517866739     1.007825032230
         H            4.730100226911     1.156029570713    -0.382069133261     1.007825032230
         H            2.623435226911     2.500151570713    -0.419657133261     1.007825032230

  Basis Set: AUG-CC-PVTZ
    Blend: AUG-CC-PVTZ
  Basis Set: (AUG-CC-PVTZ AUX)
    Blend: AUG-CC-PVTZ-JKFIT
	 Reference Energy          =    -531.4242353536670862 [Eh]
	 Singles Energy            =      -0.0000000000000000 [Eh]
	 Same-Spin Energy          =      -0.5925976417391429 [Eh]
	 Opposite-Spin Energy      =      -1.8155247418884493 [Eh]
	 Correlation Energy        =      -2.4081223836275920 [Eh]
	 Total Energy              =    -533.8323577372947284 [Eh]

	 ================> DF-SCS-MP2 Energies <==================
	-----------------------------------------------------------
	 SCS Same-Spin Scale       =       0.3333333333333333 [-]
	 SCS Opposite-Spin Scale   =       1.2000000000000000 [-]
	 SCS Same-Spin Energy      =      -0.1975325472463809 [Eh]
	 SCS Opposite-Spin Energy  =      -2.1786296902661388 [Eh]
	 SCS Correlation Energy    =      -2.3761622375125198 [Eh]
	 SCS Total Energy          =    -533.8003975911796033 [Eh]
	-----------------------------------------------------------

  Dipole Moment: [D]
     X:     2.9338      Y:    -1.6094      Z:    -0.1922     Total:     3.3518

*** Psi4 exiting successfully. Buy a developer a beer!
