                               Psi4 1.3.2 release

  ==> Input File <==

--------------------------------------------------------------------------
#psi4
#
memory 32 gb

molecule  {
0 1
  N        0.0444610    -0.9580043     0.3320474
  N        1.3785830     0.9084480    -0.0806070
  C       -1.2345860    -0.4058730     0.1373700
  C        1.2874650    -0.4145780     0.1205110
  C       -2.2834660    -1.2695640    -0.2193620
  C       -1.5135820     0.9493270     0.3763290
  C        2.4196470    -1.2564020     0.1639730
  C       -3.5834040    -0.7896780    -0.3581100
  C       -2.8175520     1.4190740     0.2143410
  C       -3.8597110     0.5618000    -0.1426300
  C        3.6734950    -0.6966520    -0.0183070
  C        3.7809840     0.6818220    -0.2348670
  C        2.6094310     1.4280530    -0.2543460
  H        0.0343890    -1.9933920     0.2907710
  H       -2.0721120    -2.3220440    -0.4067350
  H       -0.7127900     1.6203970     0.6554980
  H        2.3062980    -2.3249110     0.3351780
  H       -4.3793760    -1.4759950    -0.6376530
  H       -3.0201620     2.4727340     0.3929930
  H       -4.8713210     0.9418730    -0.2585160
  H        4.5591860    -1.3270150     0.0072260
  H        4.7445120     1.1601010    -0.3803610
  H        2.6378470     2.5042230    -0.4179490
units angstrom
no_reorient  #important for SAPT in psi4, default
symmetry c1  #important for SAPT in psi4, default
}

set PROPERTIES_ORIGIN ["COM"]
properties('MP2/aug-cc-pvtz', properties = ['dipole'])
--------------------------------------------------------------------------

    Molecular point group: c1
  Charge       = 0
  Multiplicity = 1
  Basis Set: AUG-CC-PVTZ
    Blend: AUG-CC-PVTZ
  Basis Set: (AUG-CC-PVTZ AUX)
    Blend: AUG-CC-PVTZ-JKFIT

    Orbital Energies [Eh]
    ---------------------

    Doubly Occupied:

       1A    -15.594064     2A    -15.554631     3A    -11.326758
       4A    -11.283322     5A    -11.279200     6A    -11.263271
       7A    -11.238766     8A    -11.235985     9A    -11.232163
      10A    -11.231796    11A    -11.229186    12A    -11.224097
      13A    -11.220889    14A     -1.298616    15A     -1.221389
      16A     -1.135492    17A     -1.087385    18A     -1.035300
      19A     -1.010156    20A     -0.980925    21A     -0.869253
      22A     -0.862796    23A     -0.825240    24A     -0.801024
      25A     -0.729234    26A     -0.713162    27A     -0.679620
      28A     -0.664513    29A     -0.640570    30A     -0.624406
      31A     -0.602105    32A     -0.594722    33A     -0.585739
      34A     -0.579441    35A     -0.568831    36A     -0.533655
      37A     -0.517870    38A     -0.508343    39A     -0.489688
      40A     -0.461119    41A     -0.418399    42A     -0.385508
      43A     -0.343354    44A     -0.332963    45A     -0.282117

  @DF-RHF Final Energy:  -531.44874723249791

   => Energetics <=

    Nuclear Repulsion Energy =            698.8632736899025986
    One-Electron Energy =               -2106.0299166655163390
    Two-Electron Energy =                 875.7178957431158324
    Total Energy =                       -531.4487472324979080
  Basis Set: (AUG-CC-PVTZ AUX)
    Blend: AUG-CC-PVTZ-RI
    Molecular point group: c1

    Geometry (in Angstrom), charge = 0, multiplicity = 1:

       Center              X                  Y                   Z               Mass
    ------------   -----------------  -----------------  -----------------  -----------------
         N            0.039216188818    -0.964143348749     0.329008135039    14.003074004430
         N            1.373338188818     0.902308951251    -0.083646264961    14.003074004430
         C           -1.239830811182    -0.412012048749     0.134330735039    12.000000000000
         C            1.282220188818    -0.420717048749     0.117471735039    12.000000000000
         C           -2.288710811182    -1.275703048749    -0.222401264961    12.000000000000
         C           -1.518826811182     0.943187951251     0.373289735039    12.000000000000
         C            2.414402188818    -1.262541048749     0.160933735039    12.000000000000
         C           -3.588648811182    -0.795817048749    -0.361149264961    12.000000000000
         C           -2.822796811182     1.412934951251     0.211301735039    12.000000000000
         C           -3.864955811182     0.555660951251    -0.145669264961    12.000000000000
         C            3.668250188818    -0.702791048749    -0.021346264961    12.000000000000
         C            3.775739188818     0.675682951251    -0.237906264961    12.000000000000
         C            2.604186188818     1.421913951251    -0.257385264961    12.000000000000
         H            0.029144188818    -1.999531048749     0.287731735039     1.007825032230
         H           -2.077356811182    -2.328183048749    -0.409774264961     1.007825032230
         H           -0.718034811182     1.614257951251     0.652458735039     1.007825032230
         H            2.301053188818    -2.331050048749     0.332138735039     1.007825032230
         H           -4.384620811182    -1.482134048749    -0.640692264961     1.007825032230
         H           -3.025406811182     2.466594951251     0.389953735039     1.007825032230
         H           -4.876565811182     0.935733951251    -0.261555264961     1.007825032230
         H            4.553941188818    -1.333154048749     0.004186735039     1.007825032230
         H            4.739267188818     1.153961951251    -0.383400264961     1.007825032230
         H            2.632602188818     2.498083951251    -0.420988264961     1.007825032230

  Basis Set: AUG-CC-PVTZ
    Blend: AUG-CC-PVTZ
  Basis Set: (AUG-CC-PVTZ AUX)
    Blend: AUG-CC-PVTZ-JKFIT
	 Reference Energy          =    -531.4487472324979080 [Eh]
	 Singles Energy            =      -0.0000000000000000 [Eh]
	 Same-Spin Energy          =      -0.5922573438504986 [Eh]
	 Opposite-Spin Energy      =      -1.8142988850713804 [Eh]
	 Correlation Energy        =      -2.4065562289218789 [Eh]
	 Total Energy              =    -533.8553034614197941 [Eh]

	 ================> DF-SCS-MP2 Energies <==================
	-----------------------------------------------------------
	 SCS Same-Spin Scale       =       0.3333333333333333 [-]
	 SCS Opposite-Spin Scale   =       1.2000000000000000 [-]
	 SCS Same-Spin Energy      =      -0.1974191146168328 [Eh]
	 SCS Opposite-Spin Energy  =      -2.1771586620856564 [Eh]
	 SCS Correlation Energy    =      -2.3745777767024894 [Eh]
	 SCS Total Energy          =    -533.8233250092004027 [Eh]
	-----------------------------------------------------------

  Dipole Moment: [D]
     X:     1.3475      Y:    -1.8752      Z:    -0.0684     Total:     2.3102

*** Psi4 exiting successfully. Buy a developer a beer!
