                               Psi4 1.3.2 release

  ==> Input File <==

--------------------------------------------------------------------------
#psi4
#
memory 32 gb

molecule  {
0 1
  N        0.0358730    -0.9798690     0.3249120
  N        1.3785830     0.9084480    -0.0806070
  C       -1.1893746    -0.3235720     0.1086898
  C        1.2874650    -0.4145780     0.1205110
  C       -2.2834660    -1.2695640    -0.2193620
  C       -1.5135820     0.9493270     0.3763290
  C        2.4196470    -1.2564020     0.1639730
  C       -3.5834040    -0.7896780    -0.3581100
  C       -2.8175520     1.4190740     0.2143410
  C       -3.8597110     0.5618000    -0.1426300
  C        3.6734950    -0.6966520    -0.0183070
  C        3.7809840     0.6818220    -0.2348670
  C        2.6094310     1.4280530    -0.2543460
  H        0.0343890    -1.9933920     0.2907710
  H       -2.0721120    -2.3220440    -0.4067350
  H       -0.7127900     1.6203970     0.6554980
  H        2.3062980    -2.3249110     0.3351780
  H       -4.3793760    -1.4759950    -0.6376530
  H       -3.0201620     2.4727340     0.3929930
  H       -4.8713210     0.9418730    -0.2585160
  H        4.5591860    -1.3270150     0.0072260
  H        4.7445120     1.1601010    -0.3803610
  H        2.6378470     2.5042230    -0.4179490
units angstrom
no_reorient  #important for SAPT in psi4, default
symmetry c1  #important for SAPT in psi4, default
}

set PROPERTIES_ORIGIN ["COM"]
properties('MP2/aug-cc-pvtz', properties = ['dipole'])
--------------------------------------------------------------------------

    Molecular point group: c1
  Charge       = 0
  Multiplicity = 1
  Basis Set: AUG-CC-PVTZ
    Blend: AUG-CC-PVTZ
  Basis Set: (AUG-CC-PVTZ AUX)
    Blend: AUG-CC-PVTZ-JKFIT

    Orbital Energies [Eh]
    ---------------------

    Doubly Occupied:

       1A    -15.592813     2A    -15.556028     3A    -11.325808
       4A    -11.282201     5A    -11.279819     6A    -11.263418
       7A    -11.238933     8A    -11.237747     9A    -11.234519
      10A    -11.233149    11A    -11.230109    12A    -11.223711
      13A    -11.212813    14A     -1.297022    15A     -1.221398
      16A     -1.134205    17A     -1.087811    18A     -1.033283
      19A     -1.012817    20A     -0.979054    21A     -0.869708
      22A     -0.860293    23A     -0.828309    24A     -0.797754
      25A     -0.725830    26A     -0.717617    27A     -0.679562
      28A     -0.666052    29A     -0.642190    30A     -0.623284
      31A     -0.602895    32A     -0.598027    33A     -0.582080
      34A     -0.577081    35A     -0.568278    36A     -0.534190
      37A     -0.517728    38A     -0.509414    39A     -0.484039
      40A     -0.459662    41A     -0.417807    42A     -0.385777
      43A     -0.345072    44A     -0.331508    45A     -0.282432

  @DF-RHF Final Energy:  -531.43986170908829

   => Energetics <=

    Nuclear Repulsion Energy =            698.9260494938012016
    One-Electron Energy =               -2106.1653297870402639
    Two-Electron Energy =                 875.7994185841507715
    Total Energy =                       -531.4398617090882908
  Basis Set: (AUG-CC-PVTZ AUX)
    Blend: AUG-CC-PVTZ-RI
    Molecular point group: c1

    Geometry (in Angstrom), charge = 0, multiplicity = 1:

       Center              X                  Y                   Z               Mass
    ------------   -----------------  -----------------  -----------------  -----------------
         N            0.028145430819    -0.990014524325     0.324483673718    14.003074004430
         N            1.370855430819     0.898302475675    -0.081035326282    14.003074004430
         C           -1.197102169181    -0.333717524325     0.108261473718    12.000000000000
         C            1.279737430819    -0.424723524325     0.120082673718    12.000000000000
         C           -2.291193569181    -1.279709524325    -0.219790326282    12.000000000000
         C           -1.521309569181     0.939181475675     0.375900673718    12.000000000000
         C            2.411919430819    -1.266547524325     0.163544673718    12.000000000000
         C           -3.591131569181    -0.799823524325    -0.358538326282    12.000000000000
         C           -2.825279569181     1.408928475675     0.213912673718    12.000000000000
         C           -3.867438569181     0.551654475675    -0.143058326282    12.000000000000
         C            3.665767430819    -0.706797524325    -0.018735326282    12.000000000000
         C            3.773256430819     0.671676475675    -0.235295326282    12.000000000000
         C            2.601703430819     1.417907475675    -0.254774326282    12.000000000000
         H            0.026661430819    -2.003537524325     0.290342673718     1.007825032230
         H           -2.079839569181    -2.332189524325    -0.407163326282     1.007825032230
         H           -0.720517569181     1.610251475675     0.655069673718     1.007825032230
         H            2.298570430819    -2.335056524325     0.334749673718     1.007825032230
         H           -4.387103569181    -1.486140524325    -0.638081326282     1.007825032230
         H           -3.027889569181     2.462588475675     0.392564673718     1.007825032230
         H           -4.879048569181     0.931727475675    -0.258944326282     1.007825032230
         H            4.551458430819    -1.337160524325     0.006797673718     1.007825032230
         H            4.736784430819     1.149955475675    -0.380789326282     1.007825032230
         H            2.630119430819     2.494077475675    -0.418377326282     1.007825032230

  Basis Set: AUG-CC-PVTZ
    Blend: AUG-CC-PVTZ
  Basis Set: (AUG-CC-PVTZ AUX)
    Blend: AUG-CC-PVTZ-JKFIT
	 Reference Energy          =    -531.4398617090882908 [Eh]
	 Singles Energy            =      -0.0000000000000000 [Eh]
	 Same-Spin Energy          =      -0.5919796826600056 [Eh]
	 Opposite-Spin Energy      =      -1.8146429913709237 [Eh]
	 Correlation Energy        =      -2.4066226740309293 [Eh]
	 Total Energy              =    -533.8464843831192184 [Eh]

	 ================> DF-SCS-MP2 Energies <==================
	-----------------------------------------------------------
	 SCS Same-Spin Scale       =       0.3333333333333333 [-]
	 SCS Opposite-Spin Scale   =       1.2000000000000000 [-]
	 SCS Same-Spin Energy      =      -0.1973265608866685 [Eh]
	 SCS Opposite-Spin Energy  =      -2.1775715896451082 [Eh]
	 SCS Correlation Energy    =      -2.3748981505317768 [Eh]
	 SCS Total Energy          =    -533.8147598596200396 [Eh]
	-----------------------------------------------------------

  Dipole Moment: [D]
     X:     1.4373      Y:    -1.8626      Z:    -0.0580     Total:     2.3534

*** Psi4 exiting successfully. Buy a developer a beer!
