                               Psi4 1.3.2 release

  ==> Input File <==

--------------------------------------------------------------------------
#psi4
#
memory 32 gb

molecule  {
0 1
  N        0.0358730    -0.9798690     0.3249120
  N        1.3785830     0.9084480    -0.0806070
  C       -1.2548832    -0.4480978     0.1520617
  C        1.2874650    -0.4145780     0.1205110
  C       -2.2834660    -1.2695640    -0.2193620
  C       -1.5135820     0.9493270     0.3763290
  C        2.4196470    -1.2564020     0.1639730
  C       -3.5834040    -0.7896780    -0.3581100
  C       -2.8175520     1.4190740     0.2143410
  C       -3.8597110     0.5618000    -0.1426300
  C        3.6734950    -0.6966520    -0.0183070
  C        3.7809840     0.6818220    -0.2348670
  C        2.6094310     1.4280530    -0.2543460
  H        0.0343890    -1.9933920     0.2907710
  H       -2.0721120    -2.3220440    -0.4067350
  H       -0.7127900     1.6203970     0.6554980
  H        2.3062980    -2.3249110     0.3351780
  H       -4.3793760    -1.4759950    -0.6376530
  H       -3.0201620     2.4727340     0.3929930
  H       -4.8713210     0.9418730    -0.2585160
  H        4.5591860    -1.3270150     0.0072260
  H        4.7445120     1.1601010    -0.3803610
  H        2.6378470     2.5042230    -0.4179490
units angstrom
no_reorient  #important for SAPT in psi4, default
symmetry c1  #important for SAPT in psi4, default
}

set PROPERTIES_ORIGIN ["COM"]
properties('MP2/aug-cc-pvtz', properties = ['dipole'])
--------------------------------------------------------------------------

    Molecular point group: c1
  Charge       = 0
  Multiplicity = 1
  Basis Set: AUG-CC-PVTZ
    Blend: AUG-CC-PVTZ
  Basis Set: (AUG-CC-PVTZ AUX)
    Blend: AUG-CC-PVTZ-JKFIT

    Orbital Energies [Eh]
    ---------------------

    Doubly Occupied:

       1A    -15.591605     2A    -15.556457     3A    -11.329230
       4A    -11.282330     5A    -11.280030     6A    -11.263922
       7A    -11.239933     8A    -11.235297     9A    -11.231070
      10A    -11.230540    11A    -11.226599    12A    -11.224521
      13A    -11.223535    14A     -1.296027    15A     -1.222869
      16A     -1.135135    17A     -1.088232    18A     -1.036669
      19A     -1.008664    20A     -0.981390    21A     -0.869227
      22A     -0.862920    23A     -0.823707    24A     -0.802810
      25A     -0.729839    26A     -0.713249    27A     -0.680462
      28A     -0.663932    29A     -0.642355    30A     -0.624906
      31A     -0.603334    32A     -0.592750    33A     -0.585334
      34A     -0.579520    35A     -0.568484    36A     -0.534589
      37A     -0.518475    38A     -0.508456    39A     -0.487826
      40A     -0.460268    41A     -0.419350    42A     -0.386318
      43A     -0.345952    44A     -0.330673    45A     -0.282251

  @DF-RHF Final Energy:  -531.44785109878262

   => Energetics <=

    Nuclear Repulsion Energy =            698.3983069179753329
    One-Electron Energy =               -2105.0902358855601051
    Two-Electron Energy =                 875.2440778688021510
    Total Energy =                       -531.4478510987826212
  Basis Set: (AUG-CC-PVTZ AUX)
    Blend: AUG-CC-PVTZ-RI
    Molecular point group: c1

    Geometry (in Angstrom), charge = 0, multiplicity = 1:

       Center              X                  Y                   Z               Mass
    ------------   -----------------  -----------------  -----------------  -----------------
         N            0.032767272727    -0.981228829608     0.321423647018    14.003074004430
         N            1.375477272727     0.907088170393    -0.084095352982    14.003074004430
         C           -1.257988927273    -0.449457629608     0.148573347018    12.000000000000
         C            1.284359272727    -0.415937829608     0.117022647018    12.000000000000
         C           -2.286571727273    -1.270923829608    -0.222850352982    12.000000000000
         C           -1.516687727273     0.947967170393     0.372840647018    12.000000000000
         C            2.416541272727    -1.257761829608     0.160484647018    12.000000000000
         C           -3.586509727273    -0.791037829608    -0.361598352982    12.000000000000
         C           -2.820657727273     1.417714170392     0.210852647018    12.000000000000
         C           -3.862816727273     0.560440170392    -0.146118352982    12.000000000000
         C            3.670389272727    -0.698011829608    -0.021795352982    12.000000000000
         C            3.777878272727     0.680462170392    -0.238355352982    12.000000000000
         C            2.606325272727     1.426693170392    -0.257834352982    12.000000000000
         H            0.031283272727    -1.994751829608     0.287282647018     1.007825032230
         H           -2.075217727273    -2.323403829607    -0.410223352982     1.007825032230
         H           -0.715895727273     1.619037170392     0.652009647018     1.007825032230
         H            2.303192272727    -2.326270829608     0.331689647018     1.007825032230
         H           -4.382481727273    -1.477354829608    -0.641141352982     1.007825032230
         H           -3.023267727273     2.471374170392     0.389504647018     1.007825032230
         H           -4.874426727273     0.940513170392    -0.262004352982     1.007825032230
         H            4.556080272727    -1.328374829608     0.003737647018     1.007825032230
         H            4.741406272727     1.158741170392    -0.383849352982     1.007825032230
         H            2.634741272727     2.502863170392    -0.421437352982     1.007825032230

  Basis Set: AUG-CC-PVTZ
    Blend: AUG-CC-PVTZ
  Basis Set: (AUG-CC-PVTZ AUX)
    Blend: AUG-CC-PVTZ-JKFIT
	 Reference Energy          =    -531.4478510987826212 [Eh]
	 Singles Energy            =      -0.0000000000000000 [Eh]
	 Same-Spin Energy          =      -0.5919897310025142 [Eh]
	 Opposite-Spin Energy      =      -1.8140272725856239 [Eh]
	 Correlation Energy        =      -2.4060170035881381 [Eh]
	 Total Energy              =    -533.8538681023707113 [Eh]

	 ================> DF-SCS-MP2 Energies <==================
	-----------------------------------------------------------
	 SCS Same-Spin Scale       =       0.3333333333333333 [-]
	 SCS Opposite-Spin Scale   =       1.2000000000000000 [-]
	 SCS Same-Spin Energy      =      -0.1973299103341714 [Eh]
	 SCS Opposite-Spin Energy  =      -2.1768327271027488 [Eh]
	 SCS Correlation Energy    =      -2.3741626374369202 [Eh]
	 SCS Total Energy          =    -533.8220137362195601 [Eh]
	-----------------------------------------------------------

  Dipole Moment: [D]
     X:     1.4751      Y:    -1.8450      Z:    -0.0708     Total:     2.3633

*** Psi4 exiting successfully. Buy a developer a beer!
