                               Psi4 1.4a3.dev225

  ==> Input File <==

--------------------------------------------------------------------------
#psi4
#
memory 32 gb

molecule  {
0 1
  N        0.0358730    -0.9798690     0.3249120
  N        1.3785830     0.9084480    -0.0806070
  C       -1.2345860    -0.4058730     0.1373700
  C        1.2874650    -0.4145780     0.1205110
  C       -2.2834660    -1.2695640    -0.2193620
  C       -1.5135820     0.9493270     0.3763290
  C        2.4196470    -1.2564020     0.1639730
  C       -3.5834040    -0.7896780    -0.3581100
  C       -2.8175520     1.4190740     0.2143410
  C       -3.8597110     0.5618000    -0.1426300
  C        3.6734950    -0.6966520    -0.0183070
  C        3.7809840     0.6818220    -0.2348670
  C        2.6277026     1.4357664    -0.2569251
  H        0.0343890    -1.9933920     0.2907710
  H       -2.0721120    -2.3220440    -0.4067350
  H       -0.7127900     1.6203970     0.6554980
  H        2.3062980    -2.3249110     0.3351780
  H       -4.3793760    -1.4759950    -0.6376530
  H       -3.0201620     2.4727340     0.3929930
  H       -4.8713210     0.9418730    -0.2585160
  H        4.5591860    -1.3270150     0.0072260
  H        4.7445120     1.1601010    -0.3803610
  H        2.6378470     2.5042230    -0.4179490
units angstrom
no_reorient  #important for SAPT in psi4, default
symmetry c1  #important for SAPT in psi4, default
}

set PROPERTIES_ORIGIN ["COM"]
properties('MP2/aug-cc-pvtz', properties = ['dipole'])
--------------------------------------------------------------------------

    Molecular point group: c1
  Charge       = 0
  Multiplicity = 1
  Basis Set: AUG-CC-PVTZ
    Blend: AUG-CC-PVTZ
  Basis Set: (AUG-CC-PVTZ AUX)
    Blend: AUG-CC-PVTZ-JKFIT

    Orbital Energies [Eh]
    ---------------------

    Doubly Occupied:

       1A    -15.591765     2A    -15.556282     3A    -11.327553
       4A    -11.282292     5A    -11.279260     6A    -11.264409
       7A    -11.240597     8A    -11.234993     9A    -11.231595
      10A    -11.230292    11A    -11.230161    12A    -11.223145
      13A    -11.220364    14A     -1.294278    15A     -1.218709
      16A     -1.134142    17A     -1.087453    18A     -1.035818
      19A     -1.009267    20A     -0.982122    21A     -0.870407
      22A     -0.860658    23A     -0.824490    24A     -0.801398
      25A     -0.728356    26A     -0.714512    27A     -0.679897
      28A     -0.664333    29A     -0.640911    30A     -0.625696
      31A     -0.601981    32A     -0.595758    33A     -0.583735
      34A     -0.579097    35A     -0.568835    36A     -0.533185
      37A     -0.517310    38A     -0.507591    39A     -0.489269
      40A     -0.460104    41A     -0.419060    42A     -0.383614
      43A     -0.344633    44A     -0.332214    45A     -0.283098

  @DF-RHF Final Energy:  -531.44910737796624

   => Energetics <=

    Nuclear Repulsion Energy =            698.2681823237390972
    One-Electron Energy =               -2104.8653071039534552
    Two-Electron Energy =                 875.1480174022482288
    Total Energy =                       -531.4491073779662429
  Basis Set: (AUG-CC-PVTZ AUX)
    Blend: AUG-CC-PVTZ-RI
    Molecular point group: c1

    Geometry (in Angstrom), charge = 0, multiplicity = 1:

       Center              X                  Y                   Z               Mass
    ------------   -----------------  -----------------  -----------------  -----------------
         N            0.030046120143    -0.984752129839     0.322642157370    14.003074004430
         N            1.372756120143     0.903564870161    -0.082876842630    14.003074004430
         C           -1.240412879857    -0.410756129839     0.135100157370    12.000000000000
         C            1.281638120143    -0.419461129839     0.118241157370    12.000000000000
         C           -2.289292879857    -1.274447129839    -0.221631842630    12.000000000000
         C           -1.519408879857     0.944443870161     0.374059157370    12.000000000000
         C            2.413820120143    -1.261285129839     0.161703157370    12.000000000000
         C           -3.589230879857    -0.794561129839    -0.360379842630    12.000000000000
         C           -2.823378879857     1.414190870161     0.212071157370    12.000000000000
         C           -3.865537879857     0.556916870161    -0.144899842630    12.000000000000
         C            3.667668120143    -0.701535129839    -0.020576842630    12.000000000000
         C            3.775157120143     0.676938870161    -0.237136842630    12.000000000000
         C            2.621875720143     1.430883270161    -0.259194942630    12.000000000000
         H            0.028562120143    -1.998275129839     0.288501157370     1.007825032230
         H           -2.077938879857    -2.326927129839    -0.409004842630     1.007825032230
         H           -0.718616879857     1.615513870161     0.653228157370     1.007825032230
         H            2.300471120143    -2.329794129839     0.332908157370     1.007825032230
         H           -4.385202879857    -1.480878129839    -0.639922842630     1.007825032230
         H           -3.025988879857     2.467850870161     0.390723157370     1.007825032230
         H           -4.877147879857     0.936989870161    -0.260785842630     1.007825032230
         H            4.553359120143    -1.331898129839     0.004956157370     1.007825032230
         H            4.738685120143     1.155217870161    -0.382630842630     1.007825032230
         H            2.632020120143     2.499339870161    -0.420218842630     1.007825032230

  Basis Set: AUG-CC-PVTZ
    Blend: AUG-CC-PVTZ
  Basis Set: (AUG-CC-PVTZ AUX)
    Blend: AUG-CC-PVTZ-JKFIT
	 Reference Energy          =    -531.4491073779662429 [Eh]
	 Singles Energy            =      -0.0000000000000000 [Eh]
	 Same-Spin Energy          =      -0.5920889609736484 [Eh]
	 Opposite-Spin Energy      =      -1.8143411533153000 [Eh]
	 Correlation Energy        =      -2.4064301142889484 [Eh]
	 Total Energy              =    -533.8555374922551664 [Eh]

	 ================> DF-SCS-MP2 Energies <==================
	-----------------------------------------------------------
	 SCS Same-Spin Scale       =       0.3333333333333333 [-]
	 SCS Opposite-Spin Scale   =       1.2000000000000000 [-]
	 SCS Same-Spin Energy      =      -0.1973629869912161 [Eh]
	 SCS Opposite-Spin Energy  =      -2.1772093839783597 [Eh]
	 SCS Correlation Energy    =      -2.3745723709695756 [Eh]
	 SCS Total Energy          =    -533.8236797489357741 [Eh]
	-----------------------------------------------------------

  Dipole Moment: [D]
     X:     1.4973      Y:    -1.8525      Z:    -0.0680     Total:     2.3830

*** Psi4 exiting successfully. Buy a developer a beer!
