                               Psi4 1.3.2 release

  ==> Input File <==

--------------------------------------------------------------------------
#psi4
#
memory 32 gb

molecule  {
0 1
  N        0.0462920    -1.0016422     0.3270575
  N        1.3785830     0.9084480    -0.0806070
  C       -1.2345860    -0.4058730     0.1373700
  C        1.2874650    -0.4145780     0.1205110
  C       -2.2834660    -1.2695640    -0.2193620
  C       -1.5135820     0.9493270     0.3763290
  C        2.4196470    -1.2564020     0.1639730
  C       -3.5834040    -0.7896780    -0.3581100
  C       -2.8175520     1.4190740     0.2143410
  C       -3.8597110     0.5618000    -0.1426300
  C        3.6734950    -0.6966520    -0.0183070
  C        3.7809840     0.6818220    -0.2348670
  C        2.6094310     1.4280530    -0.2543460
  H        0.0343890    -1.9933920     0.2907710
  H       -2.0721120    -2.3220440    -0.4067350
  H       -0.7127900     1.6203970     0.6554980
  H        2.3062980    -2.3249110     0.3351780
  H       -4.3793760    -1.4759950    -0.6376530
  H       -3.0201620     2.4727340     0.3929930
  H       -4.8713210     0.9418730    -0.2585160
  H        4.5591860    -1.3270150     0.0072260
  H        4.7445120     1.1601010    -0.3803610
  H        2.6378470     2.5042230    -0.4179490
units angstrom
no_reorient  #important for SAPT in psi4, default
symmetry c1  #important for SAPT in psi4, default
}

set PROPERTIES_ORIGIN ["COM"]
properties('MP2/aug-cc-pvtz', properties = ['dipole'])
--------------------------------------------------------------------------

    Molecular point group: c1
  Charge       = 0
  Multiplicity = 1
  Basis Set: AUG-CC-PVTZ
    Blend: AUG-CC-PVTZ
  Basis Set: (AUG-CC-PVTZ AUX)
    Blend: AUG-CC-PVTZ-JKFIT

    Orbital Energies [Eh]
    ---------------------

    Doubly Occupied:

       1A    -15.590269     2A    -15.556234     3A    -11.327407
       4A    -11.283634     5A    -11.279661     6A    -11.262931
       7A    -11.238445     8A    -11.235631     9A    -11.232489
      10A    -11.231333    11A    -11.229847    12A    -11.224439
      13A    -11.222044    14A     -1.294731    15A     -1.221096
      16A     -1.135651    17A     -1.087442    18A     -1.033629
      19A     -1.010074    20A     -0.982444    21A     -0.868674
      22A     -0.861128    23A     -0.824428    24A     -0.803040
      25A     -0.729084    26A     -0.714890    27A     -0.680116
      28A     -0.664777    29A     -0.641482    30A     -0.624251
      31A     -0.601079    32A     -0.596874    33A     -0.584128
      34A     -0.580147    35A     -0.567830    36A     -0.534308
      37A     -0.517493    38A     -0.507524    39A     -0.490240
      40A     -0.460445    41A     -0.418210    42A     -0.385703
      43A     -0.343047    44A     -0.332891    45A     -0.283755

  @DF-RHF Final Energy:  -531.44997811508540

   => Energetics <=

    Nuclear Repulsion Energy =            698.2426297573374541
    One-Electron Energy =               -2104.7952646074900258
    Two-Electron Energy =                 875.1026567350671712
    Total Energy =                       -531.4499781150854005
  Basis Set: (AUG-CC-PVTZ AUX)
    Blend: AUG-CC-PVTZ-RI
    Molecular point group: c1

    Geometry (in Angstrom), charge = 0, multiplicity = 1:

       Center              X                  Y                   Z               Mass
    ------------   -----------------  -----------------  -----------------  -----------------
         N            0.040896442314    -1.004188533902     0.324429054254    14.003074004430
         N            1.373187442314     0.905901666098    -0.083235445746    14.003074004430
         C           -1.239981557686    -0.408419333902     0.134741554254    12.000000000000
         C            1.282069442314    -0.417124333902     0.117882554254    12.000000000000
         C           -2.288861557686    -1.272110333902    -0.221990445746    12.000000000000
         C           -1.518977557686     0.946780666098     0.373700554254    12.000000000000
         C            2.414251442314    -1.258948333902     0.161344554254    12.000000000000
         C           -3.588799557686    -0.792224333902    -0.360738445746    12.000000000000
         C           -2.822947557686     1.416527666098     0.211712554254    12.000000000000
         C           -3.865106557686     0.559253666098    -0.145258445746    12.000000000000
         C            3.668099442314    -0.699198333902    -0.020935445746    12.000000000000
         C            3.775588442314     0.679275666098    -0.237495445746    12.000000000000
         C            2.604035442314     1.425506666098    -0.256974445746    12.000000000000
         H            0.028993442314    -1.995938333902     0.288142554254     1.007825032230
         H           -2.077507557686    -2.324590333902    -0.409363445746     1.007825032230
         H           -0.718185557686     1.617850666098     0.652869554254     1.007825032230
         H            2.300902442314    -2.327457333902     0.332549554254     1.007825032230
         H           -4.384771557686    -1.478541333902    -0.640281445746     1.007825032230
         H           -3.025557557686     2.470187666098     0.390364554254     1.007825032230
         H           -4.876716557686     0.939326666098    -0.261144445746     1.007825032230
         H            4.553790442314    -1.329561333902     0.004597554254     1.007825032230
         H            4.739116442314     1.157554666098    -0.382989445746     1.007825032230
         H            2.632451442314     2.501676666098    -0.420577445746     1.007825032230

  Basis Set: AUG-CC-PVTZ
    Blend: AUG-CC-PVTZ
  Basis Set: (AUG-CC-PVTZ AUX)
    Blend: AUG-CC-PVTZ-JKFIT
	 Reference Energy          =    -531.4499781150854005 [Eh]
	 Singles Energy            =      -0.0000000000000000 [Eh]
	 Same-Spin Energy          =      -0.5917316896558298 [Eh]
	 Opposite-Spin Energy      =      -1.8135940314974024 [Eh]
	 Correlation Energy        =      -2.4053257211532322 [Eh]
	 Total Energy              =    -533.8553038362385905 [Eh]

	 ================> DF-SCS-MP2 Energies <==================
	-----------------------------------------------------------
	 SCS Same-Spin Scale       =       0.3333333333333333 [-]
	 SCS Opposite-Spin Scale   =       1.2000000000000000 [-]
	 SCS Same-Spin Energy      =      -0.1972438965519432 [Eh]
	 SCS Opposite-Spin Energy  =      -2.1763128377968828 [Eh]
	 SCS Correlation Energy    =      -2.3735567343488260 [Eh]
	 SCS Total Energy          =    -533.8235348494342816 [Eh]
	-----------------------------------------------------------

  Dipole Moment: [D]
     X:     1.3646      Y:    -1.8289      Z:    -0.0746     Total:     2.2831

*** Psi4 exiting successfully. Buy a developer a beer!
