                               Psi4 1.3.2 release

  ==> Input File <==

--------------------------------------------------------------------------
#psi4
#
memory 32 gb

molecule  {
0 1
  N        0.0358730    -0.9798690     0.3249120
  N        1.3785830     0.9084480    -0.0806070
  C       -1.2345860    -0.4058730     0.1373700
  C        1.2874650    -0.4145780     0.1205110
  C       -2.2834660    -1.2695640    -0.2193620
  C       -1.5135820     0.9493270     0.3763290
  C        2.4196470    -1.2564020     0.1639730
  C       -3.5834040    -0.7896780    -0.3581100
  C       -2.8175520     1.4190740     0.2143410
  C       -3.8597110     0.5618000    -0.1426300
  C        3.6734950    -0.6966520    -0.0183070
  C        3.7809840     0.6818220    -0.2348670
  C        2.6094310     1.4280530    -0.2543460
  H        0.0345353    -1.8934488     0.2941376
  H       -2.0721120    -2.3220440    -0.4067350
  H       -0.7127900     1.6203970     0.6554980
  H        2.3062980    -2.3249110     0.3351780
  H       -4.3793760    -1.4759950    -0.6376530
  H       -3.0201620     2.4727340     0.3929930
  H       -4.8713210     0.9418730    -0.2585160
  H        4.5591860    -1.3270150     0.0072260
  H        4.7445120     1.1601010    -0.3803610
  H        2.6378470     2.5042230    -0.4179490
units angstrom
no_reorient  #important for SAPT in psi4, default
symmetry c1  #important for SAPT in psi4, default
}

set PROPERTIES_ORIGIN ["COM"]
properties('MP2/aug-cc-pvtz', properties = ['dipole'])
--------------------------------------------------------------------------

    Molecular point group: c1
  Charge       = 0
  Multiplicity = 1
  Basis Set: AUG-CC-PVTZ
    Blend: AUG-CC-PVTZ
  Basis Set: (AUG-CC-PVTZ AUX)
    Blend: AUG-CC-PVTZ-JKFIT

    Orbital Energies [Eh]
    ---------------------

    Doubly Occupied:

       1A    -15.581708     2A    -15.556596     3A    -11.328064
       4A    -11.282378     5A    -11.280155     6A    -11.264114
       7A    -11.240064     8A    -11.235372     9A    -11.231910
      10A    -11.230832    11A    -11.230753    12A    -11.223578
      13A    -11.220690    14A     -1.303441    15A     -1.228779
      16A     -1.136326    17A     -1.088506    18A     -1.035571
      19A     -1.009756    20A     -0.985550    21A     -0.871334
      22A     -0.864618    23A     -0.825697    24A     -0.806738
      25A     -0.736127    26A     -0.720556    27A     -0.681029
      28A     -0.665398    29A     -0.644978    30A     -0.624842
      31A     -0.603033    32A     -0.598460    33A     -0.584946
      34A     -0.581576    35A     -0.569189    36A     -0.534738
      37A     -0.518528    38A     -0.507905    39A     -0.489672
      40A     -0.461073    41A     -0.419166    42A     -0.386383
      43A     -0.343913    44A     -0.332538    45A     -0.283233

  @DF-RHF Final Energy:  -531.44413732481019

   => Energetics <=

    Nuclear Repulsion Energy =            699.2457790152443522
    One-Electron Energy =               -2106.6802121839464235
    Two-Electron Energy =                 875.9902958438918859
    Total Energy =                       -531.4441373248101854
  Basis Set: (AUG-CC-PVTZ AUX)
    Blend: AUG-CC-PVTZ-RI
    Molecular point group: c1

    Geometry (in Angstrom), charge = 0, multiplicity = 1:

       Center              X                  Y                   Z               Mass
    ------------   -----------------  -----------------  -----------------  -----------------
         N            0.031334373253    -0.984800132236     0.322440245001    14.003074004430
         N            1.374044373253     0.903516867764    -0.083078754999    14.003074004430
         C           -1.239124626747    -0.410804132236     0.134898245001    12.000000000000
         C            1.282926373253    -0.419509132236     0.118039245001    12.000000000000
         C           -2.288004626747    -1.274495132236    -0.221833754999    12.000000000000
         C           -1.518120626747     0.944395867764     0.373857245001    12.000000000000
         C            2.415108373253    -1.261333132236     0.161501245001    12.000000000000
         C           -3.587942626747    -0.794609132236    -0.360581754999    12.000000000000
         C           -2.822090626747     1.414142867764     0.211869245001    12.000000000000
         C           -3.864249626747     0.556868867764    -0.145101754999    12.000000000000
         C            3.668956373253    -0.701583132236    -0.020778754999    12.000000000000
         C            3.776445373253     0.676890867764    -0.237338754999    12.000000000000
         C            2.604892373253     1.423121867764    -0.256817754999    12.000000000000
         H            0.029996673253    -1.898379932236     0.291665845001     1.007825032230
         H           -2.076650626747    -2.326975132236    -0.409206754999     1.007825032230
         H           -0.717328626747     1.615465867764     0.653026245001     1.007825032230
         H            2.301759373253    -2.329842132236     0.332706245001     1.007825032230
         H           -4.383914626747    -1.480926132236    -0.640124754999     1.007825032230
         H           -3.024700626747     2.467802867764     0.390521245001     1.007825032230
         H           -4.875859626747     0.936941867764    -0.260987754999     1.007825032230
         H            4.554647373253    -1.331946132236     0.004754245001     1.007825032230
         H            4.739973373253     1.155169867764    -0.382832754999     1.007825032230
         H            2.633308373253     2.499291867764    -0.420420754999     1.007825032230

  Basis Set: AUG-CC-PVTZ
    Blend: AUG-CC-PVTZ
  Basis Set: (AUG-CC-PVTZ AUX)
    Blend: AUG-CC-PVTZ-JKFIT
	 Reference Energy          =    -531.4441373248101854 [Eh]
	 Singles Energy            =      -0.0000000000000000 [Eh]
	 Same-Spin Energy          =      -0.5911990399180320 [Eh]
	 Opposite-Spin Energy      =      -1.8120911216511044 [Eh]
	 Correlation Energy        =      -2.4032901615691364 [Eh]
	 Total Energy              =    -533.8474274863792743 [Eh]

	 ================> DF-SCS-MP2 Energies <==================
	-----------------------------------------------------------
	 SCS Same-Spin Scale       =       0.3333333333333333 [-]
	 SCS Opposite-Spin Scale   =       1.2000000000000000 [-]
	 SCS Same-Spin Energy      =      -0.1970663466393440 [Eh]
	 SCS Opposite-Spin Energy  =      -2.1745093459813254 [Eh]
	 SCS Correlation Energy    =      -2.3715756926206693 [Eh]
	 SCS Total Energy          =    -533.8157130174308804 [Eh]
	-----------------------------------------------------------

  Dipole Moment: [D]
     X:     1.4852      Y:    -1.7815      Z:    -0.0696     Total:     2.3204

*** Psi4 exiting successfully. Buy a developer a beer!
