                               Psi4 1.3.2 release

  ==> Input File <==

--------------------------------------------------------------------------
#psi4
#
memory 32 gb

molecule  {
0 1
  N        0.0358730    -0.9798690     0.3249120
  N        1.3785830     0.9084480    -0.0806070
  C       -1.2345860    -0.4058730     0.1373700
  C        1.2874650    -0.4145780     0.1205110
  C       -2.2834660    -1.2695640    -0.2193620
  C       -1.5135820     0.9493270     0.3763290
  C        2.4196470    -1.2564020     0.1639730
  C       -3.5834040    -0.7896780    -0.3581100
  C       -2.8175520     1.4190740     0.2143410
  C       -3.8597110     0.5618000    -0.1426300
  C        3.6734950    -0.6966520    -0.0183070
  C        3.7809840     0.6818220    -0.2348670
  C        2.5180730     1.3894860    -0.2414505
  H        0.0343890    -1.9933920     0.2907710
  H       -2.0721120    -2.3220440    -0.4067350
  H       -0.7127900     1.6203970     0.6554980
  H        2.3062980    -2.3249110     0.3351780
  H       -4.3793760    -1.4759950    -0.6376530
  H       -3.0201620     2.4727340     0.3929930
  H       -4.8713210     0.9418730    -0.2585160
  H        4.5591860    -1.3270150     0.0072260
  H        4.7445120     1.1601010    -0.3803610
  H        2.6378470     2.5042230    -0.4179490
units angstrom
no_reorient  #important for SAPT in psi4, default
symmetry c1  #important for SAPT in psi4, default
}

set PROPERTIES_ORIGIN ["COM"]
properties('MP2/aug-cc-pvtz', properties = ['dipole'])
--------------------------------------------------------------------------

    Molecular point group: c1
  Charge       = 0
  Multiplicity = 1
  Basis Set: AUG-CC-PVTZ
    Blend: AUG-CC-PVTZ
  Basis Set: (AUG-CC-PVTZ AUX)
    Blend: AUG-CC-PVTZ-JKFIT

    Orbital Energies [Eh]
    ---------------------

    Doubly Occupied:

       1A    -15.593535     2A    -15.555338     3A    -11.330738
       4A    -11.284097     5A    -11.282185     6A    -11.260145
       7A    -11.236484     8A    -11.235185     9A    -11.233347
      10A    -11.231611    11A    -11.231586    12A    -11.224413
      13A    -11.222337    14A     -1.312617    15A     -1.241490
      16A     -1.137030    17A     -1.090958    18A     -1.031249
      19A     -1.010882    20A     -0.976717    21A     -0.874263
      22A     -0.859877    23A     -0.826021    24A     -0.804798
      25A     -0.727911    26A     -0.716508    27A     -0.680285
      28A     -0.665038    29A     -0.648366    30A     -0.620168
      31A     -0.598646    32A     -0.595422    33A     -0.588645
      34A     -0.582658    35A     -0.569820    36A     -0.539816
      37A     -0.523138    38A     -0.508119    39A     -0.490039
      40A     -0.462256    41A     -0.412264    42A     -0.399211
      43A     -0.339269    44A     -0.333629    45A     -0.278064

  @DF-RHF Final Energy:  -531.43916897598456

   => Energetics <=

    Nuclear Repulsion Energy =            700.2400343741535380
    One-Electron Energy =               -2108.6260561074927864
    Two-Electron Energy =                 876.9468527573546908
    Total Energy =                       -531.4391689759845576
  Basis Set: (AUG-CC-PVTZ AUX)
    Blend: AUG-CC-PVTZ-RI
    Molecular point group: c1

    Geometry (in Angstrom), charge = 0, multiplicity = 1:

       Center              X                  Y                   Z               Mass
    ------------   -----------------  -----------------  -----------------  -----------------
         N            0.037780840158    -0.981486899133     0.321550374691    14.003074004430
         N            1.380490840158     0.906830100867    -0.083968625309    14.003074004430
         C           -1.232678159842    -0.407490899133     0.134008374691    12.000000000000
         C            1.289372840158    -0.416195899133     0.117149374691    12.000000000000
         C           -2.281558159842    -1.271181899133    -0.222723625309    12.000000000000
         C           -1.511674159842     0.947709100867     0.372967374691    12.000000000000
         C            2.421554840158    -1.258019899133     0.160611374691    12.000000000000
         C           -3.581496159842    -0.791295899133    -0.361471625309    12.000000000000
         C           -2.815644159842     1.417456100867     0.210979374691    12.000000000000
         C           -3.857803159842     0.560182100867    -0.145991625309    12.000000000000
         C            3.675402840158    -0.698269899133    -0.021668625309    12.000000000000
         C            3.782891840158     0.680204100867    -0.238228625309    12.000000000000
         C            2.519980840158     1.387868100867    -0.244812125309    12.000000000000
         H            0.036296840158    -1.995009899133     0.287409374691     1.007825032230
         H           -2.070204159842    -2.323661899133    -0.410096625309     1.007825032230
         H           -0.710882159842     1.618779100867     0.652136374691     1.007825032230
         H            2.308205840158    -2.326528899133     0.331816374691     1.007825032230
         H           -4.377468159842    -1.477612899133    -0.641014625309     1.007825032230
         H           -3.018254159842     2.471116100867     0.389631374691     1.007825032230
         H           -4.869413159842     0.940255100867    -0.261877625309     1.007825032230
         H            4.561093840158    -1.328632899133     0.003864374691     1.007825032230
         H            4.746419840158     1.158483100867    -0.383722625309     1.007825032230
         H            2.639754840158     2.502605100867    -0.421310625309     1.007825032230

  Basis Set: AUG-CC-PVTZ
    Blend: AUG-CC-PVTZ
  Basis Set: (AUG-CC-PVTZ AUX)
    Blend: AUG-CC-PVTZ-JKFIT
	 Reference Energy          =    -531.4391689759845576 [Eh]
	 Singles Energy            =      -0.0000000000000000 [Eh]
	 Same-Spin Energy          =      -0.5916112118694817 [Eh]
	 Opposite-Spin Energy      =      -1.8125965595403768 [Eh]
	 Correlation Energy        =      -2.4042077714098586 [Eh]
	 Total Energy              =    -533.8433767473944727 [Eh]

	 ================> DF-SCS-MP2 Energies <==================
	-----------------------------------------------------------
	 SCS Same-Spin Scale       =       0.3333333333333333 [-]
	 SCS Opposite-Spin Scale   =       1.2000000000000000 [-]
	 SCS Same-Spin Energy      =      -0.1972037372898272 [Eh]
	 SCS Opposite-Spin Energy  =      -2.1751158714484520 [Eh]
	 SCS Correlation Energy    =      -2.3723196087382794 [Eh]
	 SCS Total Energy          =    -533.8114885847228379 [Eh]
	-----------------------------------------------------------

  Dipole Moment: [D]
     X:     1.2646      Y:    -1.8615      Z:    -0.0534     Total:     2.2510

*** Psi4 exiting successfully. Buy a developer a beer!
