                               Psi4 1.3.2 release

  ==> Input File <==

--------------------------------------------------------------------------
#psi4
#
memory 32 gb

molecule  {
0 1
  N        0.0358730    -0.9798690     0.3249120
  N        1.3785830     0.9084480    -0.0806070
  C       -1.2345860    -0.4058730     0.1373700
  C        1.3807496    -0.4187220     0.1137221
  C       -2.2834660    -1.2695640    -0.2193620
  C       -1.5135820     0.9493270     0.3763290
  C        2.4196470    -1.2564020     0.1639730
  C       -3.5834040    -0.7896780    -0.3581100
  C       -2.8175520     1.4190740     0.2143410
  C       -3.8597110     0.5618000    -0.1426300
  C        3.6734950    -0.6966520    -0.0183070
  C        3.7809840     0.6818220    -0.2348670
  C        2.6094310     1.4280530    -0.2543460
  H        0.0343890    -1.9933920     0.2907710
  H       -2.0721120    -2.3220440    -0.4067350
  H       -0.7127900     1.6203970     0.6554980
  H        2.3062980    -2.3249110     0.3351780
  H       -4.3793760    -1.4759950    -0.6376530
  H       -3.0201620     2.4727340     0.3929930
  H       -4.8713210     0.9418730    -0.2585160
  H        4.5591860    -1.3270150     0.0072260
  H        4.7445120     1.1601010    -0.3803610
  H        2.6378470     2.5042230    -0.4179490
units angstrom
no_reorient  #important for SAPT in psi4, default
symmetry c1  #important for SAPT in psi4, default
}

set PROPERTIES_ORIGIN ["COM"]
properties('MP2/aug-cc-pvtz', properties = ['dipole'])
--------------------------------------------------------------------------

    Molecular point group: c1
  Charge       = 0
  Multiplicity = 1
  Basis Set: AUG-CC-PVTZ
    Blend: AUG-CC-PVTZ
  Basis Set: (AUG-CC-PVTZ AUX)
    Blend: AUG-CC-PVTZ-JKFIT

    Orbital Energies [Eh]
    ---------------------

    Doubly Occupied:

       1A    -15.579626     2A    -15.565905     3A    -11.324721
       4A    -11.285841     5A    -11.277189     6A    -11.271317
       7A    -11.238545     8A    -11.238459     9A    -11.230361
      10A    -11.227237    11A    -11.223714    12A    -11.217252
      13A    -11.214480    14A     -1.289635    15A     -1.214657
      16A     -1.126355    17A     -1.101532    18A     -1.040904
      19A     -1.004090    20A     -0.976474    21A     -0.878706
      22A     -0.857134    23A     -0.820089    24A     -0.800282
      25A     -0.724102    26A     -0.707310    27A     -0.676777
      28A     -0.663056    29A     -0.644928    30A     -0.626280
      31A     -0.599628    32A     -0.589027    33A     -0.580218
      34A     -0.577090    35A     -0.569026    36A     -0.533330
      37A     -0.516983    38A     -0.502082    39A     -0.484417
      40A     -0.451538    41A     -0.434168    42A     -0.391873
      43A     -0.351195    44A     -0.327886    45A     -0.280277

  @DF-RHF Final Energy:  -531.43832628131076

   => Energetics <=

    Nuclear Repulsion Energy =            698.3599583519043108
    One-Electron Energy =               -2105.1251768564488884
    Two-Electron Energy =                 875.3268922232336990
    Total Energy =                       -531.4383262813107649
  Basis Set: (AUG-CC-PVTZ AUX)
    Blend: AUG-CC-PVTZ-RI
    Molecular point group: c1

    Geometry (in Angstrom), charge = 0, multiplicity = 1:

       Center              X                  Y                   Z               Mass
    ------------   -----------------  -----------------  -----------------  -----------------
         N            0.024753712322    -0.983915552226     0.322939172267    14.003074004430
         N            1.367463712322     0.904401447774    -0.082579827733    14.003074004430
         C           -1.245705287678    -0.409919552226     0.135397172267    12.000000000000
         C            1.369630312322    -0.422768552226     0.111749272267    12.000000000000
         C           -2.294585287678    -1.273610552226    -0.221334827733    12.000000000000
         C           -1.524701287678     0.945280447774     0.374356172267    12.000000000000
         C            2.408527712322    -1.260448552226     0.162000172267    12.000000000000
         C           -3.594523287678    -0.793724552226    -0.360082827733    12.000000000000
         C           -2.828671287678     1.415027447774     0.212368172267    12.000000000000
         C           -3.870830287678     0.557753447774    -0.144602827733    12.000000000000
         C            3.662375712322    -0.700698552226    -0.020279827733    12.000000000000
         C            3.769864712322     0.677775447774    -0.236839827733    12.000000000000
         C            2.598311712322     1.424006447774    -0.256318827733    12.000000000000
         H            0.023269712322    -1.997438552226     0.288798172267     1.007825032230
         H           -2.083231287678    -2.326090552226    -0.408707827733     1.007825032230
         H           -0.723909287678     1.616350447774     0.653525172267     1.007825032230
         H            2.295178712322    -2.328957552226     0.333205172267     1.007825032230
         H           -4.390495287678    -1.480041552226    -0.639625827733     1.007825032230
         H           -3.031281287678     2.468687447774     0.391020172267     1.007825032230
         H           -4.882440287678     0.937826447774    -0.260488827733     1.007825032230
         H            4.548066712322    -1.331061552226     0.005253172267     1.007825032230
         H            4.733392712322     1.156054447774    -0.382333827733     1.007825032230
         H            2.626727712322     2.500176447774    -0.419921827733     1.007825032230

  Basis Set: AUG-CC-PVTZ
    Blend: AUG-CC-PVTZ
  Basis Set: (AUG-CC-PVTZ AUX)
    Blend: AUG-CC-PVTZ-JKFIT
	 Reference Energy          =    -531.4383262813107649 [Eh]
	 Singles Energy            =      -0.0000000000000000 [Eh]
	 Same-Spin Energy          =      -0.5923376052459091 [Eh]
	 Opposite-Spin Energy      =      -1.8147405689442313 [Eh]
	 Correlation Energy        =      -2.4070781741901404 [Eh]
	 Total Energy              =    -533.8454044555008977 [Eh]

	 ================> DF-SCS-MP2 Energies <==================
	-----------------------------------------------------------
	 SCS Same-Spin Scale       =       0.3333333333333333 [-]
	 SCS Opposite-Spin Scale   =       1.2000000000000000 [-]
	 SCS Same-Spin Energy      =      -0.1974458684153030 [Eh]
	 SCS Opposite-Spin Energy  =      -2.1776886827330775 [Eh]
	 SCS Correlation Energy    =      -2.3751345511483803 [Eh]
	 SCS Total Energy          =    -533.8134608324590999 [Eh]
	-----------------------------------------------------------

  Dipole Moment: [D]
     X:     2.4488      Y:    -1.6891      Z:    -0.1506     Total:     2.9787

*** Psi4 exiting successfully. Buy a developer a beer!
