                               Psi4 1.3.2 release

  ==> Input File <==

--------------------------------------------------------------------------
#psi4
#
memory 32 gb

molecule  {
0 1
  N       -0.0188645    -0.8464143     0.3071575
  N        1.3785830     0.9084480    -0.0806070
  C       -1.2345860    -0.4058730     0.1373700
  C        1.2874650    -0.4145780     0.1205110
  C       -2.2834660    -1.2695640    -0.2193620
  C       -1.5135820     0.9493270     0.3763290
  C        2.4196470    -1.2564020     0.1639730
  C       -3.5834040    -0.7896780    -0.3581100
  C       -2.8175520     1.4190740     0.2143410
  C       -3.8597110     0.5618000    -0.1426300
  C        3.6734950    -0.6966520    -0.0183070
  C        3.7809840     0.6818220    -0.2348670
  C        2.6094310     1.4280530    -0.2543460
  H        0.0343890    -1.9933920     0.2907710
  H       -2.0721120    -2.3220440    -0.4067350
  H       -0.7127900     1.6203970     0.6554980
  H        2.3062980    -2.3249110     0.3351780
  H       -4.3793760    -1.4759950    -0.6376530
  H       -3.0201620     2.4727340     0.3929930
  H       -4.8713210     0.9418730    -0.2585160
  H        4.5591860    -1.3270150     0.0072260
  H        4.7445120     1.1601010    -0.3803610
  H        2.6378470     2.5042230    -0.4179490
units angstrom
no_reorient  #important for SAPT in psi4, default
symmetry c1  #important for SAPT in psi4, default
}

set PROPERTIES_ORIGIN ["COM"]
properties('MP2/aug-cc-pvtz', properties = ['dipole'])
--------------------------------------------------------------------------

    Molecular point group: c1
  Charge       = 0
  Multiplicity = 1
  Basis Set: AUG-CC-PVTZ
    Blend: AUG-CC-PVTZ
  Basis Set: (AUG-CC-PVTZ AUX)
    Blend: AUG-CC-PVTZ-JKFIT

    Orbital Energies [Eh]
    ---------------------

    Doubly Occupied:

       1A    -15.602402     2A    -15.557937     3A    -11.334594
       4A    -11.282204     5A    -11.276562     6A    -11.269100
       7A    -11.247505     8A    -11.234636     9A    -11.232577
      10A    -11.227896    11A    -11.224962    12A    -11.216153
      13A    -11.212108    14A     -1.310325    15A     -1.233456
      16A     -1.128331    17A     -1.092617    18A     -1.044274
      19A     -1.005970    20A     -0.975271    21A     -0.875361
      22A     -0.870864    23A     -0.826006    24A     -0.798117
      25A     -0.735127    26A     -0.706893    27A     -0.680028
      28A     -0.663106    29A     -0.642707    30A     -0.627164
      31A     -0.604777    32A     -0.597577    33A     -0.583252
      34A     -0.572524    35A     -0.564926    36A     -0.534510
      37A     -0.521765    38A     -0.506524    39A     -0.481878
      40A     -0.458450    41A     -0.423451    42A     -0.389299
      43A     -0.347465    44A     -0.329678    45A     -0.272901

  @DF-RHF Final Energy:  -531.41785257313757

   => Energetics <=

    Nuclear Repulsion Energy =            700.6739001484291975
    One-Electron Energy =               -2109.5370448410430981
    Two-Electron Energy =                 877.4452921194762212
    Total Energy =                       -531.4178525731375657
  Basis Set: (AUG-CC-PVTZ AUX)
    Blend: AUG-CC-PVTZ-RI
    Molecular point group: c1

    Geometry (in Angstrom), charge = 0, multiplicity = 1:

       Center              X                  Y                   Z               Mass
    ------------   -----------------  -----------------  -----------------  -----------------
         N           -0.018895713276    -0.861740570173     0.306167424236    14.003074004430
         N            1.378551786724     0.893121729827    -0.081597075764    14.003074004430
         C           -1.234617213276    -0.421199270173     0.136379924236    12.000000000000
         C            1.287433786724    -0.429904270173     0.119520924236    12.000000000000
         C           -2.283497213276    -1.284890270173    -0.220352075764    12.000000000000
         C           -1.513613213276     0.934000729827     0.375338924236    12.000000000000
         C            2.419615786724    -1.271728270173     0.162982924236    12.000000000000
         C           -3.583435213276    -0.805004270173    -0.359100075764    12.000000000000
         C           -2.817583213276     1.403747729827     0.213350924236    12.000000000000
         C           -3.859742213276     0.546473729827    -0.143620075764    12.000000000000
         C            3.673463786724    -0.711978270173    -0.019297075764    12.000000000000
         C            3.780952786724     0.666495729827    -0.235857075764    12.000000000000
         C            2.609399786724     1.412726729827    -0.255336075764    12.000000000000
         H            0.034357786724    -2.008718270173     0.289780924236     1.007825032230
         H           -2.072143213276    -2.337370270173    -0.407725075764     1.007825032230
         H           -0.712821213276     1.605070729827     0.654507924236     1.007825032230
         H            2.306266786724    -2.340237270173     0.334187924236     1.007825032230
         H           -4.379407213276    -1.491321270173    -0.638643075764     1.007825032230
         H           -3.020193213276     2.457407729827     0.392002924236     1.007825032230
         H           -4.871352213276     0.926546729827    -0.259506075764     1.007825032230
         H            4.559154786724    -1.342341270173     0.006235924236     1.007825032230
         H            4.744480786724     1.144774729827    -0.381351075764     1.007825032230
         H            2.637815786724     2.488896729827    -0.418939075764     1.007825032230

  Basis Set: AUG-CC-PVTZ
    Blend: AUG-CC-PVTZ
  Basis Set: (AUG-CC-PVTZ AUX)
    Blend: AUG-CC-PVTZ-JKFIT
	 Reference Energy          =    -531.4178525731375657 [Eh]
	 Singles Energy            =      -0.0000000000000000 [Eh]
	 Same-Spin Energy          =      -0.5947755279738507 [Eh]
	 Opposite-Spin Energy      =      -1.8182904951795251 [Eh]
	 Correlation Energy        =      -2.4130660231533758 [Eh]
	 Total Energy              =    -533.8309185962909851 [Eh]

	 ================> DF-SCS-MP2 Energies <==================
	-----------------------------------------------------------
	 SCS Same-Spin Scale       =       0.3333333333333333 [-]
	 SCS Opposite-Spin Scale   =       1.2000000000000000 [-]
	 SCS Same-Spin Energy      =      -0.1982585093246169 [Eh]
	 SCS Opposite-Spin Energy  =      -2.1819485942154300 [Eh]
	 SCS Correlation Energy    =      -2.3802071035400467 [Eh]
	 SCS Total Energy          =    -533.7980596766776671 [Eh]
	-----------------------------------------------------------

  Dipole Moment: [D]
     X:     2.1060      Y:    -1.9396      Z:    -0.0191     Total:     2.8631

*** Psi4 exiting successfully. Buy a developer a beer!
