                               Psi4 1.3.2 release

  ==> Input File <==

--------------------------------------------------------------------------
#psi4
#
memory 32 gb

molecule  {
0 1
  N        0.0358730    -0.9798690     0.3249120
  N        1.3785830     0.9084480    -0.0806070
  C       -1.2345860    -0.4058730     0.1373700
  C        1.2874650    -0.4145780     0.1205110
  C       -2.2088002    -1.2080811    -0.1939676
  C       -1.5135820     0.9493270     0.3763290
  C        2.4196470    -1.2564020     0.1639730
  C       -3.5834040    -0.7896780    -0.3581100
  C       -2.8175520     1.4190740     0.2143410
  C       -3.8597110     0.5618000    -0.1426300
  C        3.6734950    -0.6966520    -0.0183070
  C        3.7809840     0.6818220    -0.2348670
  C        2.6094310     1.4280530    -0.2543460
  H        0.0343890    -1.9933920     0.2907710
  H       -2.0721120    -2.3220440    -0.4067350
  H       -0.7127900     1.6203970     0.6554980
  H        2.3062980    -2.3249110     0.3351780
  H       -4.3793760    -1.4759950    -0.6376530
  H       -3.0201620     2.4727340     0.3929930
  H       -4.8713210     0.9418730    -0.2585160
  H        4.5591860    -1.3270150     0.0072260
  H        4.7445120     1.1601010    -0.3803610
  H        2.6378470     2.5042230    -0.4179490
units angstrom
no_reorient  #important for SAPT in psi4, default
symmetry c1  #important for SAPT in psi4, default
}

set PROPERTIES_ORIGIN ["COM"]
properties('MP2/aug-cc-pvtz', properties = ['dipole'])
--------------------------------------------------------------------------

    Molecular point group: c1
  Charge       = 0
  Multiplicity = 1
  Basis Set: AUG-CC-PVTZ
    Blend: AUG-CC-PVTZ
  Basis Set: (AUG-CC-PVTZ AUX)
    Blend: AUG-CC-PVTZ-JKFIT

    Orbital Energies [Eh]
    ---------------------

    Doubly Occupied:

       1A    -15.588430     2A    -15.555265     3A    -11.326919
       4A    -11.279269     5A    -11.270146     6A    -11.262974
       7A    -11.240474     8A    -11.238344     9A    -11.231172
      10A    -11.229326    11A    -11.228555    12A    -11.225804
      13A    -11.223662    14A     -1.296087    15A     -1.224262
      16A     -1.138432    17A     -1.087150    18A     -1.040162
      19A     -1.002229    20A     -0.987887    21A     -0.868616
      22A     -0.861168    23A     -0.827083    24A     -0.801488
      25A     -0.729412    26A     -0.713942    27A     -0.678368
      28A     -0.660289    29A     -0.639539    30A     -0.629833
      31A     -0.605928    32A     -0.596427    33A     -0.585090
      34A     -0.573647    35A     -0.565039    36A     -0.533807
      37A     -0.522092    38A     -0.506275    39A     -0.484960
      40A     -0.459354    41A     -0.418484    42A     -0.385564
      43A     -0.350254    44A     -0.324840    45A     -0.287974

  @DF-RHF Final Energy:  -531.43699814790352

   => Energetics <=

    Nuclear Repulsion Energy =            700.2013688401084437
    One-Electron Energy =               -2108.7046945732245149
    Two-Electron Energy =                 877.0663275852125480
    Total Energy =                       -531.4369981479035232
  Basis Set: (AUG-CC-PVTZ AUX)
    Blend: AUG-CC-PVTZ-RI
    Molecular point group: c1

    Geometry (in Angstrom), charge = 0, multiplicity = 1:

       Center              X                  Y                   Z               Mass
    ------------   -----------------  -----------------  -----------------  -----------------
         N            0.026067328398    -0.988545740578     0.320668537195    14.003074004430
         N            1.368777328398     0.899771259422    -0.084850462805    14.003074004430
         C           -1.244391671602    -0.414549740578     0.133126537195    12.000000000000
         C            1.277659328398    -0.423254740578     0.116267537195    12.000000000000
         C           -2.218605871602    -1.216757840578    -0.198211062805    12.000000000000
         C           -1.523387671602     0.940650259422     0.372085537195    12.000000000000
         C            2.409841328398    -1.265078740578     0.159729537195    12.000000000000
         C           -3.593209671602    -0.798354740578    -0.362353462805    12.000000000000
         C           -2.827357671602     1.410397259422     0.210097537195    12.000000000000
         C           -3.869516671602     0.553123259422    -0.146873462805    12.000000000000
         C            3.663689328398    -0.705328740578    -0.022550462805    12.000000000000
         C            3.771178328398     0.673145259422    -0.239110462805    12.000000000000
         C            2.599625328398     1.419376259422    -0.258589462805    12.000000000000
         H            0.024583328398    -2.002068740578     0.286527537195     1.007825032230
         H           -2.081917671602    -2.330720740578    -0.410978462805     1.007825032230
         H           -0.722595671602     1.611720259422     0.651254537195     1.007825032230
         H            2.296492328398    -2.333587740578     0.330934537195     1.007825032230
         H           -4.389181671602    -1.484671740578    -0.641896462805     1.007825032230
         H           -3.029967671602     2.464057259422     0.388749537195     1.007825032230
         H           -4.881126671602     0.933196259422    -0.262759462805     1.007825032230
         H            4.549380328398    -1.335691740578     0.002982537195     1.007825032230
         H            4.734706328398     1.151424259422    -0.384604462805     1.007825032230
         H            2.628041328398     2.495546259422    -0.422192462805     1.007825032230

  Basis Set: AUG-CC-PVTZ
    Blend: AUG-CC-PVTZ
  Basis Set: (AUG-CC-PVTZ AUX)
    Blend: AUG-CC-PVTZ-JKFIT
	 Reference Energy          =    -531.4369981479035232 [Eh]
	 Singles Energy            =      -0.0000000000000000 [Eh]
	 Same-Spin Energy          =      -0.5918812857373084 [Eh]
	 Opposite-Spin Energy      =      -1.8143194562705212 [Eh]
	 Correlation Energy        =      -2.4062007420078295 [Eh]
	 Total Energy              =    -533.8431988899113776 [Eh]

	 ================> DF-SCS-MP2 Energies <==================
	-----------------------------------------------------------
	 SCS Same-Spin Scale       =       0.3333333333333333 [-]
	 SCS Opposite-Spin Scale   =       1.2000000000000000 [-]
	 SCS Same-Spin Energy      =      -0.1972937619124361 [Eh]
	 SCS Opposite-Spin Energy  =      -2.1771833475246254 [Eh]
	 SCS Correlation Energy    =      -2.3744771094370614 [Eh]
	 SCS Total Energy          =    -533.8114752573405895 [Eh]
	-----------------------------------------------------------

  Dipole Moment: [D]
     X:     1.2693      Y:    -1.7982      Z:    -0.0776     Total:     2.2024

*** Psi4 exiting successfully. Buy a developer a beer!
