                               Psi4 1.3.2 release

  ==> Input File <==

--------------------------------------------------------------------------
#psi4
#
memory 32 gb

molecule  {
0 1
  N        0.0358730    -0.9798690     0.3249120
  N        1.3785830     0.9084480    -0.0806070
  C       -1.2533574    -0.4510122     0.1328056
  C        1.2874650    -0.4145780     0.1205110
  C       -2.2834660    -1.2695640    -0.2193620
  C       -1.5135820     0.9493270     0.3763290
  C        2.4196470    -1.2564020     0.1639730
  C       -3.5834040    -0.7896780    -0.3581100
  C       -2.8175520     1.4190740     0.2143410
  C       -3.8597110     0.5618000    -0.1426300
  C        3.6734950    -0.6966520    -0.0183070
  C        3.7809840     0.6818220    -0.2348670
  C        2.6094310     1.4280530    -0.2543460
  H        0.0343890    -1.9933920     0.2907710
  H       -2.0721120    -2.3220440    -0.4067350
  H       -0.7127900     1.6203970     0.6554980
  H        2.3062980    -2.3249110     0.3351780
  H       -4.3793760    -1.4759950    -0.6376530
  H       -3.0201620     2.4727340     0.3929930
  H       -4.8713210     0.9418730    -0.2585160
  H        4.5591860    -1.3270150     0.0072260
  H        4.7445120     1.1601010    -0.3803610
  H        2.6378470     2.5042230    -0.4179490
units angstrom
no_reorient  #important for SAPT in psi4, default
symmetry c1  #important for SAPT in psi4, default
}

set PROPERTIES_ORIGIN ["COM"]
properties('MP2/aug-cc-pvtz', properties = ['dipole'])
--------------------------------------------------------------------------

    Molecular point group: c1
  Charge       = 0
  Multiplicity = 1
  Basis Set: AUG-CC-PVTZ
    Blend: AUG-CC-PVTZ
  Basis Set: (AUG-CC-PVTZ AUX)
    Blend: AUG-CC-PVTZ-JKFIT

    Orbital Energies [Eh]
    ---------------------

    Doubly Occupied:

       1A    -15.591608     2A    -15.556541     3A    -11.329196
       4A    -11.282102     5A    -11.280080     6A    -11.263963
       7A    -11.239983     8A    -11.235280     9A    -11.230886
      10A    -11.230621    11A    -11.225927    12A    -11.225119
      13A    -11.223595    14A     -1.296133    15A     -1.222975
      16A     -1.135177    17A     -1.088285    18A     -1.036905
      19A     -1.008522    20A     -0.981306    21A     -0.869278
      22A     -0.862885    23A     -0.823537    24A     -0.802834
      25A     -0.729949    26A     -0.713122    27A     -0.680605
      28A     -0.663864    29A     -0.642351    30A     -0.624998
      31A     -0.603612    32A     -0.592454    33A     -0.585303
      34A     -0.579402    35A     -0.568421    36A     -0.534640
      37A     -0.518648    38A     -0.508442    39A     -0.487237
      40A     -0.460337    41A     -0.419479    42A     -0.386356
      43A     -0.346352    44A     -0.330337    45A     -0.282411

  @DF-RHF Final Energy:  -531.44717613043440

   => Energetics <=

    Nuclear Repulsion Energy =            698.4150292347833329
    One-Electron Energy =               -2105.1222904141336585
    Two-Electron Energy =                 875.2600850489159257
    Total Energy =                       -531.4471761304344000
  Basis Set: (AUG-CC-PVTZ AUX)
    Blend: AUG-CC-PVTZ-RI
    Molecular point group: c1

    Geometry (in Angstrom), charge = 0, multiplicity = 1:

       Center              X                  Y                   Z               Mass
    ------------   -----------------  -----------------  -----------------  -----------------
         N            0.032659622641    -0.981023209337     0.322782226655    14.003074004430
         N            1.375369622641     0.907293790663    -0.082736773345    14.003074004430
         C           -1.256570777359    -0.452166409337     0.130675826655    12.000000000000
         C            1.284251622641    -0.415732209337     0.118381226655    12.000000000000
         C           -2.286679377359    -1.270718209337    -0.221491773345    12.000000000000
         C           -1.516795377359     0.948172790663     0.374199226655    12.000000000000
         C            2.416433622641    -1.257556209337     0.161843226655    12.000000000000
         C           -3.586617377359    -0.790832209337    -0.360239773345    12.000000000000
         C           -2.820765377359     1.417919790663     0.212211226655    12.000000000000
         C           -3.862924377359     0.560645790663    -0.144759773345    12.000000000000
         C            3.670281622641    -0.697806209337    -0.020436773345    12.000000000000
         C            3.777770622641     0.680667790663    -0.236996773345    12.000000000000
         C            2.606217622641     1.426898790663    -0.256475773345    12.000000000000
         H            0.031175622641    -1.994546209337     0.288641226655     1.007825032230
         H           -2.075325377359    -2.323198209337    -0.408864773345     1.007825032230
         H           -0.716003377359     1.619242790663     0.653368226655     1.007825032230
         H            2.303084622641    -2.326065209337     0.333048226655     1.007825032230
         H           -4.382589377359    -1.477149209337    -0.639782773345     1.007825032230
         H           -3.023375377359     2.471579790663     0.390863226655     1.007825032230
         H           -4.874534377359     0.940718790663    -0.260645773345     1.007825032230
         H            4.555972622641    -1.328169209337     0.005096226655     1.007825032230
         H            4.741298622641     1.158946790663    -0.382490773345     1.007825032230
         H            2.634633622641     2.503068790663    -0.420078773345     1.007825032230

  Basis Set: AUG-CC-PVTZ
    Blend: AUG-CC-PVTZ
  Basis Set: (AUG-CC-PVTZ AUX)
    Blend: AUG-CC-PVTZ-JKFIT
	 Reference Energy          =    -531.4471761304344000 [Eh]
	 Singles Energy            =      -0.0000000000000000 [Eh]
	 Same-Spin Energy          =      -0.5919631112401338 [Eh]
	 Opposite-Spin Energy      =      -1.8140384636007190 [Eh]
	 Correlation Energy        =      -2.4060015748408530 [Eh]
	 Total Energy              =    -533.8531777052752432 [Eh]

	 ================> DF-SCS-MP2 Energies <==================
	-----------------------------------------------------------
	 SCS Same-Spin Scale       =       0.3333333333333333 [-]
	 SCS Opposite-Spin Scale   =       1.2000000000000000 [-]
	 SCS Same-Spin Energy      =      -0.1973210370800446 [Eh]
	 SCS Opposite-Spin Energy  =      -2.1768461563208628 [Eh]
	 SCS Correlation Energy    =      -2.3741671934009072 [Eh]
	 SCS Total Energy          =    -533.8213433238353218 [Eh]
	-----------------------------------------------------------

  Dipole Moment: [D]
     X:     1.4809      Y:    -1.8442      Z:    -0.0754     Total:     2.3664

*** Psi4 exiting successfully. Buy a developer a beer!
