                               Psi4 1.4a3.dev225

  ==> Input File <==

--------------------------------------------------------------------------
#psi4
#
memory 32 gb

molecule  {
0 1
  N        0.0358730    -0.9798690     0.3249120
  N        1.3785830     0.9084480    -0.0806070
  C       -1.2345860    -0.4058730     0.1373700
  C        1.2874650    -0.4145780     0.1205110
  C       -2.2834660    -1.2695640    -0.2193620
  C       -1.5135820     0.9493270     0.3763290
  C        2.4196470    -1.2564020     0.1639730
  C       -3.5834040    -0.7896780    -0.3581100
  C       -2.8175520     1.4190740     0.2143410
  C       -3.8597110     0.5618000    -0.1426300
  C        3.6734950    -0.6966520    -0.0183070
  C        3.7809840     0.6818220    -0.2348670
  C        2.5911594     1.4203396    -0.2517669
  H        0.0343890    -1.9933920     0.2907710
  H       -2.0721120    -2.3220440    -0.4067350
  H       -0.7127900     1.6203970     0.6554980
  H        2.3062980    -2.3249110     0.3351780
  H       -4.3793760    -1.4759950    -0.6376530
  H       -3.0201620     2.4727340     0.3929930
  H       -4.8713210     0.9418730    -0.2585160
  H        4.5591860    -1.3270150     0.0072260
  H        4.7445120     1.1601010    -0.3803610
  H        2.6378470     2.5042230    -0.4179490
units angstrom
no_reorient  #important for SAPT in psi4, default
symmetry c1  #important for SAPT in psi4, default
}

set PROPERTIES_ORIGIN ["COM"]
properties('MP2/aug-cc-pvtz', properties = ['dipole'])
--------------------------------------------------------------------------

    Molecular point group: c1
  Charge       = 0
  Multiplicity = 1
  Basis Set: AUG-CC-PVTZ
    Blend: AUG-CC-PVTZ
  Basis Set: (AUG-CC-PVTZ AUX)
    Blend: AUG-CC-PVTZ-JKFIT

    Orbital Energies [Eh]
    ---------------------

    Doubly Occupied:

       1A    -15.592279     2A    -15.556277     3A    -11.328560
       4A    -11.282836     5A    -11.280584     6A    -11.263084
       7A    -11.238668     8A    -11.235443     9A    -11.232126
      10A    -11.230676    11A    -11.230656    12A    -11.223523
      13A    -11.220956    14A     -1.298705    15A     -1.226151
      16A     -1.135013    17A     -1.088712    18A     -1.034106
      19A     -1.009758    20A     -0.980402    21A     -0.868756
      22A     -0.863131    23A     -0.824903    24A     -0.802649
      25A     -0.727901    26A     -0.715346    27A     -0.679975
      28A     -0.664360    29A     -0.643358    30A     -0.623331
      31A     -0.600241    32A     -0.596318    33A     -0.585142
      34A     -0.580245    35A     -0.568912    36A     -0.535648
      37A     -0.518805    38A     -0.507809    39A     -0.489517
      40A     -0.460455    41A     -0.418376    42A     -0.388699
      43A     -0.342494    44A     -0.332681    45A     -0.281498

  @DF-RHF Final Energy:  -531.45012293949424

   => Energetics <=

    Nuclear Repulsion Energy =            698.8905452987359013
    One-Electron Energy =               -2106.0632062294253046
    Two-Electron Energy =                 875.7225379911950540
    Total Energy =                       -531.4501229394942357
  Basis Set: (AUG-CC-PVTZ AUX)
    Blend: AUG-CC-PVTZ-RI
    Molecular point group: c1

    Geometry (in Angstrom), charge = 0, multiplicity = 1:

       Center              X                  Y                   Z               Mass
    ------------   -----------------  -----------------  -----------------  -----------------
         N            0.032624360148    -0.983663719604     0.322278229810    14.003074004430
         N            1.375334360148     0.904653280396    -0.083240770190    14.003074004430
         C           -1.237834639852    -0.409667719604     0.134736229810    12.000000000000
         C            1.284216360148    -0.418372719604     0.117877229810    12.000000000000
         C           -2.286714639852    -1.273358719604    -0.221995770190    12.000000000000
         C           -1.516830639852     0.945532280396     0.373695229810    12.000000000000
         C            2.416398360148    -1.260196719604     0.161339229810    12.000000000000
         C           -3.586652639852    -0.793472719604    -0.360743770190    12.000000000000
         C           -2.820800639852     1.415279280396     0.211707229810    12.000000000000
         C           -3.862959639852     0.558005280396    -0.145263770190    12.000000000000
         C            3.670246360148    -0.700446719604    -0.020940770190    12.000000000000
         C            3.777735360148     0.678027280396    -0.237500770190    12.000000000000
         C            2.587910760148     1.416544880396    -0.254400670190    12.000000000000
         H            0.031140360148    -1.997186719604     0.288137229810     1.007825032230
         H           -2.075360639852    -2.325838719604    -0.409368770190     1.007825032230
         H           -0.716038639852     1.616602280396     0.652864229810     1.007825032230
         H            2.303049360148    -2.328705719604     0.332544229810     1.007825032230
         H           -4.382624639852    -1.479789719604    -0.640286770190     1.007825032230
         H           -3.023410639852     2.468939280396     0.390359229810     1.007825032230
         H           -4.874569639852     0.938078280396    -0.261149770190     1.007825032230
         H            4.555937360148    -1.330809719604     0.004592229810     1.007825032230
         H            4.741263360148     1.156306280396    -0.382994770190     1.007825032230
         H            2.634598360148     2.500428280396    -0.420582770190     1.007825032230

  Basis Set: AUG-CC-PVTZ
    Blend: AUG-CC-PVTZ
  Basis Set: (AUG-CC-PVTZ AUX)
    Blend: AUG-CC-PVTZ-JKFIT
	 Reference Energy          =    -531.4501229394942357 [Eh]
	 Singles Energy            =      -0.0000000000000000 [Eh]
	 Same-Spin Energy          =      -0.5919995112402391 [Eh]
	 Opposite-Spin Energy      =      -1.8136086599144572 [Eh]
	 Correlation Energy        =      -2.4056081711546962 [Eh]
	 Total Energy              =    -533.8557311106488896 [Eh]

	 ================> DF-SCS-MP2 Energies <==================
	-----------------------------------------------------------
	 SCS Same-Spin Scale       =       0.3333333333333333 [-]
	 SCS Opposite-Spin Scale   =       1.2000000000000000 [-]
	 SCS Same-Spin Energy      =      -0.1973331704134130 [Eh]
	 SCS Opposite-Spin Energy  =      -2.1763303918973484 [Eh]
	 SCS Correlation Energy    =      -2.3736635623107616 [Eh]
	 SCS Total Energy          =    -533.8237865018049888 [Eh]
	-----------------------------------------------------------

  Dipole Moment: [D]
     X:     1.4304      Y:    -1.8532      Z:    -0.0640     Total:     2.3419

*** Psi4 exiting successfully. Buy a developer a beer!
