                               Psi4 1.3.2 release

  ==> Input File <==

--------------------------------------------------------------------------
#psi4
#
memory 32 gb

molecule  {
0 1
  N        0.0815087    -0.8462928     0.3667921
  N        1.3785830     0.9084480    -0.0806070
  C       -1.2345860    -0.4058730     0.1373700
  C        1.2874650    -0.4145780     0.1205110
  C       -2.2834660    -1.2695640    -0.2193620
  C       -1.5135820     0.9493270     0.3763290
  C        2.4196470    -1.2564020     0.1639730
  C       -3.5834040    -0.7896780    -0.3581100
  C       -2.8175520     1.4190740     0.2143410
  C       -3.8597110     0.5618000    -0.1426300
  C        3.6734950    -0.6966520    -0.0183070
  C        3.7809840     0.6818220    -0.2348670
  C        2.6094310     1.4280530    -0.2543460
  H        0.0343890    -1.9933920     0.2907710
  H       -2.0721120    -2.3220440    -0.4067350
  H       -0.7127900     1.6203970     0.6554980
  H        2.3062980    -2.3249110     0.3351780
  H       -4.3793760    -1.4759950    -0.6376530
  H       -3.0201620     2.4727340     0.3929930
  H       -4.8713210     0.9418730    -0.2585160
  H        4.5591860    -1.3270150     0.0072260
  H        4.7445120     1.1601010    -0.3803610
  H        2.6378470     2.5042230    -0.4179490
units angstrom
no_reorient  #important for SAPT in psi4, default
symmetry c1  #important for SAPT in psi4, default
}

set PROPERTIES_ORIGIN ["COM"]
properties('MP2/aug-cc-pvtz', properties = ['dipole'])
--------------------------------------------------------------------------

    Molecular point group: c1
  Charge       = 0
  Multiplicity = 1
  Basis Set: AUG-CC-PVTZ
    Blend: AUG-CC-PVTZ
  Basis Set: (AUG-CC-PVTZ AUX)
    Blend: AUG-CC-PVTZ-JKFIT

    Orbital Energies [Eh]
    ---------------------

    Doubly Occupied:

       1A    -15.603596     2A    -15.546685     3A    -11.320629
       4A    -11.288178     5A    -11.275631     6A    -11.261052
       7A    -11.239897     8A    -11.238300     9A    -11.234837
      10A    -11.233759    11A    -11.228062    12A    -11.223545
      13A    -11.222399    14A     -1.312506    15A     -1.216908
      16A     -1.140448    17A     -1.084108    18A     -1.038140
      19A     -1.013534    20A     -0.979652    21A     -0.869960
      22A     -0.866141    23A     -0.828378    24A     -0.797576
      25A     -0.736222    26A     -0.704476    27A     -0.678678
      28A     -0.665310    29A     -0.635971    30A     -0.623771
      31A     -0.605749    32A     -0.596638    33A     -0.587971
      34A     -0.575092    35A     -0.561212    36A     -0.528574
      37A     -0.517579    38A     -0.510897    39A     -0.489465
      40A     -0.465023    41A     -0.416037    42A     -0.382608
      43A     -0.343361    44A     -0.335576    45A     -0.281054

  @DF-RHF Final Energy:  -531.42107983435346

   => Energetics <=

    Nuclear Repulsion Energy =            700.3068592666425047
    One-Electron Energy =               -2108.8455090517668395
    Two-Electron Energy =                 877.1175699507708714
    Total Energy =                       -531.4210798343534634
  Basis Set: (AUG-CC-PVTZ AUX)
    Blend: AUG-CC-PVTZ-RI
    Molecular point group: c1

    Geometry (in Angstrom), charge = 0, multiplicity = 1:

       Center              X                  Y                   Z               Mass
    ------------   -----------------  -----------------  -----------------  -----------------
         N            0.073213746125    -0.861629073286     0.360892298681    14.003074004430
         N            1.370288046125     0.893111726714    -0.086506801319    14.003074004430
         C           -1.242880953875    -0.421209273286     0.131470198681    12.000000000000
         C            1.279170046125    -0.429914273286     0.114611198681    12.000000000000
         C           -2.291760953875    -1.284900273286    -0.225261801319    12.000000000000
         C           -1.521876953875     0.933990726714     0.370429198681    12.000000000000
         C            2.411352046125    -1.271738273286     0.158073198681    12.000000000000
         C           -3.591698953875    -0.805014273286    -0.364009801319    12.000000000000
         C           -2.825846953875     1.403737726714     0.208441198681    12.000000000000
         C           -3.868005953875     0.546463726714    -0.148529801319    12.000000000000
         C            3.665200046125    -0.711988273286    -0.024206801319    12.000000000000
         C            3.772689046125     0.666485726714    -0.240766801319    12.000000000000
         C            2.601136046125     1.412716726714    -0.260245801319    12.000000000000
         H            0.026094046125    -2.008728273286     0.284871198681     1.007825032230
         H           -2.080406953875    -2.337380273286    -0.412634801319     1.007825032230
         H           -0.721084953875     1.605060726714     0.649598198681     1.007825032230
         H            2.298003046125    -2.340247273286     0.329278198681     1.007825032230
         H           -4.387670953875    -1.491331273286    -0.643552801319     1.007825032230
         H           -3.028456953875     2.457397726714     0.387093198681     1.007825032230
         H           -4.879615953875     0.926536726714    -0.264415801319     1.007825032230
         H            4.550891046125    -1.342351273286     0.001326198681     1.007825032230
         H            4.736217046125     1.144764726714    -0.386260801319     1.007825032230
         H            2.629552046125     2.488886726714    -0.423848801319     1.007825032230

  Basis Set: AUG-CC-PVTZ
    Blend: AUG-CC-PVTZ
  Basis Set: (AUG-CC-PVTZ AUX)
    Blend: AUG-CC-PVTZ-JKFIT
	 Reference Energy          =    -531.4210798343534634 [Eh]
	 Singles Energy            =      -0.0000000000000000 [Eh]
	 Same-Spin Energy          =      -0.5937400583684787 [Eh]
	 Opposite-Spin Energy      =      -1.8173113247408965 [Eh]
	 Correlation Energy        =      -2.4110513831093749 [Eh]
	 Total Energy              =    -533.8321312174628019 [Eh]

	 ================> DF-SCS-MP2 Energies <==================
	-----------------------------------------------------------
	 SCS Same-Spin Scale       =       0.3333333333333333 [-]
	 SCS Opposite-Spin Scale   =       1.2000000000000000 [-]
	 SCS Same-Spin Energy      =      -0.1979133527894929 [Eh]
	 SCS Opposite-Spin Energy  =      -2.1807735896890756 [Eh]
	 SCS Correlation Energy    =      -2.3786869424785686 [Eh]
	 SCS Total Energy          =    -533.7997667768320298 [Eh]
	-----------------------------------------------------------

  Dipole Moment: [D]
     X:     0.7961      Y:    -1.9365      Z:    -0.0823     Total:     2.0954

*** Psi4 exiting successfully. Buy a developer a beer!
