                               Psi4 1.4a3.dev225

  ==> Input File <==

--------------------------------------------------------------------------
#psi4
#
memory 32 gb

molecule  {
0 1
  N        0.0358730    -0.9798690     0.3249120
  N        1.3785830     0.9084480    -0.0806070
  C       -1.2345860    -0.4058730     0.1373700
  C        1.2874650    -0.4145780     0.1205110
  C       -2.2834660    -1.2695640    -0.2193620
  C       -1.5135820     0.9493270     0.3763290
  C        2.4196470    -1.2564020     0.1639730
  C       -3.5834040    -0.7896780    -0.3581100
  C       -2.8175520     1.4190740     0.2143410
  C       -3.8597110     0.5618000    -0.1426300
  C        3.6734950    -0.6966520    -0.0183070
  C        3.7809840     0.6818220    -0.2348670
  C        2.6094310     1.4280530    -0.2543460
  H        0.0343597    -2.0133806     0.2900977
  H       -2.0721120    -2.3220440    -0.4067350
  H       -0.7127900     1.6203970     0.6554980
  H        2.3062980    -2.3249110     0.3351780
  H       -4.3793760    -1.4759950    -0.6376530
  H       -3.0201620     2.4727340     0.3929930
  H       -4.8713210     0.9418730    -0.2585160
  H        4.5591860    -1.3270150     0.0072260
  H        4.7445120     1.1601010    -0.3803610
  H        2.6378470     2.5042230    -0.4179490
units angstrom
no_reorient  #important for SAPT in psi4, default
symmetry c1  #important for SAPT in psi4, default
}

set PROPERTIES_ORIGIN ["COM"]
properties('MP2/aug-cc-pvtz', properties = ['dipole'])
--------------------------------------------------------------------------

    Molecular point group: c1
  Charge       = 0
  Multiplicity = 1
  Basis Set: AUG-CC-PVTZ
    Blend: AUG-CC-PVTZ
  Basis Set: (AUG-CC-PVTZ AUX)
    Blend: AUG-CC-PVTZ-JKFIT

    Orbital Energies [Eh]
    ---------------------

    Doubly Occupied:

       1A    -15.593890     2A    -15.556273     3A    -11.328060
       4A    -11.282602     5A    -11.279918     6A    -11.263690
       7A    -11.239538     8A    -11.235179     9A    -11.231846
      10A    -11.230425    11A    -11.230330    12A    -11.223281
      13A    -11.220655    14A     -1.295284    15A     -1.221240
      16A     -1.134248    17A     -1.088014    18A     -1.034828
      19A     -1.009464    20A     -0.980568    21A     -0.869093
      22A     -0.861623    23A     -0.824533    24A     -0.801237
      25A     -0.727234    26A     -0.713217    27A     -0.679656
      28A     -0.664083    29A     -0.641419    30A     -0.624420
      31A     -0.600919    32A     -0.595330    33A     -0.584310
      34A     -0.579098    35A     -0.568780    36A     -0.534395
      37A     -0.517905    38A     -0.507672    39A     -0.489332
      40A     -0.460088    41A     -0.418855    42A     -0.386078
      43A     -0.343445    44A     -0.332428    45A     -0.282147

  @DF-RHF Final Energy:  -531.44892620625842

   => Energetics <=

    Nuclear Repulsion Energy =            698.4512014017180945
    One-Electron Energy =               -2105.2269966438275333
    Two-Electron Energy =                 875.3268690358509048
    Total Energy =                       -531.4489262062584203
  Basis Set: (AUG-CC-PVTZ AUX)
    Blend: AUG-CC-PVTZ-RI
    Molecular point group: c1

    Geometry (in Angstrom), charge = 0, multiplicity = 1:

       Center              X                  Y                   Z               Mass
    ------------   -----------------  -----------------  -----------------  -----------------
         N            0.031335413761    -0.984089483455     0.322464183190    14.003074004430
         N            1.374045413761     0.904227516545    -0.083054816810    14.003074004430
         C           -1.239123586239    -0.410093483455     0.134922183190    12.000000000000
         C            1.282927413761    -0.418798483455     0.118063183190    12.000000000000
         C           -2.288003586239    -1.273784483455    -0.221809816810    12.000000000000
         C           -1.518119586239     0.945106516545     0.373881183190    12.000000000000
         C            2.415109413761    -1.260622483455     0.161525183190    12.000000000000
         C           -3.587941586239    -0.793898483455    -0.360557816810    12.000000000000
         C           -2.822089586239     1.414853516545     0.211893183190    12.000000000000
         C           -3.864248586239     0.557579516545    -0.145077816810    12.000000000000
         C            3.668957413761    -0.700872483455    -0.020754816810    12.000000000000
         C            3.776446413761     0.677601516545    -0.237314816810    12.000000000000
         C            2.604893413761     1.423832516545    -0.256793816810    12.000000000000
         H            0.029822113761    -2.017601083455     0.287649883190     1.007825032230
         H           -2.076649586239    -2.326264483455    -0.409182816810     1.007825032230
         H           -0.717327586239     1.616176516545     0.653050183190     1.007825032230
         H            2.301760413761    -2.329131483455     0.332730183190     1.007825032230
         H           -4.383913586239    -1.480215483455    -0.640100816810     1.007825032230
         H           -3.024699586239     2.468513516545     0.390545183190     1.007825032230
         H           -4.875858586239     0.937652516545    -0.260963816810     1.007825032230
         H            4.554648413761    -1.331235483455     0.004778183190     1.007825032230
         H            4.739974413761     1.155880516545    -0.382808816810     1.007825032230
         H            2.633309413761     2.500002516545    -0.420396816810     1.007825032230

  Basis Set: AUG-CC-PVTZ
    Blend: AUG-CC-PVTZ
  Basis Set: (AUG-CC-PVTZ AUX)
    Blend: AUG-CC-PVTZ-JKFIT
	 Reference Energy          =    -531.4489262062584203 [Eh]
	 Singles Energy            =      -0.0000000000000000 [Eh]
	 Same-Spin Energy          =      -0.5922333310300778 [Eh]
	 Opposite-Spin Energy      =      -1.8143798604333818 [Eh]
	 Correlation Energy        =      -2.4066131914634594 [Eh]
	 Total Energy              =    -533.8555393977218273 [Eh]

	 ================> DF-SCS-MP2 Energies <==================
	-----------------------------------------------------------
	 SCS Same-Spin Scale       =       0.3333333333333333 [-]
	 SCS Opposite-Spin Scale   =       1.2000000000000000 [-]
	 SCS Same-Spin Energy      =      -0.1974111103433593 [Eh]
	 SCS Opposite-Spin Energy  =      -2.1772558325200579 [Eh]
	 SCS Correlation Energy    =      -2.3746669428634171 [Eh]
	 SCS Total Energy          =    -533.8235931491218480 [Eh]
	-----------------------------------------------------------

  Dipole Moment: [D]
     X:     1.4610      Y:    -1.8667      Z:    -0.0656     Total:     2.3714

*** Psi4 exiting successfully. Buy a developer a beer!
