                               Psi4 1.3.2 release

  ==> Input File <==

--------------------------------------------------------------------------
#psi4
#
memory 32 gb

molecule  {
0 1
  N        0.0358730    -0.9798690     0.3249120
  N        1.3785830     0.9084480    -0.0806070
  C       -1.2345860    -0.4058730     0.1373700
  C        1.2874650    -0.4145780     0.1205110
  C       -2.2834660    -1.2695640    -0.2193620
  C       -1.5135820     0.9493270     0.3763290
  C        2.4196470    -1.2564020     0.1639730
  C       -3.5834040    -0.7896780    -0.3581100
  C       -2.8175520     1.4190740     0.2143410
  C       -3.8597110     0.5618000    -0.1426300
  C        3.6734950    -0.6966520    -0.0183070
  C        3.7809840     0.6818220    -0.2348670
  C        2.7921471     1.5051870    -0.2801371
  H        0.0343890    -1.9933920     0.2907710
  H       -2.0721120    -2.3220440    -0.4067350
  H       -0.7127900     1.6203970     0.6554980
  H        2.3062980    -2.3249110     0.3351780
  H       -4.3793760    -1.4759950    -0.6376530
  H       -3.0201620     2.4727340     0.3929930
  H       -4.8713210     0.9418730    -0.2585160
  H        4.5591860    -1.3270150     0.0072260
  H        4.7445120     1.1601010    -0.3803610
  H        2.6378470     2.5042230    -0.4179490
units angstrom
no_reorient  #important for SAPT in psi4, default
symmetry c1  #important for SAPT in psi4, default
}

set PROPERTIES_ORIGIN ["COM"]
properties('MP2/aug-cc-pvtz', properties = ['dipole'])
--------------------------------------------------------------------------

    Molecular point group: c1
  Charge       = 0
  Multiplicity = 1
  Basis Set: AUG-CC-PVTZ
    Blend: AUG-CC-PVTZ
  Basis Set: (AUG-CC-PVTZ AUX)
    Blend: AUG-CC-PVTZ-JKFIT

    Orbital Energies [Eh]
    ---------------------

    Doubly Occupied:

       1A    -15.589873     2A    -15.552893     3A    -11.322929
       4A    -11.280260     5A    -11.272789     6A    -11.268834
       7A    -11.249369     8A    -11.233328     9A    -11.229638
      10A    -11.228866    11A    -11.228561    12A    -11.221740
      13A    -11.218204    14A     -1.283734    15A     -1.194370
      16A     -1.131634    17A     -1.081660    18A     -1.044745
      19A     -1.007396    20A     -0.987951    21A     -0.881068
      22A     -0.849007    23A     -0.823264    24A     -0.796708
      25A     -0.731839    26A     -0.710967    27A     -0.679994
      28A     -0.669783    29A     -0.646082    30A     -0.623479
      31A     -0.604615    32A     -0.594220    33A     -0.580010
      34A     -0.575250    35A     -0.568882    36A     -0.517438
      37A     -0.513053    38A     -0.506143    39A     -0.487862
      40A     -0.461614    41A     -0.406358    42A     -0.365472
      43A     -0.356622    44A     -0.330253    45A     -0.288017

  @DF-RHF Final Energy:  -531.40661422021014

   => Energetics <=

    Nuclear Repulsion Energy =            695.7828391331585181
    One-Electron Energy =               -2099.9853546501799428
    Two-Electron Energy =                 872.7959012968111665
    Total Energy =                       -531.4066142202101446
  Basis Set: (AUG-CC-PVTZ AUX)
    Blend: AUG-CC-PVTZ-RI
    Molecular point group: c1

    Geometry (in Angstrom), charge = 0, multiplicity = 1:

       Center              X                  Y                   Z               Mass
    ------------   -----------------  -----------------  -----------------  -----------------
         N            0.018444033065    -0.989649975898     0.324279838443    14.003074004430
         N            1.361154033065     0.898667024102    -0.081239161557    14.003074004430
         C           -1.252014966935    -0.415653975898     0.136737838443    12.000000000000
         C            1.270036033065    -0.424358975898     0.119878838443    12.000000000000
         C           -2.300894966935    -1.279344975898    -0.219994161557    12.000000000000
         C           -1.531010966935     0.939546024102     0.375696838443    12.000000000000
         C            2.402218033065    -1.266182975898     0.163340838443    12.000000000000
         C           -3.600832966935    -0.799458975898    -0.358742161557    12.000000000000
         C           -2.834980966935     1.409293024102     0.213708838443    12.000000000000
         C           -3.877139966935     0.552019024102    -0.143262161557    12.000000000000
         C            3.656066033065    -0.706432975898    -0.018939161557    12.000000000000
         C            3.763555033065     0.672041024102    -0.235499161557    12.000000000000
         C            2.774718133065     1.495406024102    -0.280769261557    12.000000000000
         H            0.016960033065    -2.003172975898     0.290138838443     1.007825032230
         H           -2.089540966935    -2.331824975898    -0.407367161557     1.007825032230
         H           -0.730218966935     1.610616024102     0.654865838443     1.007825032230
         H            2.288869033065    -2.334691975898     0.334545838443     1.007825032230
         H           -4.396804966935    -1.485775975898    -0.638285161557     1.007825032230
         H           -3.037590966935     2.462953024102     0.392360838443     1.007825032230
         H           -4.888749966935     0.932092024102    -0.259148161557     1.007825032230
         H            4.541757033065    -1.336795975898     0.006593838443     1.007825032230
         H            4.727083033065     1.150320024102    -0.380993161557     1.007825032230
         H            2.620418033065     2.494442024102    -0.418581161557     1.007825032230

  Basis Set: AUG-CC-PVTZ
    Blend: AUG-CC-PVTZ
  Basis Set: (AUG-CC-PVTZ AUX)
    Blend: AUG-CC-PVTZ-JKFIT
	 Reference Energy          =    -531.4066142202101446 [Eh]
	 Singles Energy            =      -0.0000000000000000 [Eh]
	 Same-Spin Energy          =      -0.5922898036125379 [Eh]
	 Opposite-Spin Energy      =      -1.8193252538576214 [Eh]
	 Correlation Energy        =      -2.4116150574701596 [Eh]
	 Total Energy              =    -533.8182292776803024 [Eh]

	 ================> DF-SCS-MP2 Energies <==================
	-----------------------------------------------------------
	 SCS Same-Spin Scale       =       0.3333333333333333 [-]
	 SCS Opposite-Spin Scale   =       1.2000000000000000 [-]
	 SCS Same-Spin Energy      =      -0.1974299345375126 [Eh]
	 SCS Opposite-Spin Energy  =      -2.1831903046291457 [Eh]
	 SCS Correlation Energy    =      -2.3806202391666584 [Eh]
	 SCS Total Energy          =    -533.7872344593768048 [Eh]
	-----------------------------------------------------------

  Dipole Moment: [D]
     X:     1.7393      Y:    -1.8392      Z:    -0.0835     Total:     2.5327

*** Psi4 exiting successfully. Buy a developer a beer!
