                               Psi4 1.3.2 release

  ==> Input File <==

--------------------------------------------------------------------------
#psi4
#
memory 32 gb

molecule  {
0 1
  N        0.0358730    -0.9798690     0.3249120
  N        1.3785830     0.9084480    -0.0806070
  C       -1.2345860    -0.4058730     0.1373700
  C        1.1946244    -0.4039883     0.1263200
  C       -2.2834660    -1.2695640    -0.2193620
  C       -1.5135820     0.9493270     0.3763290
  C        2.4196470    -1.2564020     0.1639730
  C       -3.5834040    -0.7896780    -0.3581100
  C       -2.8175520     1.4190740     0.2143410
  C       -3.8597110     0.5618000    -0.1426300
  C        3.6734950    -0.6966520    -0.0183070
  C        3.7809840     0.6818220    -0.2348670
  C        2.6094310     1.4280530    -0.2543460
  H        0.0343890    -1.9933920     0.2907710
  H       -2.0721120    -2.3220440    -0.4067350
  H       -0.7127900     1.6203970     0.6554980
  H        2.3062980    -2.3249110     0.3351780
  H       -4.3793760    -1.4759950    -0.6376530
  H       -3.0201620     2.4727340     0.3929930
  H       -4.8713210     0.9418730    -0.2585160
  H        4.5591860    -1.3270150     0.0072260
  H        4.7445120     1.1601010    -0.3803610
  H        2.6378470     2.5042230    -0.4179490
units angstrom
no_reorient  #important for SAPT in psi4, default
symmetry c1  #important for SAPT in psi4, default
}

set PROPERTIES_ORIGIN ["COM"]
properties('MP2/aug-cc-pvtz', properties = ['dipole'])
--------------------------------------------------------------------------

    Molecular point group: c1
  Charge       = 0
  Multiplicity = 1
  Basis Set: AUG-CC-PVTZ
    Blend: AUG-CC-PVTZ
  Basis Set: (AUG-CC-PVTZ AUX)
    Blend: AUG-CC-PVTZ-JKFIT

    Orbital Energies [Eh]
    ---------------------

    Doubly Occupied:

       1A    -15.604015     2A    -15.546496     3A    -11.331465
       4A    -11.287683     5A    -11.274515     6A    -11.256240
       7A    -11.240221     8A    -11.239840     9A    -11.237397
      10A    -11.236643    11A    -11.229607    12A    -11.227074
      13A    -11.221800    14A     -1.316493    15A     -1.222131
      16A     -1.143069    17A     -1.077316    18A     -1.033274
      19A     -1.015072    20A     -0.981695    21A     -0.870220
      22A     -0.863868    23A     -0.828290    24A     -0.800249
      25A     -0.739754    26A     -0.723529    27A     -0.681253
      28A     -0.668866    29A     -0.636894    30A     -0.624134
      31A     -0.605522    32A     -0.594846    33A     -0.591386
      34A     -0.585450    35A     -0.564725    36A     -0.531433
      37A     -0.517984    38A     -0.511679    39A     -0.494765
      40A     -0.467699    41A     -0.400720    42A     -0.381429
      43A     -0.340463    44A     -0.336355    45A     -0.280713

  @DF-RHF Final Energy:  -531.43921812037274

   => Energetics <=

    Nuclear Repulsion Energy =            698.9830236437071562
    One-Electron Energy =               -2106.1159423947756295
    Two-Electron Energy =                 875.6937006306957301
    Total Energy =                       -531.4392181203727432
  Basis Set: (AUG-CC-PVTZ AUX)
    Blend: AUG-CC-PVTZ-RI
    Molecular point group: c1

    Geometry (in Angstrom), charge = 0, multiplicity = 1:

       Center              X                  Y                   Z               Mass
    ------------   -----------------  -----------------  -----------------  -----------------
         N            0.037885442345    -0.984955062032     0.322050350003    14.003074004430
         N            1.380595442345     0.903361937968    -0.083468649997    14.003074004430
         C           -1.232573557655    -0.410959062032     0.134508350003    12.000000000000
         C            1.196636842345    -0.409074362032     0.123458350003    12.000000000000
         C           -2.281453557655    -1.274650062032    -0.222223649997    12.000000000000
         C           -1.511569557655     0.944240937968     0.373467350003    12.000000000000
         C            2.421659442345    -1.261488062032     0.161111350003    12.000000000000
         C           -3.581391557655    -0.794764062032    -0.360971649997    12.000000000000
         C           -2.815539557655     1.413987937968     0.211479350003    12.000000000000
         C           -3.857698557655     0.556713937968    -0.145491649997    12.000000000000
         C            3.675507442345    -0.701738062032    -0.021168649997    12.000000000000
         C            3.782996442345     0.676735937968    -0.237728649997    12.000000000000
         C            2.611443442345     1.422966937968    -0.257207649997    12.000000000000
         H            0.036401442345    -1.998478062032     0.287909350003     1.007825032230
         H           -2.070099557655    -2.327130062032    -0.409596649997     1.007825032230
         H           -0.710777557655     1.615310937968     0.652636350003     1.007825032230
         H            2.308310442345    -2.329997062032     0.332316350003     1.007825032230
         H           -4.377363557655    -1.481081062032    -0.640514649997     1.007825032230
         H           -3.018149557655     2.467647937968     0.390131350003     1.007825032230
         H           -4.869308557655     0.936786937968    -0.261377649997     1.007825032230
         H            4.561198442345    -1.332101062032     0.004364350003     1.007825032230
         H            4.746524442345     1.155014937968    -0.383222649997     1.007825032230
         H            2.639859442345     2.499136937968    -0.420810649997     1.007825032230

  Basis Set: AUG-CC-PVTZ
    Blend: AUG-CC-PVTZ
  Basis Set: (AUG-CC-PVTZ AUX)
    Blend: AUG-CC-PVTZ-JKFIT
	 Reference Energy          =    -531.4392181203727432 [Eh]
	 Singles Energy            =      -0.0000000000000000 [Eh]
	 Same-Spin Energy          =      -0.5920030107143004 [Eh]
	 Opposite-Spin Energy      =      -1.8141877186633724 [Eh]
	 Correlation Energy        =      -2.4061907293776725 [Eh]
	 Total Energy              =    -533.8454088497504699 [Eh]

	 ================> DF-SCS-MP2 Energies <==================
	-----------------------------------------------------------
	 SCS Same-Spin Scale       =       0.3333333333333333 [-]
	 SCS Opposite-Spin Scale   =       1.2000000000000000 [-]
	 SCS Same-Spin Energy      =      -0.1973343369047668 [Eh]
	 SCS Opposite-Spin Energy  =      -2.1770252623960467 [Eh]
	 SCS Correlation Energy    =      -2.3743595993008135 [Eh]
	 SCS Total Energy          =    -533.8135777196735035 [Eh]
	-----------------------------------------------------------

  Dipole Moment: [D]
     X:     0.4776      Y:    -2.0166      Z:     0.0187     Total:     2.0724

*** Psi4 exiting successfully. Buy a developer a beer!
