                               Psi4 1.3.2 release

  ==> Input File <==

--------------------------------------------------------------------------
#psi4
#
memory 32 gb

molecule  {
0 1
  N        0.0160708    -0.9360013     0.3192335
  N        1.3785830     0.9084480    -0.0806070
  C       -1.2345860    -0.4058730     0.1373700
  C        1.2874650    -0.4145780     0.1205110
  C       -2.2834660    -1.2695640    -0.2193620
  C       -1.5135820     0.9493270     0.3763290
  C        2.4196470    -1.2564020     0.1639730
  C       -3.5834040    -0.7896780    -0.3581100
  C       -2.8175520     1.4190740     0.2143410
  C       -3.8597110     0.5618000    -0.1426300
  C        3.6734950    -0.6966520    -0.0183070
  C        3.7809840     0.6818220    -0.2348670
  C        2.6094310     1.4280530    -0.2543460
  H        0.0343890    -1.9933920     0.2907710
  H       -2.0721120    -2.3220440    -0.4067350
  H       -0.7127900     1.6203970     0.6554980
  H        2.3062980    -2.3249110     0.3351780
  H       -4.3793760    -1.4759950    -0.6376530
  H       -3.0201620     2.4727340     0.3929930
  H       -4.8713210     0.9418730    -0.2585160
  H        4.5591860    -1.3270150     0.0072260
  H        4.7445120     1.1601010    -0.3803610
  H        2.6378470     2.5042230    -0.4179490
units angstrom
no_reorient  #important for SAPT in psi4, default
symmetry c1  #important for SAPT in psi4, default
}

set PROPERTIES_ORIGIN ["COM"]
properties('MP2/aug-cc-pvtz', properties = ['dipole'])
--------------------------------------------------------------------------

    Molecular point group: c1
  Charge       = 0
  Multiplicity = 1
  Basis Set: AUG-CC-PVTZ
    Blend: AUG-CC-PVTZ
  Basis Set: (AUG-CC-PVTZ AUX)
    Blend: AUG-CC-PVTZ-JKFIT

    Orbital Energies [Eh]
    ---------------------

    Doubly Occupied:

       1A    -15.595486     2A    -15.556644     3A    -11.329744
       4A    -11.280618     5A    -11.280433     6A    -11.265481
       7A    -11.242113     8A    -11.234344     9A    -11.231658
      10A    -11.230551    11A    -11.228688    12A    -11.221005
      13A    -11.217807    14A     -1.300172    15A     -1.225506
      16A     -1.132407    17A     -1.089489    18A     -1.037818
      19A     -1.008333    20A     -0.979085    21A     -0.870915
      22A     -0.864676    23A     -0.825159    24A     -0.800313
      25A     -0.729124    26A     -0.712807    27A     -0.679652
      28A     -0.663621    29A     -0.642809    30A     -0.625139
      31A     -0.602213    32A     -0.594629    33A     -0.584345
      34A     -0.577167    35A     -0.570568    36A     -0.534706
      37A     -0.519210    38A     -0.507712    39A     -0.487427
      40A     -0.459742    41A     -0.420337    42A     -0.387075
      43A     -0.344647    44A     -0.331526    45A     -0.279263

  @DF-RHF Final Energy:  -531.44536374416055

   => Energetics <=

    Nuclear Repulsion Energy =            699.2610445533595112
    One-Electron Energy =               -2106.8084882108191778
    Two-Electron Energy =                 876.1020799132990078
    Total Energy =                       -531.4453637441605451
  Basis Set: (AUG-CC-PVTZ AUX)
    Blend: AUG-CC-PVTZ-RI
    Molecular point group: c1

    Geometry (in Angstrom), charge = 0, multiplicity = 1:

       Center              X                  Y                   Z               Mass
    ------------   -----------------  -----------------  -----------------  -----------------
         N            0.013163358239    -0.943951859037     0.317249205346    14.003074004430
         N            1.375675558239     0.900497440963    -0.082591294654    14.003074004430
         C           -1.237493441761    -0.413823559037     0.135385705346    12.000000000000
         C            1.284557558239    -0.422528559037     0.118526705346    12.000000000000
         C           -2.286373441761    -1.277514559037    -0.221346294654    12.000000000000
         C           -1.516489441761     0.941376440963     0.374344705346    12.000000000000
         C            2.416739558239    -1.264352559037     0.161988705346    12.000000000000
         C           -3.586311441761    -0.797628559037    -0.360094294654    12.000000000000
         C           -2.820459441761     1.411123440963     0.212356705346    12.000000000000
         C           -3.862618441761     0.553849440963    -0.144614294654    12.000000000000
         C            3.670587558239    -0.704602559037    -0.020291294654    12.000000000000
         C            3.778076558239     0.673871440963    -0.236851294654    12.000000000000
         C            2.606523558239     1.420102440963    -0.256330294654    12.000000000000
         H            0.031481558239    -2.001342559037     0.288786705346     1.007825032230
         H           -2.075019441761    -2.329994559037    -0.408719294654     1.007825032230
         H           -0.715697441761     1.612446440963     0.653513705346     1.007825032230
         H            2.303390558239    -2.332861559037     0.333193705346     1.007825032230
         H           -4.382283441761    -1.483945559037    -0.639637294654     1.007825032230
         H           -3.023069441761     2.464783440963     0.391008705346     1.007825032230
         H           -4.874228441761     0.933922440963    -0.260500294654     1.007825032230
         H            4.556278558239    -1.334965559037     0.005241705346     1.007825032230
         H            4.741604558239     1.152150440963    -0.382345294654     1.007825032230
         H            2.634939558239     2.496272440963    -0.419933294654     1.007825032230

  Basis Set: AUG-CC-PVTZ
    Blend: AUG-CC-PVTZ
  Basis Set: (AUG-CC-PVTZ AUX)
    Blend: AUG-CC-PVTZ-JKFIT
	 Reference Energy          =    -531.4453637441605451 [Eh]
	 Singles Energy            =      -0.0000000000000000 [Eh]
	 Same-Spin Energy          =      -0.5928131085050187 [Eh]
	 Opposite-Spin Energy      =      -1.8149997688219064 [Eh]
	 Correlation Energy        =      -2.4078128773269252 [Eh]
	 Total Energy              =    -533.8531766214874779 [Eh]

	 ================> DF-SCS-MP2 Energies <==================
	-----------------------------------------------------------
	 SCS Same-Spin Scale       =       0.3333333333333333 [-]
	 SCS Opposite-Spin Scale   =       1.2000000000000000 [-]
	 SCS Same-Spin Energy      =      -0.1976043695016729 [Eh]
	 SCS Opposite-Spin Energy  =      -2.1779997225862875 [Eh]
	 SCS Correlation Energy    =      -2.3756040920879604 [Eh]
	 SCS Total Energy          =    -533.8209678362485420 [Eh]
	-----------------------------------------------------------

  Dipole Moment: [D]
     X:     1.6737      Y:    -1.8940      Z:    -0.0485     Total:     2.5280

*** Psi4 exiting successfully. Buy a developer a beer!
