                               Psi4 1.3.2 release

  ==> Input File <==

--------------------------------------------------------------------------
#psi4
#
memory 32 gb

molecule  {
0 1
  N        0.0526594    -0.9359714     0.3391235
  N        1.3785830     0.9084480    -0.0806070
  C       -1.2345860    -0.4058730     0.1373700
  C        1.2874650    -0.4145780     0.1205110
  C       -2.2834660    -1.2695640    -0.2193620
  C       -1.5135820     0.9493270     0.3763290
  C        2.4196470    -1.2564020     0.1639730
  C       -3.5834040    -0.7896780    -0.3581100
  C       -2.8175520     1.4190740     0.2143410
  C       -3.8597110     0.5618000    -0.1426300
  C        3.6734950    -0.6966520    -0.0183070
  C        3.7809840     0.6818220    -0.2348670
  C        2.6094310     1.4280530    -0.2543460
  H        0.0343890    -1.9933920     0.2907710
  H       -2.0721120    -2.3220440    -0.4067350
  H       -0.7127900     1.6203970     0.6554980
  H        2.3062980    -2.3249110     0.3351780
  H       -4.3793760    -1.4759950    -0.6376530
  H       -3.0201620     2.4727340     0.3929930
  H       -4.8713210     0.9418730    -0.2585160
  H        4.5591860    -1.3270150     0.0072260
  H        4.7445120     1.1601010    -0.3803610
  H        2.6378470     2.5042230    -0.4179490
units angstrom
no_reorient  #important for SAPT in psi4, default
symmetry c1  #important for SAPT in psi4, default
}

set PROPERTIES_ORIGIN ["COM"]
properties('MP2/aug-cc-pvtz', properties = ['dipole'])
--------------------------------------------------------------------------

    Molecular point group: c1
  Charge       = 0
  Multiplicity = 1
  Basis Set: AUG-CC-PVTZ
    Blend: AUG-CC-PVTZ
  Basis Set: (AUG-CC-PVTZ AUX)
    Blend: AUG-CC-PVTZ-JKFIT

    Orbital Energies [Eh]
    ---------------------

    Doubly Occupied:

       1A    -15.596071     2A    -15.552961     3A    -11.325469
       4A    -11.284164     5A    -11.278452     6A    -11.262790
       7A    -11.237924     8A    -11.236761     9A    -11.233125
      10A    -11.232477    11A    -11.227983    12A    -11.224881
      13A    -11.221154    14A     -1.301083    15A     -1.220439
      16A     -1.136455    17A     -1.086686    18A     -1.035731
      19A     -1.010820    20A     -0.980618    21A     -0.869202
      22A     -0.863518    23A     -0.825829    24A     -0.800150
      25A     -0.730567    26A     -0.711284    27A     -0.679329
      28A     -0.664719    29A     -0.639176    30A     -0.624313
      31A     -0.603002    32A     -0.593572    33A     -0.587014
      34A     -0.578982    35A     -0.568447    36A     -0.532785
      37A     -0.517757    38A     -0.508942    39A     -0.489900
      40A     -0.461971    41A     -0.417893    42A     -0.384895
      43A     -0.343244    44A     -0.333486    45A     -0.281911

  @DF-RHF Final Energy:  -531.44589272072892

   => Energetics <=

    Nuclear Repulsion Energy =            699.1524708655852010
    One-Electron Energy =               -2106.6008636869992188
    Two-Electron Energy =                 876.0025001006850971
    Total Energy =                       -531.4458927207289207
  Basis Set: (AUG-CC-PVTZ AUX)
    Blend: AUG-CC-PVTZ-RI
    Molecular point group: c1

    Geometry (in Angstrom), charge = 0, multiplicity = 1:

       Center              X                  Y                   Z               Mass
    ------------   -----------------  -----------------  -----------------  -----------------
         N            0.046739613318    -0.943924420708     0.335501658665    14.003074004430
         N            1.372663213318     0.900494979292    -0.084228841335    14.003074004430
         C           -1.240505786682    -0.413826020708     0.133748158665    12.000000000000
         C            1.281545213318    -0.422531020708     0.116889158665    12.000000000000
         C           -2.289385786682    -1.277517020708    -0.222983841335    12.000000000000
         C           -1.519501786682     0.941373979292     0.372707158665    12.000000000000
         C            2.413727213318    -1.264355020708     0.160351158665    12.000000000000
         C           -3.589323786682    -0.797631020708    -0.361731841335    12.000000000000
         C           -2.823471786682     1.411120979292     0.210719158665    12.000000000000
         C           -3.865630786682     0.553846979292    -0.146251841335    12.000000000000
         C            3.667575213318    -0.704605020708    -0.021928841335    12.000000000000
         C            3.775064213318     0.673868979292    -0.238488841335    12.000000000000
         C            2.603511213318     1.420099979292    -0.257967841335    12.000000000000
         H            0.028469213318    -2.001345020708     0.287149158665     1.007825032230
         H           -2.078031786682    -2.329997020708    -0.410356841335     1.007825032230
         H           -0.718709786682     1.612443979292     0.651876158665     1.007825032230
         H            2.300378213318    -2.332864020708     0.331556158665     1.007825032230
         H           -4.385295786682    -1.483948020708    -0.641274841335     1.007825032230
         H           -3.026081786682     2.464780979292     0.389371158665     1.007825032230
         H           -4.877240786682     0.933919979292    -0.262137841335     1.007825032230
         H            4.553266213318    -1.334968020708     0.003604158665     1.007825032230
         H            4.738592213318     1.152147979292    -0.383982841335     1.007825032230
         H            2.631927213318     2.496269979292    -0.421570841335     1.007825032230

  Basis Set: AUG-CC-PVTZ
    Blend: AUG-CC-PVTZ
  Basis Set: (AUG-CC-PVTZ AUX)
    Blend: AUG-CC-PVTZ-JKFIT
	 Reference Energy          =    -531.4458927207289207 [Eh]
	 Singles Energy            =      -0.0000000000000000 [Eh]
	 Same-Spin Energy          =      -0.5924932276504675 [Eh]
	 Opposite-Spin Energy      =      -1.8147295369476586 [Eh]
	 Correlation Energy        =      -2.4072227645981261 [Eh]
	 Total Energy              =    -533.8531154853270664 [Eh]

	 ================> DF-SCS-MP2 Energies <==================
	-----------------------------------------------------------
	 SCS Same-Spin Scale       =       0.3333333333333333 [-]
	 SCS Opposite-Spin Scale   =       1.2000000000000000 [-]
	 SCS Same-Spin Energy      =      -0.1974977425501558 [Eh]
	 SCS Opposite-Spin Energy  =      -2.1776754443371904 [Eh]
	 SCS Correlation Energy    =      -2.3751731868873462 [Eh]
	 SCS Total Energy          =    -533.8210659076162301 [Eh]
	-----------------------------------------------------------

  Dipole Moment: [D]
     X:     1.2315      Y:    -1.8945      Z:    -0.0708     Total:     2.2607

*** Psi4 exiting successfully. Buy a developer a beer!
