                               Psi4 1.4a3.dev225

  ==> Input File <==

--------------------------------------------------------------------------
#psi4
#
memory 32 gb

molecule  {
0 1
  N        0.0358730    -0.9798690     0.3249120
  N        1.3785830     0.9084480    -0.0806070
  C       -1.2345860    -0.4058730     0.1373700
  C        1.2874650    -0.4145780     0.1205110
  C       -2.2834660    -1.2695640    -0.2193620
  C       -1.5135820     0.9493270     0.3763290
  C        2.4196470    -1.2564020     0.1639730
  C       -3.5834040    -0.7896780    -0.3581100
  C       -2.8175520     1.4190740     0.2143410
  C       -3.8597110     0.5618000    -0.1426300
  C        3.6734950    -0.6966520    -0.0183070
  C        3.7809840     0.6818220    -0.2348670
  C        2.6094310     1.4280530    -0.2543460
  H        0.0344183    -1.9734034     0.2914443
  H       -2.0721120    -2.3220440    -0.4067350
  H       -0.7127900     1.6203970     0.6554980
  H        2.3062980    -2.3249110     0.3351780
  H       -4.3793760    -1.4759950    -0.6376530
  H       -3.0201620     2.4727340     0.3929930
  H       -4.8713210     0.9418730    -0.2585160
  H        4.5591860    -1.3270150     0.0072260
  H        4.7445120     1.1601010    -0.3803610
  H        2.6378470     2.5042230    -0.4179490
units angstrom
no_reorient  #important for SAPT in psi4, default
symmetry c1  #important for SAPT in psi4, default
}

set PROPERTIES_ORIGIN ["COM"]
properties('MP2/aug-cc-pvtz', properties = ['dipole'])
--------------------------------------------------------------------------

    Molecular point group: c1
  Charge       = 0
  Multiplicity = 1
  Basis Set: AUG-CC-PVTZ
    Blend: AUG-CC-PVTZ
  Basis Set: (AUG-CC-PVTZ AUX)
    Blend: AUG-CC-PVTZ-JKFIT

    Orbital Energies [Eh]
    ---------------------

    Doubly Occupied:

       1A    -15.590074     2A    -15.556364     3A    -11.328048
       4A    -11.282516     5A    -11.279993     6A    -11.263831
       7A    -11.239710     8A    -11.235246     9A    -11.231865
      10A    -11.230534    11A    -11.230489    12A    -11.223378
      13A    -11.220653    14A     -1.297487    15A     -1.223549
      16A     -1.134894    17A     -1.088174    18A     -1.035058
      19A     -1.009552    20A     -0.982032    21A     -0.869643
      22A     -0.862588    23A     -0.824853    24A     -0.802874
      25A     -0.729205    26A     -0.716502    27A     -0.680187
      28A     -0.664540    29A     -0.642719    30A     -0.624562
      31A     -0.601445    32A     -0.596680    33A     -0.584489
      34A     -0.580155    35A     -0.568922    36A     -0.534518
      37A     -0.518114    38A     -0.507746    39A     -0.489454
      40A     -0.460396    41A     -0.418950    42A     -0.386178
      43A     -0.343601    44A     -0.332463    45A     -0.282486

  @DF-RHF Final Energy:  -531.45059933467815

   => Energetics <=

    Nuclear Repulsion Energy =            698.7026730033546755
    One-Electron Energy =               -2105.6931147661980503
    Two-Electron Energy =                 875.5398424281652296
    Total Energy =                       -531.4505993346781452
  Basis Set: (AUG-CC-PVTZ AUX)
    Blend: AUG-CC-PVTZ-RI
    Molecular point group: c1

    Geometry (in Angstrom), charge = 0, multiplicity = 1:

       Center              X                  Y                   Z               Mass
    ------------   -----------------  -----------------  -----------------  -----------------
         N            0.031335066530    -0.984326365987     0.322456203991    14.003074004430
         N            1.374045066530     0.903990634013    -0.083062796009    14.003074004430
         C           -1.239123933470    -0.410330365987     0.134914203991    12.000000000000
         C            1.282927066530    -0.419035365987     0.118055203991    12.000000000000
         C           -2.288003933470    -1.274021365987    -0.221817796009    12.000000000000
         C           -1.518119933470     0.944869634013     0.373873203991    12.000000000000
         C            2.415109066530    -1.260859365987     0.161517203991    12.000000000000
         C           -3.587941933470    -0.794135365987    -0.360565796009    12.000000000000
         C           -2.822089933470     1.414616634013     0.211885203991    12.000000000000
         C           -3.864248933470     0.557342634013    -0.145085796009    12.000000000000
         C            3.668957066530    -0.701109365987    -0.020762796009    12.000000000000
         C            3.776446066530     0.677364634013    -0.237322796009    12.000000000000
         C            2.604893066530     1.423595634013    -0.256801796009    12.000000000000
         H            0.029880366530    -1.977860765987     0.288988503991     1.007825032230
         H           -2.076649933470    -2.326501365987    -0.409190796009     1.007825032230
         H           -0.717327933470     1.615939634013     0.653042203991     1.007825032230
         H            2.301760066530    -2.329368365987     0.332722203991     1.007825032230
         H           -4.383913933470    -1.480452365987    -0.640108796009     1.007825032230
         H           -3.024699933470     2.468276634013     0.390537203991     1.007825032230
         H           -4.875858933470     0.937415634013    -0.260971796009     1.007825032230
         H            4.554648066530    -1.331472365987     0.004770203991     1.007825032230
         H            4.739974066530     1.155643634013    -0.382816796009     1.007825032230
         H            2.633309066530     2.499765634013    -0.420404796009     1.007825032230

  Basis Set: AUG-CC-PVTZ
    Blend: AUG-CC-PVTZ
  Basis Set: (AUG-CC-PVTZ AUX)
    Blend: AUG-CC-PVTZ-JKFIT
	 Reference Energy          =    -531.4505993346781452 [Eh]
	 Singles Energy            =      -0.0000000000000000 [Eh]
	 Same-Spin Energy          =      -0.5918735673251430 [Eh]
	 Opposite-Spin Energy      =      -1.8135493152464806 [Eh]
	 Correlation Energy        =      -2.4054228825716235 [Eh]
	 Total Energy              =    -533.8560222172498015 [Eh]

	 ================> DF-SCS-MP2 Energies <==================
	-----------------------------------------------------------
	 SCS Same-Spin Scale       =       0.3333333333333333 [-]
	 SCS Opposite-Spin Scale   =       1.2000000000000000 [-]
	 SCS Same-Spin Energy      =      -0.1972911891083810 [Eh]
	 SCS Opposite-Spin Energy  =      -2.1762591782957768 [Eh]
	 SCS Correlation Energy    =      -2.3735503674041576 [Eh]
	 SCS Total Energy          =    -533.8241497020823090 [Eh]
	-----------------------------------------------------------

  Dipole Moment: [D]
     X:     1.4689      Y:    -1.8387      Z:    -0.0666     Total:     2.3543

*** Psi4 exiting successfully. Buy a developer a beer!
