                               Psi4 1.3.2 release

  ==> Input File <==

--------------------------------------------------------------------------
#psi4
#
memory 32 gb

molecule  {
0 1
  N        0.0161818    -0.9358127     0.3204350
  N        1.3785830     0.9084480    -0.0806070
  C       -1.2345860    -0.4058730     0.1373700
  C        1.2874650    -0.4145780     0.1205110
  C       -2.2834660    -1.2695640    -0.2193620
  C       -1.5135820     0.9493270     0.3763290
  C        2.4196470    -1.2564020     0.1639730
  C       -3.5834040    -0.7896780    -0.3581100
  C       -2.8175520     1.4190740     0.2143410
  C       -3.8597110     0.5618000    -0.1426300
  C        3.6734950    -0.6966520    -0.0183070
  C        3.7809840     0.6818220    -0.2348670
  C        2.6094310     1.4280530    -0.2543460
  H        0.0343890    -1.9933920     0.2907710
  H       -2.0721120    -2.3220440    -0.4067350
  H       -0.7127900     1.6203970     0.6554980
  H        2.3062980    -2.3249110     0.3351780
  H       -4.3793760    -1.4759950    -0.6376530
  H       -3.0201620     2.4727340     0.3929930
  H       -4.8713210     0.9418730    -0.2585160
  H        4.5591860    -1.3270150     0.0072260
  H        4.7445120     1.1601010    -0.3803610
  H        2.6378470     2.5042230    -0.4179490
units angstrom
no_reorient  #important for SAPT in psi4, default
symmetry c1  #important for SAPT in psi4, default
}

set PROPERTIES_ORIGIN ["COM"]
properties('MP2/aug-cc-pvtz', properties = ['dipole'])
--------------------------------------------------------------------------

    Molecular point group: c1
  Charge       = 0
  Multiplicity = 1
  Basis Set: AUG-CC-PVTZ
    Blend: AUG-CC-PVTZ
  Basis Set: (AUG-CC-PVTZ AUX)
    Blend: AUG-CC-PVTZ-JKFIT

    Orbital Energies [Eh]
    ---------------------

    Doubly Occupied:

       1A    -15.595495     2A    -15.556646     3A    -11.329728
       4A    -11.280616     5A    -11.280433     6A    -11.265478
       7A    -11.242110     8A    -11.234354     9A    -11.231661
      10A    -11.230553    11A    -11.228714    12A    -11.221026
      13A    -11.217815    14A     -1.300141    15A     -1.225471
      16A     -1.132415    17A     -1.089487    18A     -1.037801
      19A     -1.008343    20A     -0.979085    21A     -0.870905
      22A     -0.864648    23A     -0.825163    24A     -0.800302
      25A     -0.729109    26A     -0.712757    27A     -0.679646
      28A     -0.663622    29A     -0.642787    30A     -0.625140
      31A     -0.602205    32A     -0.594579    33A     -0.584359
      34A     -0.577159    35A     -0.570574    36A     -0.534702
      37A     -0.519210    38A     -0.507703    39A     -0.487430
      40A     -0.459755    41A     -0.420338    42A     -0.387071
      43A     -0.344636    44A     -0.331532    45A     -0.279311

  @DF-RHF Final Energy:  -531.44533826700547

   => Energetics <=

    Nuclear Repulsion Energy =            699.2560816633402965
    One-Electron Energy =               -2106.7988110543547009
    Two-Electron Energy =                 876.0973911240088228
    Total Energy =                       -531.4453382670054680
  Basis Set: (AUG-CC-PVTZ AUX)
    Blend: AUG-CC-PVTZ-RI
    Molecular point group: c1

    Geometry (in Angstrom), charge = 0, multiplicity = 1:

       Center              X                  Y                   Z               Mass
    ------------   -----------------  -----------------  -----------------  -----------------
         N            0.013265219592    -0.943778786503     0.318351785671    14.003074004430
         N            1.375666419592     0.900481913497    -0.082690214329    14.003074004430
         C           -1.237502580408    -0.413839086503     0.135286785671    12.000000000000
         C            1.284548419592    -0.422544086503     0.118427785671    12.000000000000
         C           -2.286382580408    -1.277530086503    -0.221445214329    12.000000000000
         C           -1.516498580408     0.941360913497     0.374245785671    12.000000000000
         C            2.416730419592    -1.264368086503     0.161889785671    12.000000000000
         C           -3.586320580408    -0.797644086503    -0.360193214329    12.000000000000
         C           -2.820468580408     1.411107913497     0.212257785671    12.000000000000
         C           -3.862627580408     0.553833913497    -0.144713214329    12.000000000000
         C            3.670578419592    -0.704618086503    -0.020390214329    12.000000000000
         C            3.778067419592     0.673855913497    -0.236950214329    12.000000000000
         C            2.606514419592     1.420086913497    -0.256429214329    12.000000000000
         H            0.031472419592    -2.001358086503     0.288687785671     1.007825032230
         H           -2.075028580408    -2.330010086503    -0.408818214329     1.007825032230
         H           -0.715706580408     1.612430913497     0.653414785671     1.007825032230
         H            2.303381419592    -2.332877086503     0.333094785671     1.007825032230
         H           -4.382292580408    -1.483961086503    -0.639736214329     1.007825032230
         H           -3.023078580408     2.464767913497     0.390909785671     1.007825032230
         H           -4.874237580408     0.933906913497    -0.260599214329     1.007825032230
         H            4.556269419592    -1.334981086503     0.005142785671     1.007825032230
         H            4.741595419592     1.152134913497    -0.382444214329     1.007825032230
         H            2.634930419592     2.496256913497    -0.420032214329     1.007825032230

  Basis Set: AUG-CC-PVTZ
    Blend: AUG-CC-PVTZ
  Basis Set: (AUG-CC-PVTZ AUX)
    Blend: AUG-CC-PVTZ-JKFIT
	 Reference Energy          =    -531.4453382670054680 [Eh]
	 Singles Energy            =      -0.0000000000000000 [Eh]
	 Same-Spin Energy          =      -0.5928134463284411 [Eh]
	 Opposite-Spin Energy      =      -1.8150047939614151 [Eh]
	 Correlation Energy        =      -2.4078182402898562 [Eh]
	 Total Energy              =    -533.8531565072953526 [Eh]

	 ================> DF-SCS-MP2 Energies <==================
	-----------------------------------------------------------
	 SCS Same-Spin Scale       =       0.3333333333333333 [-]
	 SCS Opposite-Spin Scale   =       1.2000000000000000 [-]
	 SCS Same-Spin Energy      =      -0.1976044821094804 [Eh]
	 SCS Opposite-Spin Energy  =      -2.1780057527536982 [Eh]
	 SCS Correlation Energy    =      -2.3756102348631787 [Eh]
	 SCS Total Energy          =    -533.8209485018686564 [Eh]
	-----------------------------------------------------------

  Dipole Moment: [D]
     X:     1.6728      Y:    -1.8933      Z:    -0.0502     Total:     2.5269

*** Psi4 exiting successfully. Buy a developer a beer!
