                               Psi4 1.4a3.dev225

  ==> Input File <==

--------------------------------------------------------------------------
#psi4
#
memory 32 gb

molecule  {
0 1
  N        0.0358730    -0.9798690     0.3249120
  N        1.3785830     0.9084480    -0.0806070
  C       -1.2797445    -0.3854703     0.1307038
  C        1.2874650    -0.4145780     0.1205110
  C       -2.2834660    -1.2695640    -0.2193620
  C       -1.5135820     0.9493270     0.3763290
  C        2.4196470    -1.2564020     0.1639730
  C       -3.5834040    -0.7896780    -0.3581100
  C       -2.8175520     1.4190740     0.2143410
  C       -3.8597110     0.5618000    -0.1426300
  C        3.6734950    -0.6966520    -0.0183070
  C        3.7809840     0.6818220    -0.2348670
  C        2.6094310     1.4280530    -0.2543460
  H        0.0343890    -1.9933920     0.2907710
  H       -2.0721120    -2.3220440    -0.4067350
  H       -0.7127900     1.6203970     0.6554980
  H        2.3062980    -2.3249110     0.3351780
  H       -4.3793760    -1.4759950    -0.6376530
  H       -3.0201620     2.4727340     0.3929930
  H       -4.8713210     0.9418730    -0.2585160
  H        4.5591860    -1.3270150     0.0072260
  H        4.7445120     1.1601010    -0.3803610
  H        2.6378470     2.5042230    -0.4179490
units angstrom
no_reorient  #important for SAPT in psi4, default
symmetry c1  #important for SAPT in psi4, default
}

set PROPERTIES_ORIGIN ["COM"]
properties('MP2/aug-cc-pvtz', properties = ['dipole'])
--------------------------------------------------------------------------

    Molecular point group: c1
  Charge       = 0
  Multiplicity = 1
  Basis Set: AUG-CC-PVTZ
    Blend: AUG-CC-PVTZ
  Basis Set: (AUG-CC-PVTZ AUX)
    Blend: AUG-CC-PVTZ-JKFIT

    Orbital Energies [Eh]
    ---------------------

    Doubly Occupied:

       1A    -15.587304     2A    -15.553314     3A    -11.325115
       4A    -11.280993     5A    -11.277837     6A    -11.261521
       7A    -11.237155     8A    -11.236611     9A    -11.233886
      10A    -11.231281    11A    -11.227665    12A    -11.226171
      13A    -11.220655    14A     -1.288245    15A     -1.214548
      16A     -1.140418    17A     -1.085551    18A     -1.032182
      19A     -1.014977    20A     -0.983437    21A     -0.866093
      22A     -0.857235    23A     -0.828024    24A     -0.802583
      25A     -0.724721    26A     -0.711707    27A     -0.677714
      28A     -0.662186    29A     -0.638571    30A     -0.625525
      31A     -0.601213    32A     -0.596771    33A     -0.585910
      34A     -0.577319    35A     -0.566595    36A     -0.532186
      37A     -0.518541    38A     -0.505957    39A     -0.496826
      40A     -0.458919    41A     -0.416534    42A     -0.383924
      43A     -0.343694    44A     -0.335187    45A     -0.285793

  @DF-RHF Final Energy:  -531.44785801236549

   => Energetics <=

    Nuclear Repulsion Energy =            698.5317591564428312
    One-Electron Energy =               -2105.4420407477214212
    Two-Electron Energy =                 875.4624235789131035
    Total Energy =                       -531.4478580123654865
  Basis Set: (AUG-CC-PVTZ AUX)
    Blend: AUG-CC-PVTZ-RI
    Molecular point group: c1

    Geometry (in Angstrom), charge = 0, multiplicity = 1:

       Center              X                  Y                   Z               Mass
    ------------   -----------------  -----------------  -----------------  -----------------
         N            0.034521317207    -0.985647400666     0.322930515388    14.003074004430
         N            1.377231317207     0.902669599334    -0.082588484612    14.003074004430
         C           -1.281096182793    -0.391248700666     0.128722315388    12.000000000000
         C            1.286113317207    -0.420356400666     0.118529515388    12.000000000000
         C           -2.284817682793    -1.275342400666    -0.221343484612    12.000000000000
         C           -1.514933682793     0.943548599334     0.374347515388    12.000000000000
         C            2.418295317207    -1.262180400666     0.161991515388    12.000000000000
         C           -3.584755682793    -0.795456400666    -0.360091484612    12.000000000000
         C           -2.818903682793     1.413295599334     0.212359515388    12.000000000000
         C           -3.861062682793     0.556021599334    -0.144611484612    12.000000000000
         C            3.672143317207    -0.702430400666    -0.020288484612    12.000000000000
         C            3.779632317207     0.676043599334    -0.236848484612    12.000000000000
         C            2.608079317207     1.422274599334    -0.256327484612    12.000000000000
         H            0.033037317207    -1.999170400666     0.288789515388     1.007825032230
         H           -2.073463682793    -2.327822400666    -0.408716484612     1.007825032230
         H           -0.714141682793     1.614618599334     0.653516515388     1.007825032230
         H            2.304946317207    -2.330689400666     0.333196515388     1.007825032230
         H           -4.380727682793    -1.481773400666    -0.639634484612     1.007825032230
         H           -3.021513682793     2.466955599334     0.391011515388     1.007825032230
         H           -4.872672682793     0.936094599334    -0.260497484612     1.007825032230
         H            4.557834317207    -1.332793400666     0.005244515388     1.007825032230
         H            4.743160317207     1.154322599334    -0.382342484612     1.007825032230
         H            2.636495317207     2.498444599334    -0.419930484612     1.007825032230

  Basis Set: AUG-CC-PVTZ
    Blend: AUG-CC-PVTZ
  Basis Set: (AUG-CC-PVTZ AUX)
    Blend: AUG-CC-PVTZ-JKFIT
	 Reference Energy          =    -531.4478580123654865 [Eh]
	 Singles Energy            =      -0.0000000000000000 [Eh]
	 Same-Spin Energy          =      -0.5916703694319145 [Eh]
	 Opposite-Spin Energy      =      -1.8136129602714710 [Eh]
	 Correlation Energy        =      -2.4052833297033853 [Eh]
	 Total Energy              =    -533.8531413420688523 [Eh]

	 ================> DF-SCS-MP2 Energies <==================
	-----------------------------------------------------------
	 SCS Same-Spin Scale       =       0.3333333333333333 [-]
	 SCS Opposite-Spin Scale   =       1.2000000000000000 [-]
	 SCS Same-Spin Energy      =      -0.1972234564773048 [Eh]
	 SCS Opposite-Spin Energy  =      -2.1763355523257650 [Eh]
	 SCS Correlation Energy    =      -2.3735590088030700 [Eh]
	 SCS Total Energy          =    -533.8214170211685996 [Eh]
	-----------------------------------------------------------

  Dipole Moment: [D]
     X:     1.0483      Y:    -1.7985      Z:    -0.0902     Total:     2.0837

*** Psi4 exiting successfully. Buy a developer a beer!
