                               Psi4 1.3.2 release

  ==> Input File <==

--------------------------------------------------------------------------
#psi4
#
memory 32 gb

molecule  {
0 1
  N        0.0358730    -0.9798690     0.3249120
  N        1.3785830     0.9084480    -0.0806070
  C       -1.2345860    -0.4058730     0.1373700
  C        1.2641955    -0.4125334     0.1220563
  C       -2.2834660    -1.2695640    -0.2193620
  C       -1.5135820     0.9493270     0.3763290
  C        2.4196470    -1.2564020     0.1639730
  C       -3.5834040    -0.7896780    -0.3581100
  C       -2.8175520     1.4190740     0.2143410
  C       -3.8597110     0.5618000    -0.1426300
  C        3.6734950    -0.6966520    -0.0183070
  C        3.7809840     0.6818220    -0.2348670
  C        2.6094310     1.4280530    -0.2543460
  H        0.0343890    -1.9933920     0.2907710
  H       -2.0721120    -2.3220440    -0.4067350
  H       -0.7127900     1.6203970     0.6554980
  H        2.3062980    -2.3249110     0.3351780
  H       -4.3793760    -1.4759950    -0.6376530
  H       -3.0201620     2.4727340     0.3929930
  H       -4.8713210     0.9418730    -0.2585160
  H        4.5591860    -1.3270150     0.0072260
  H        4.7445120     1.1601010    -0.3803610
  H        2.6378470     2.5042230    -0.4179490
units angstrom
no_reorient  #important for SAPT in psi4, default
symmetry c1  #important for SAPT in psi4, default
}

set PROPERTIES_ORIGIN ["COM"]
properties('MP2/aug-cc-pvtz', properties = ['dipole'])
--------------------------------------------------------------------------

    Molecular point group: c1
  Charge       = 0
  Multiplicity = 1
  Basis Set: AUG-CC-PVTZ
    Blend: AUG-CC-PVTZ
  Basis Set: (AUG-CC-PVTZ AUX)
    Blend: AUG-CC-PVTZ-JKFIT

    Orbital Energies [Eh]
    ---------------------

    Doubly Occupied:

       1A    -15.595050     2A    -15.553871     3A    -11.328926
       4A    -11.283861     5A    -11.278546     6A    -11.261876
       7A    -11.239784     8A    -11.236452     9A    -11.233040
      10A    -11.232203    11A    -11.228293    12A    -11.224887
      13A    -11.222241    14A     -1.300165    15A     -1.223019
      16A     -1.136695    17A     -1.085169    18A     -1.034020
      19A     -1.010887    20A     -0.981862    21A     -0.867636
      22A     -0.863697    23A     -0.825716    24A     -0.801924
      25A     -0.730366    26A     -0.717073    27A     -0.680493
      28A     -0.665395    29A     -0.640754    30A     -0.623813
      31A     -0.601948    32A     -0.596800    33A     -0.586073
      34A     -0.580944    35A     -0.568151    36A     -0.533957
      37A     -0.517936    38A     -0.508952    39A     -0.490715
      40A     -0.462266    41A     -0.414595    42A     -0.384875
      43A     -0.342210    44A     -0.333547    45A     -0.282276

  @DF-RHF Final Energy:  -531.44952480360882

   => Energetics <=

    Nuclear Repulsion Energy =            698.6594596469130920
    One-Electron Energy =               -2105.5920522205756242
    Two-Electron Energy =                 875.4830677700537080
    Total Energy =                       -531.4495248036088242
  Basis Set: (AUG-CC-PVTZ AUX)
    Blend: AUG-CC-PVTZ-RI
    Molecular point group: c1

    Geometry (in Angstrom), charge = 0, multiplicity = 1:

       Center              X                  Y                   Z               Mass
    ------------   -----------------  -----------------  -----------------  -----------------
         N            0.032976978028    -0.984352177811     0.322351167717    14.003074004430
         N            1.375686978028     0.903964822189    -0.083167832283    14.003074004430
         C           -1.237482021972    -0.410356177811     0.134809167717    12.000000000000
         C            1.261299478028    -0.417016577811     0.119495467717    12.000000000000
         C           -2.286362021972    -1.274047177811    -0.221922832283    12.000000000000
         C           -1.516478021972     0.944843822189     0.373768167717    12.000000000000
         C            2.416750978028    -1.260885177811     0.161412167717    12.000000000000
         C           -3.586300021972    -0.794161177811    -0.360670832283    12.000000000000
         C           -2.820448021972     1.414590822189     0.211780167717    12.000000000000
         C           -3.862607021972     0.557316822189    -0.145190832283    12.000000000000
         C            3.670598978028    -0.701135177811    -0.020867832283    12.000000000000
         C            3.778087978028     0.677338822189    -0.237427832283    12.000000000000
         C            2.606534978028     1.423569822189    -0.256906832283    12.000000000000
         H            0.031492978028    -1.997875177811     0.288210167717     1.007825032230
         H           -2.075008021972    -2.326527177811    -0.409295832283     1.007825032230
         H           -0.715686021972     1.615913822189     0.652937167717     1.007825032230
         H            2.303401978028    -2.329394177811     0.332617167717     1.007825032230
         H           -4.382272021972    -1.480478177811    -0.640213832283     1.007825032230
         H           -3.023058021972     2.468250822189     0.390432167717     1.007825032230
         H           -4.874217021972     0.937389822189    -0.261076832283     1.007825032230
         H            4.556289978028    -1.331498177811     0.004665167717     1.007825032230
         H            4.741615978028     1.155617822189    -0.382921832283     1.007825032230
         H            2.634950978028     2.499739822189    -0.420509832283     1.007825032230

  Basis Set: AUG-CC-PVTZ
    Blend: AUG-CC-PVTZ
  Basis Set: (AUG-CC-PVTZ AUX)
    Blend: AUG-CC-PVTZ-JKFIT
	 Reference Energy          =    -531.4495248036088242 [Eh]
	 Singles Energy            =      -0.0000000000000000 [Eh]
	 Same-Spin Energy          =      -0.5920182281389146 [Eh]
	 Opposite-Spin Energy      =      -1.8139211440552843 [Eh]
	 Correlation Energy        =      -2.4059393721941991 [Eh]
	 Total Energy              =    -533.8554641758030357 [Eh]

	 ================> DF-SCS-MP2 Energies <==================
	-----------------------------------------------------------
	 SCS Same-Spin Scale       =       0.3333333333333333 [-]
	 SCS Opposite-Spin Scale   =       1.2000000000000000 [-]
	 SCS Same-Spin Energy      =      -0.1973394093796382 [Eh]
	 SCS Opposite-Spin Energy  =      -2.1767053728663410 [Eh]
	 SCS Correlation Energy    =      -2.3740447822459791 [Eh]
	 SCS Total Energy          =    -533.8235695858547842 [Eh]
	-----------------------------------------------------------

  Dipole Moment: [D]
     X:     1.2176      Y:    -1.8941      Z:    -0.0448     Total:     2.2521

*** Psi4 exiting successfully. Buy a developer a beer!
