                               Psi4 1.3.2 release

  ==> Input File <==

--------------------------------------------------------------------------
#psi4
#
memory 32 gb

molecule  {
0 1
  N        0.1043232    -1.1071302     0.3404271
  N        1.3785830     0.9084480    -0.0806070
  C       -1.2345860    -0.4058730     0.1373700
  C        1.2874650    -0.4145780     0.1205110
  C       -2.2834660    -1.2695640    -0.2193620
  C       -1.5135820     0.9493270     0.3763290
  C        2.4196470    -1.2564020     0.1639730
  C       -3.5834040    -0.7896780    -0.3581100
  C       -2.8175520     1.4190740     0.2143410
  C       -3.8597110     0.5618000    -0.1426300
  C        3.6734950    -0.6966520    -0.0183070
  C        3.7809840     0.6818220    -0.2348670
  C        2.6094310     1.4280530    -0.2543460
  H        0.0343890    -1.9933920     0.2907710
  H       -2.0721120    -2.3220440    -0.4067350
  H       -0.7127900     1.6203970     0.6554980
  H        2.3062980    -2.3249110     0.3351780
  H       -4.3793760    -1.4759950    -0.6376530
  H       -3.0201620     2.4727340     0.3929930
  H       -4.8713210     0.9418730    -0.2585160
  H        4.5591860    -1.3270150     0.0072260
  H        4.7445120     1.1601010    -0.3803610
  H        2.6378470     2.5042230    -0.4179490
units angstrom
no_reorient  #important for SAPT in psi4, default
symmetry c1  #important for SAPT in psi4, default
}

set PROPERTIES_ORIGIN ["COM"]
properties('MP2/aug-cc-pvtz', properties = ['dipole'])
--------------------------------------------------------------------------

    Molecular point group: c1
  Charge       = 0
  Multiplicity = 1
  Basis Set: AUG-CC-PVTZ
    Blend: AUG-CC-PVTZ
  Basis Set: (AUG-CC-PVTZ AUX)
    Blend: AUG-CC-PVTZ-JKFIT

    Orbital Energies [Eh]
    ---------------------

    Doubly Occupied:

       1A    -15.581768     2A    -15.556657     3A    -11.326144
       4A    -11.288753     5A    -11.278587     6A    -11.259143
       7A    -11.237587     8A    -11.235401     9A    -11.235247
      10A    -11.233320    11A    -11.229469    12A    -11.228484
      13A    -11.227750    14A     -1.289537    15A     -1.217995
      16A     -1.140949    17A     -1.084674    18A     -1.028542
      19A     -1.012630    20A     -0.988978    21A     -0.866597
      22A     -0.860138    23A     -0.823163    24A     -0.808846
      25A     -0.742612    26A     -0.708293    27A     -0.680807
      28A     -0.667207    29A     -0.636854    30A     -0.623680
      31A     -0.606900    32A     -0.592743    33A     -0.584786
      34A     -0.577696    35A     -0.561261    36A     -0.533654
      37A     -0.515385    38A     -0.504452    39A     -0.493478
      40A     -0.461240    41A     -0.414924    42A     -0.384094
      43A     -0.341461    44A     -0.334925    45A     -0.290275

  @DF-RHF Final Energy:  -531.42233390862634

   => Energetics <=

    Nuclear Repulsion Energy =            696.6604639061852140
    One-Electron Energy =               -2101.5714240111778963
    Two-Electron Energy =                 873.4886261963663401
    Total Energy =                       -531.4223339086263422
  Basis Set: (AUG-CC-PVTZ AUX)
    Blend: AUG-CC-PVTZ-RI
    Molecular point group: c1

    Geometry (in Angstrom), charge = 0, multiplicity = 1:

       Center              X                  Y                   Z               Mass
    ------------   -----------------  -----------------  -----------------  -----------------
         N            0.094149924921    -1.100991691053     0.336697933082    14.003074004430
         N            1.368409724921     0.914586508947    -0.084336166918    14.003074004430
         C           -1.244759275079    -0.399734491053     0.133640833082    12.000000000000
         C            1.277291724921    -0.408439491053     0.116781833082    12.000000000000
         C           -2.293639275079    -1.263425491053    -0.223091166918    12.000000000000
         C           -1.523755275079     0.955465508947     0.372599833082    12.000000000000
         C            2.409473724921    -1.250263491053     0.160243833082    12.000000000000
         C           -3.593577275079    -0.783539491053    -0.361839166918    12.000000000000
         C           -2.827725275079     1.425212508947     0.210611833082    12.000000000000
         C           -3.869884275079     0.567938508947    -0.146359166918    12.000000000000
         C            3.663321724921    -0.690513491053    -0.022036166918    12.000000000000
         C            3.770810724921     0.687960508947    -0.238596166918    12.000000000000
         C            2.599257724921     1.434191508947    -0.258075166918    12.000000000000
         H            0.024215724921    -1.987253491053     0.287041833082     1.007825032230
         H           -2.082285275079    -2.315905491053    -0.410464166918     1.007825032230
         H           -0.722963275079     1.626535508947     0.651768833082     1.007825032230
         H            2.296124724921    -2.318772491053     0.331448833082     1.007825032230
         H           -4.389549275079    -1.469856491053    -0.641382166918     1.007825032230
         H           -3.030335275079     2.478872508947     0.389263833082     1.007825032230
         H           -4.881494275079     0.948011508947    -0.262245166918     1.007825032230
         H            4.549012724921    -1.320876491053     0.003496833082     1.007825032230
         H            4.734338724921     1.166239508947    -0.384090166918     1.007825032230
         H            2.627673724921     2.510361508947    -0.421678166918     1.007825032230

  Basis Set: AUG-CC-PVTZ
    Blend: AUG-CC-PVTZ
  Basis Set: (AUG-CC-PVTZ AUX)
    Blend: AUG-CC-PVTZ-JKFIT
	 Reference Energy          =    -531.4223339086263422 [Eh]
	 Singles Energy            =      -0.0000000000000000 [Eh]
	 Same-Spin Energy          =      -0.5908036939740059 [Eh]
	 Opposite-Spin Energy      =      -1.8134801027926626 [Eh]
	 Correlation Energy        =      -2.4042837967666686 [Eh]
	 Total Energy              =    -533.8266177053930051 [Eh]

	 ================> DF-SCS-MP2 Energies <==================
	-----------------------------------------------------------
	 SCS Same-Spin Scale       =       0.3333333333333333 [-]
	 SCS Opposite-Spin Scale   =       1.2000000000000000 [-]
	 SCS Same-Spin Energy      =      -0.1969345646580020 [Eh]
	 SCS Opposite-Spin Energy  =      -2.1761761233511949 [Eh]
	 SCS Correlation Energy    =      -2.3731106880091968 [Eh]
	 SCS Total Energy          =    -533.7954445966355479 [Eh]
	-----------------------------------------------------------

  Dipole Moment: [D]
     X:     0.9148      Y:    -1.6819      Z:    -0.1276     Total:     1.9188

*** Psi4 exiting successfully. Buy a developer a beer!
