                               Psi4 1.3.2 release

  ==> Input File <==

--------------------------------------------------------------------------
#psi4
#
memory 32 gb

molecule  {
0 1
  N        0.0358730    -0.9798690     0.3249120
  N        1.3785830     0.9084480    -0.0806070
  C       -1.2345860    -0.4058730     0.1373700
  C        1.2874650    -0.4145780     0.1205110
  C       -2.3581318    -1.3310469    -0.2447564
  C       -1.5135820     0.9493270     0.3763290
  C        2.4196470    -1.2564020     0.1639730
  C       -3.5834040    -0.7896780    -0.3581100
  C       -2.8175520     1.4190740     0.2143410
  C       -3.8597110     0.5618000    -0.1426300
  C        3.6734950    -0.6966520    -0.0183070
  C        3.7809840     0.6818220    -0.2348670
  C        2.6094310     1.4280530    -0.2543460
  H        0.0343890    -1.9933920     0.2907710
  H       -2.0721120    -2.3220440    -0.4067350
  H       -0.7127900     1.6203970     0.6554980
  H        2.3062980    -2.3249110     0.3351780
  H       -4.3793760    -1.4759950    -0.6376530
  H       -3.0201620     2.4727340     0.3929930
  H       -4.8713210     0.9418730    -0.2585160
  H        4.5591860    -1.3270150     0.0072260
  H        4.7445120     1.1601010    -0.3803610
  H        2.6378470     2.5042230    -0.4179490
units angstrom
no_reorient  #important for SAPT in psi4, default
symmetry c1  #important for SAPT in psi4, default
}

set PROPERTIES_ORIGIN ["COM"]
properties('MP2/aug-cc-pvtz', properties = ['dipole'])
--------------------------------------------------------------------------

    Molecular point group: c1
  Charge       = 0
  Multiplicity = 1
  Basis Set: AUG-CC-PVTZ
    Blend: AUG-CC-PVTZ
  Basis Set: (AUG-CC-PVTZ AUX)
    Blend: AUG-CC-PVTZ-JKFIT

    Orbital Energies [Eh]
    ---------------------

    Doubly Occupied:

       1A    -15.595029     2A    -15.557158     3A    -11.328893
       4A    -11.291400     5A    -11.280489     6A    -11.264387
       7A    -11.240674     8A    -11.232900     9A    -11.232148
      10A    -11.231304    11A    -11.229823    12A    -11.221213
      13A    -11.217761    14A     -1.296674    15A     -1.221309
      16A     -1.132261    17A     -1.088858    18A     -1.032163
      19A     -1.017122    20A     -0.975198    21A     -0.870398
      22A     -0.863000    23A     -0.825567    24A     -0.798942
      25A     -0.727557    26A     -0.714278    27A     -0.683693
      28A     -0.669007    29A     -0.645321    30A     -0.621636
      31A     -0.600219    32A     -0.594362    33A     -0.587220
      34A     -0.581273    35A     -0.567300    36A     -0.535018
      37A     -0.516633    38A     -0.513126    39A     -0.479499
      40A     -0.460277    41A     -0.418809    42A     -0.386580
      43A     -0.342516    44A     -0.337939    45A     -0.276917

  @DF-RHF Final Energy:  -531.43854118101854

   => Energetics <=

    Nuclear Repulsion Energy =            697.1046741636533852
    One-Electron Energy =               -2102.4787250425815728
    Two-Electron Energy =                 873.9355096979097652
    Total Energy =                       -531.4385411810185360
  Basis Set: (AUG-CC-PVTZ AUX)
    Blend: AUG-CC-PVTZ-RI
    Molecular point group: c1

    Geometry (in Angstrom), charge = 0, multiplicity = 1:

       Center              X                  Y                   Z               Mass
    ------------   -----------------  -----------------  -----------------  -----------------
         N            0.036603151893    -0.979870108865     0.324251849985    14.003074004430
         N            1.379313151893     0.908446891135    -0.081267150015    14.003074004430
         C           -1.233855848107    -0.405874108865     0.136709849985    12.000000000000
         C            1.288195151893    -0.414579108865     0.119850849985    12.000000000000
         C           -2.357401648107    -1.331048008865    -0.245416550015    12.000000000000
         C           -1.512851848107     0.949325891135     0.375668849985    12.000000000000
         C            2.420377151893    -1.256403108865     0.163312849985    12.000000000000
         C           -3.582673848107    -0.789679108865    -0.358770150015    12.000000000000
         C           -2.816821848107     1.419072891135     0.213680849985    12.000000000000
         C           -3.858980848107     0.561798891135    -0.143290150015    12.000000000000
         C            3.674225151893    -0.696653108865    -0.018967150015    12.000000000000
         C            3.781714151893     0.681820891135    -0.235527150015    12.000000000000
         C            2.610161151893     1.428051891135    -0.255006150015    12.000000000000
         H            0.035119151893    -1.993393108865     0.290110849985     1.007825032230
         H           -2.071381848107    -2.322045108865    -0.407395150015     1.007825032230
         H           -0.712059848107     1.620395891135     0.654837849985     1.007825032230
         H            2.307028151893    -2.324912108865     0.334517849985     1.007825032230
         H           -4.378645848107    -1.475996108865    -0.638313150015     1.007825032230
         H           -3.019431848107     2.472732891135     0.392332849985     1.007825032230
         H           -4.870590848107     0.941871891135    -0.259176150015     1.007825032230
         H            4.559916151893    -1.327016108865     0.006565849985     1.007825032230
         H            4.745242151893     1.160099891135    -0.381021150015     1.007825032230
         H            2.638577151893     2.504221891135    -0.418609150015     1.007825032230

  Basis Set: AUG-CC-PVTZ
    Blend: AUG-CC-PVTZ
  Basis Set: (AUG-CC-PVTZ AUX)
    Blend: AUG-CC-PVTZ-JKFIT
	 Reference Energy          =    -531.4385411810185360 [Eh]
	 Singles Energy            =      -0.0000000000000000 [Eh]
	 Same-Spin Energy          =      -0.5919012744370775 [Eh]
	 Opposite-Spin Energy      =      -1.8145429084797586 [Eh]
	 Correlation Energy        =      -2.4064441829168359 [Eh]
	 Total Energy              =    -533.8449853639353933 [Eh]

	 ================> DF-SCS-MP2 Energies <==================
	-----------------------------------------------------------
	 SCS Same-Spin Scale       =       0.3333333333333333 [-]
	 SCS Opposite-Spin Scale   =       1.2000000000000000 [-]
	 SCS Same-Spin Energy      =      -0.1973004248123592 [Eh]
	 SCS Opposite-Spin Energy  =      -2.1774514901757103 [Eh]
	 SCS Correlation Energy    =      -2.3747519149880696 [Eh]
	 SCS Total Energy          =    -533.8132930960066460 [Eh]
	-----------------------------------------------------------

  Dipole Moment: [D]
     X:     1.6089      Y:    -1.8983      Z:    -0.0596     Total:     2.4891

*** Psi4 exiting successfully. Buy a developer a beer!
