                               Psi4 1.3.2 release

  ==> Input File <==

--------------------------------------------------------------------------
#psi4
#
memory 32 gb

molecule  {
0 1
  N        0.0358730    -0.9798690     0.3249120
  N        1.3785830     0.9084480    -0.0806070
  C       -1.2142667    -0.3614331     0.1421629
  C        1.2874650    -0.4145780     0.1205110
  C       -2.2834660    -1.2695640    -0.2193620
  C       -1.5135820     0.9493270     0.3763290
  C        2.4196470    -1.2564020     0.1639730
  C       -3.5834040    -0.7896780    -0.3581100
  C       -2.8175520     1.4190740     0.2143410
  C       -3.8597110     0.5618000    -0.1426300
  C        3.6734950    -0.6966520    -0.0183070
  C        3.7809840     0.6818220    -0.2348670
  C        2.6094310     1.4280530    -0.2543460
  H        0.0343890    -1.9933920     0.2907710
  H       -2.0721120    -2.3220440    -0.4067350
  H       -0.7127900     1.6203970     0.6554980
  H        2.3062980    -2.3249110     0.3351780
  H       -4.3793760    -1.4759950    -0.6376530
  H       -3.0201620     2.4727340     0.3929930
  H       -4.8713210     0.9418730    -0.2585160
  H        4.5591860    -1.3270150     0.0072260
  H        4.7445120     1.1601010    -0.3803610
  H        2.6378470     2.5042230    -0.4179490
units angstrom
no_reorient  #important for SAPT in psi4, default
symmetry c1  #important for SAPT in psi4, default
}

set PROPERTIES_ORIGIN ["COM"]
properties('MP2/aug-cc-pvtz', properties = ['dipole'])
--------------------------------------------------------------------------

    Molecular point group: c1
  Charge       = 0
  Multiplicity = 1
  Basis Set: AUG-CC-PVTZ
    Blend: AUG-CC-PVTZ
  Basis Set: (AUG-CC-PVTZ AUX)
    Blend: AUG-CC-PVTZ-JKFIT

    Orbital Energies [Eh]
    ---------------------

    Doubly Occupied:

       1A    -15.592434     2A    -15.556101     3A    -11.326946
       4A    -11.282433     5A    -11.279841     6A    -11.263560
       7A    -11.239249     8A    -11.235448     9A    -11.234190
      10A    -11.232738    11A    -11.230198    12A    -11.223328
      13A    -11.215844    14A     -1.296559    15A     -1.221797
      16A     -1.134412    17A     -1.087909    18A     -1.033764
      19A     -1.011453    20A     -0.980326    21A     -0.869472
      22A     -0.861277    23A     -0.826865    24A     -0.799828
      25A     -0.726582    26A     -0.716731    27A     -0.679534
      28A     -0.665271    29A     -0.642055    30A     -0.623831
      31A     -0.600301    32A     -0.599131    33A     -0.582727
      34A     -0.578979    35A     -0.568738    36A     -0.534277
      37A     -0.517699    38A     -0.508540    39A     -0.487772
      40A     -0.459939    41A     -0.418231    42A     -0.385918
      43A     -0.343472    44A     -0.332839    45A     -0.282243

  @DF-RHF Final Energy:  -531.44704509630822

   => Energetics <=

    Nuclear Repulsion Energy =            698.7556022944463621
    One-Electron Energy =               -2105.8237279049772042
    Two-Electron Energy =                 875.6210805142226263
    Total Energy =                       -531.4470450963082158
  Basis Set: (AUG-CC-PVTZ AUX)
    Blend: AUG-CC-PVTZ-RI
    Molecular point group: c1

    Geometry (in Angstrom), charge = 0, multiplicity = 1:

       Center              X                  Y                   Z               Mass
    ------------   -----------------  -----------------  -----------------  -----------------
         N            0.029901648338    -0.987343302247     0.322122039118    14.003074004430
         N            1.372611648338     0.900973697753    -0.083396960882    14.003074004430
         C           -1.220238051662    -0.368907402247     0.139372939118    12.000000000000
         C            1.281493648338    -0.422052302247     0.117721039118    12.000000000000
         C           -2.289437351662    -1.277038302247    -0.222151960882    12.000000000000
         C           -1.519553351662     0.941852697753     0.373539039118    12.000000000000
         C            2.413675648338    -1.263876302247     0.161183039118    12.000000000000
         C           -3.589375351662    -0.797152302247    -0.360899960882    12.000000000000
         C           -2.823523351662     1.411599697753     0.211551039118    12.000000000000
         C           -3.865682351662     0.554325697753    -0.145419960882    12.000000000000
         C            3.667523648338    -0.704126302247    -0.021096960882    12.000000000000
         C            3.775012648338     0.674347697753    -0.237656960882    12.000000000000
         C            2.603459648338     1.420578697753    -0.257135960882    12.000000000000
         H            0.028417648338    -2.000866302247     0.287981039118     1.007825032230
         H           -2.078083351662    -2.329518302247    -0.409524960882     1.007825032230
         H           -0.718761351662     1.612922697753     0.652708039118     1.007825032230
         H            2.300326648338    -2.332385302247     0.332388039118     1.007825032230
         H           -4.385347351662    -1.483469302247    -0.640442960882     1.007825032230
         H           -3.026133351662     2.465259697753     0.390203039118     1.007825032230
         H           -4.877292351662     0.934398697753    -0.261305960882     1.007825032230
         H            4.553214648338    -1.334489302247     0.004436039118     1.007825032230
         H            4.738540648338     1.152626697753    -0.383150960882     1.007825032230
         H            2.631875648338     2.496748697753    -0.420738960882     1.007825032230

  Basis Set: AUG-CC-PVTZ
    Blend: AUG-CC-PVTZ
  Basis Set: (AUG-CC-PVTZ AUX)
    Blend: AUG-CC-PVTZ-JKFIT
	 Reference Energy          =    -531.4470450963082158 [Eh]
	 Singles Energy            =      -0.0000000000000000 [Eh]
	 Same-Spin Energy          =      -0.5919959638015125 [Eh]
	 Opposite-Spin Energy      =      -1.8141320223626127 [Eh]
	 Correlation Energy        =      -2.4061279861641252 [Eh]
	 Total Energy              =    -533.8531730824723809 [Eh]

	 ================> DF-SCS-MP2 Energies <==================
	-----------------------------------------------------------
	 SCS Same-Spin Scale       =       0.3333333333333333 [-]
	 SCS Opposite-Spin Scale   =       1.2000000000000000 [-]
	 SCS Same-Spin Energy      =      -0.1973319879338375 [Eh]
	 SCS Opposite-Spin Energy  =      -2.1769584268351352 [Eh]
	 SCS Correlation Energy    =      -2.3742904147689727 [Eh]
	 SCS Total Energy          =    -533.8213355110772227 [Eh]
	-----------------------------------------------------------

  Dipole Moment: [D]
     X:     1.4495      Y:    -1.8601      Z:    -0.0578     Total:     2.3589

*** Psi4 exiting successfully. Buy a developer a beer!
