                               Psi4 1.3.2 release

  ==> Input File <==

--------------------------------------------------------------------------
#psi4
#
memory 32 gb

molecule  {
0 1
  N        0.0358730    -0.9798690     0.3249120
  N        1.3785830     0.9084480    -0.0806070
  C       -1.2345860    -0.4058730     0.1373700
  C        1.2874650    -0.4145780     0.1205110
  C       -2.2834660    -1.2695640    -0.2193620
  C       -1.5135820     0.9493270     0.3763290
  C        2.4196470    -1.2564020     0.1639730
  C       -3.5834040    -0.7896780    -0.3581100
  C       -2.8175520     1.4190740     0.2143410
  C       -3.8597110     0.5618000    -0.1426300
  C        3.6734950    -0.6966520    -0.0183070
  C        3.7809840     0.6818220    -0.2348670
  C        2.7007890     1.4666200    -0.2672415
  H        0.0343890    -1.9933920     0.2907710
  H       -2.0721120    -2.3220440    -0.4067350
  H       -0.7127900     1.6203970     0.6554980
  H        2.3062980    -2.3249110     0.3351780
  H       -4.3793760    -1.4759950    -0.6376530
  H       -3.0201620     2.4727340     0.3929930
  H       -4.8713210     0.9418730    -0.2585160
  H        4.5591860    -1.3270150     0.0072260
  H        4.7445120     1.1601010    -0.3803610
  H        2.6378470     2.5042230    -0.4179490
units angstrom
no_reorient  #important for SAPT in psi4, default
symmetry c1  #important for SAPT in psi4, default
}

set PROPERTIES_ORIGIN ["COM"]
properties('MP2/aug-cc-pvtz', properties = ['dipole'])
--------------------------------------------------------------------------

    Molecular point group: c1
  Charge       = 0
  Multiplicity = 1
  Basis Set: AUG-CC-PVTZ
    Blend: AUG-CC-PVTZ
  Basis Set: (AUG-CC-PVTZ AUX)
    Blend: AUG-CC-PVTZ-JKFIT

    Orbital Energies [Eh]
    ---------------------

    Doubly Occupied:

       1A    -15.590894     2A    -15.555442     3A    -11.325575
       4A    -11.281333     5A    -11.276150     6A    -11.266693
       7A    -11.244556     8A    -11.234204     9A    -11.230661
      10A    -11.229625    11A    -11.229229    12A    -11.222485
      13A    -11.219332    14A     -1.288328    15A     -1.205866
      16A     -1.132733    17A     -1.084753    18A     -1.039655
      19A     -1.008391    20A     -0.985135    21A     -0.875379
      22A     -0.854737    23A     -0.823862    24A     -0.798954
      25A     -0.729745    26A     -0.712758    27A     -0.679830
      28A     -0.665325    29A     -0.639984    30A     -0.627917
      31A     -0.604071    32A     -0.594816    33A     -0.581730
      34A     -0.577085    35A     -0.568955    36A     -0.527052
      37A     -0.515225    38A     -0.506973    39A     -0.488714
      40A     -0.460247    41A     -0.416359    42A     -0.374365
      43A     -0.349751    44A     -0.331330    45A     -0.285815

  @DF-RHF Final Energy:  -531.43686793757774

   => Energetics <=

    Nuclear Repulsion Energy =            697.1087754493258899
    One-Electron Energy =               -2102.6072491600061767
    Two-Electron Energy =                 874.0616057731024284
    Total Energy =                       -531.4368679375777447
  Basis Set: (AUG-CC-PVTZ AUX)
    Blend: AUG-CC-PVTZ-RI
    Molecular point group: c1

    Geometry (in Angstrom), charge = 0, multiplicity = 1:

       Center              X                  Y                   Z               Mass
    ------------   -----------------  -----------------  -----------------  -----------------
         N            0.024889640133    -0.986928950309     0.323370012489    14.003074004430
         N            1.367599640133     0.901388049691    -0.082148987511    14.003074004430
         C           -1.245569359867    -0.412932950309     0.135828012489    12.000000000000
         C            1.276481640133    -0.421637950309     0.118969012489    12.000000000000
         C           -2.294449359867    -1.276623950309    -0.220903987511    12.000000000000
         C           -1.524565359867     0.942267049691     0.374787012489    12.000000000000
         C            2.408663640133    -1.263461950309     0.162431012489    12.000000000000
         C           -3.594387359867    -0.796737950309    -0.359651987511    12.000000000000
         C           -2.828535359867     1.412014049691     0.212799012489    12.000000000000
         C           -3.870694359867     0.554740049691    -0.144171987511    12.000000000000
         C            3.662511640133    -0.703711950309    -0.019848987511    12.000000000000
         C            3.770000640133     0.674762049691    -0.236408987511    12.000000000000
         C            2.689805640133     1.459560049691    -0.268783487511    12.000000000000
         H            0.023405640133    -2.000451950309     0.289229012489     1.007825032230
         H           -2.083095359867    -2.329103950309    -0.408276987511     1.007825032230
         H           -0.723773359867     1.613337049691     0.653956012489     1.007825032230
         H            2.295314640133    -2.331970950309     0.333636012489     1.007825032230
         H           -4.390359359867    -1.483054950309    -0.639194987511     1.007825032230
         H           -3.031145359867     2.465674049691     0.391451012489     1.007825032230
         H           -4.882304359867     0.934813049691    -0.260057987511     1.007825032230
         H            4.548202640133    -1.334074950309     0.005684012489     1.007825032230
         H            4.733528640133     1.153041049691    -0.381902987511     1.007825032230
         H            2.626863640133     2.497163049691    -0.419490987511     1.007825032230

  Basis Set: AUG-CC-PVTZ
    Blend: AUG-CC-PVTZ
  Basis Set: (AUG-CC-PVTZ AUX)
    Blend: AUG-CC-PVTZ-JKFIT
	 Reference Energy          =    -531.4368679375777447 [Eh]
	 Singles Energy            =      -0.0000000000000000 [Eh]
	 Same-Spin Energy          =      -0.5921431711223042 [Eh]
	 Opposite-Spin Energy      =      -1.8162239271361207 [Eh]
	 Correlation Energy        =      -2.4083670982584247 [Eh]
	 Total Energy              =    -533.8452350358361400 [Eh]

	 ================> DF-SCS-MP2 Energies <==================
	-----------------------------------------------------------
	 SCS Same-Spin Scale       =       0.3333333333333333 [-]
	 SCS Opposite-Spin Scale   =       1.2000000000000000 [-]
	 SCS Same-Spin Energy      =      -0.1973810570407681 [Eh]
	 SCS Opposite-Spin Energy  =      -2.1794687125633447 [Eh]
	 SCS Correlation Energy    =      -2.3768497696041129 [Eh]
	 SCS Total Energy          =    -533.8137177071818087 [Eh]
	-----------------------------------------------------------

  Dipole Moment: [D]
     X:     1.6119      Y:    -1.8507      Z:    -0.0748     Total:     2.4554

*** Psi4 exiting successfully. Buy a developer a beer!
