                               Psi4 1.3.2 release

  ==> Input File <==

--------------------------------------------------------------------------
#psi4
#
memory 32 gb

molecule  {
0 1
  N        0.0358730    -0.9798690     0.3249120
  N        1.3785830     0.9084480    -0.0806070
  C       -1.2345860    -0.4058730     0.1373700
  C        1.2874650    -0.4145780     0.1205110
  C       -2.2834660    -1.2695640    -0.2193620
  C       -1.5135820     0.9493270     0.3763290
  C        2.4196470    -1.2564020     0.1639730
  C       -3.5834040    -0.7896780    -0.3581100
  C       -2.8175520     1.4190740     0.2143410
  C       -3.8597110     0.5618000    -0.1426300
  C        3.6734950    -0.6966520    -0.0183070
  C        3.7809840     0.6818220    -0.2348670
  C        2.4267149     1.3509190    -0.2285549
  H        0.0343890    -1.9933920     0.2907710
  H       -2.0721120    -2.3220440    -0.4067350
  H       -0.7127900     1.6203970     0.6554980
  H        2.3062980    -2.3249110     0.3351780
  H       -4.3793760    -1.4759950    -0.6376530
  H       -3.0201620     2.4727340     0.3929930
  H       -4.8713210     0.9418730    -0.2585160
  H        4.5591860    -1.3270150     0.0072260
  H        4.7445120     1.1601010    -0.3803610
  H        2.6378470     2.5042230    -0.4179490
units angstrom
no_reorient  #important for SAPT in psi4, default
symmetry c1  #important for SAPT in psi4, default
}

set PROPERTIES_ORIGIN ["COM"]
properties('MP2/aug-cc-pvtz', properties = ['dipole'])
--------------------------------------------------------------------------

    Molecular point group: c1
  Charge       = 0
  Multiplicity = 1
  Basis Set: AUG-CC-PVTZ
    Blend: AUG-CC-PVTZ
  Basis Set: (AUG-CC-PVTZ AUX)
    Blend: AUG-CC-PVTZ-JKFIT

    Orbital Energies [Eh]
    ---------------------

    Doubly Occupied:

       1A    -15.595615     2A    -15.552518     3A    -11.334120
       4A    -11.286064     5A    -11.281702     6A    -11.256181
       7A    -11.238106     8A    -11.235220     9A    -11.233051
      10A    -11.232701    11A    -11.232227    12A    -11.225829
      13A    -11.224502    14A     -1.343828    15A     -1.257151
      16A     -1.139948    17A     -1.093501    18A     -1.028906
      19A     -1.012611    20A     -0.972345    21A     -0.885334
      22A     -0.852505    23A     -0.828164    24A     -0.806065
      25A     -0.730436    26A     -0.716537    27A     -0.681035
      28A     -0.666550    29A     -0.652891    30A     -0.620107
      31A     -0.604132    32A     -0.599276    33A     -0.586226
      34A     -0.585478    35A     -0.573405    36A     -0.544061
      37A     -0.531466    38A     -0.508833    39A     -0.491074
      40A     -0.466961    41A     -0.411232    42A     -0.394972
      43A     -0.337681    44A     -0.334404    45A     -0.273948

  @DF-RHF Final Energy:  -531.39248325091035

   => Energetics <=

    Nuclear Repulsion Energy =            702.1685376007181958
    One-Electron Energy =               -2112.2042411672600792
    Two-Electron Energy =                 878.6432203156316518
    Total Energy =                       -531.3924832509103453
  Basis Set: (AUG-CC-PVTZ AUX)
    Blend: AUG-CC-PVTZ-RI
    Molecular point group: c1

    Geometry (in Angstrom), charge = 0, multiplicity = 1:

       Center              X                  Y                   Z               Mass
    ------------   -----------------  -----------------  -----------------  -----------------
         N            0.044226447226    -0.978765873545     0.320640548737    14.003074004430
         N            1.386936447226     0.909551126455    -0.084878451263    14.003074004430
         C           -1.226232552774    -0.404769873545     0.133098548737    12.000000000000
         C            1.295818447226    -0.413474873545     0.116239548737    12.000000000000
         C           -2.275112552774    -1.268460873545    -0.223633451263    12.000000000000
         C           -1.505228552774     0.950430126455     0.372057548737    12.000000000000
         C            2.428000447226    -1.255298873545     0.159701548737    12.000000000000
         C           -3.575050552774    -0.788574873545    -0.362381451263    12.000000000000
         C           -2.809198552774     1.420177126455     0.210069548737    12.000000000000
         C           -3.851357552774     0.562903126455    -0.146901451263    12.000000000000
         C            3.681848447226    -0.695548873545    -0.022578451263    12.000000000000
         C            3.789337447226     0.682925126455    -0.239138451263    12.000000000000
         C            2.435068347226     1.352022126455    -0.232826351263    12.000000000000
         H            0.042742447226    -1.992288873545     0.286499548737     1.007825032230
         H           -2.063758552774    -2.320940873545    -0.411006451263     1.007825032230
         H           -0.704436552774     1.621500126455     0.651226548737     1.007825032230
         H            2.314651447226    -2.323807873545     0.330906548737     1.007825032230
         H           -4.371022552774    -1.474891873545    -0.641924451263     1.007825032230
         H           -3.011808552774     2.473837126455     0.388721548737     1.007825032230
         H           -4.862967552774     0.942976126455    -0.262787451263     1.007825032230
         H            4.567539447226    -1.325911873545     0.002954548737     1.007825032230
         H            4.752865447226     1.161204126455    -0.384632451263     1.007825032230
         H            2.646200447226     2.505326126455    -0.422220451263     1.007825032230

  Basis Set: AUG-CC-PVTZ
    Blend: AUG-CC-PVTZ
  Basis Set: (AUG-CC-PVTZ AUX)
    Blend: AUG-CC-PVTZ-JKFIT
	 Reference Energy          =    -531.3924832509103453 [Eh]
	 Singles Energy            =      -0.0000000000000000 [Eh]
	 Same-Spin Energy          =      -0.5908252221002803 [Eh]
	 Opposite-Spin Energy      =      -1.8122771279800853 [Eh]
	 Correlation Energy        =      -2.4031023500803657 [Eh]
	 Total Energy              =    -533.7955856009907620 [Eh]

	 ================> DF-SCS-MP2 Energies <==================
	-----------------------------------------------------------
	 SCS Same-Spin Scale       =       0.3333333333333333 [-]
	 SCS Opposite-Spin Scale   =       1.2000000000000000 [-]
	 SCS Same-Spin Energy      =      -0.1969417407000934 [Eh]
	 SCS Opposite-Spin Energy  =      -2.1747325535761024 [Eh]
	 SCS Correlation Energy    =      -2.3716742942761959 [Eh]
	 SCS Total Energy          =    -533.7641575451865492 [Eh]
	-----------------------------------------------------------

  Dipole Moment: [D]
     X:     0.9708      Y:    -1.9136      Z:    -0.0294     Total:     2.1460

*** Psi4 exiting successfully. Buy a developer a beer!
