                               Psi4 1.3.2 release

  ==> Input File <==

--------------------------------------------------------------------------
#psi4
#
memory 32 gb

molecule  {
0 1
  N        0.0175387    -1.0230673     0.3104720
  N        1.3785830     0.9084480    -0.0806070
  C       -1.2345860    -0.4058730     0.1373700
  C        1.2874650    -0.4145780     0.1205110
  C       -2.2834660    -1.2695640    -0.2193620
  C       -1.5135820     0.9493270     0.3763290
  C        2.4196470    -1.2564020     0.1639730
  C       -3.5834040    -0.7896780    -0.3581100
  C       -2.8175520     1.4190740     0.2143410
  C       -3.8597110     0.5618000    -0.1426300
  C        3.6734950    -0.6966520    -0.0183070
  C        3.7809840     0.6818220    -0.2348670
  C        2.6094310     1.4280530    -0.2543460
  H        0.0343890    -1.9933920     0.2907710
  H       -2.0721120    -2.3220440    -0.4067350
  H       -0.7127900     1.6203970     0.6554980
  H        2.3062980    -2.3249110     0.3351780
  H       -4.3793760    -1.4759950    -0.6376530
  H       -3.0201620     2.4727340     0.3929930
  H       -4.8713210     0.9418730    -0.2585160
  H        4.5591860    -1.3270150     0.0072260
  H        4.7445120     1.1601010    -0.3803610
  H        2.6378470     2.5042230    -0.4179490
units angstrom
no_reorient  #important for SAPT in psi4, default
symmetry c1  #important for SAPT in psi4, default
}

set PROPERTIES_ORIGIN ["COM"]
properties('MP2/aug-cc-pvtz', properties = ['dipole'])
--------------------------------------------------------------------------

    Molecular point group: c1
  Charge       = 0
  Multiplicity = 1
  Basis Set: AUG-CC-PVTZ
    Blend: AUG-CC-PVTZ
  Basis Set: (AUG-CC-PVTZ AUX)
    Blend: AUG-CC-PVTZ-JKFIT

    Orbital Energies [Eh]
    ---------------------

    Doubly Occupied:

       1A    -15.587807     2A    -15.559694     3A    -11.330602
       4A    -11.281463     5A    -11.281282     6A    -11.264749
       7A    -11.241358     8A    -11.233688     9A    -11.232875
      10A    -11.231275    11A    -11.227908    12A    -11.221860
      13A    -11.220278    14A     -1.292337    15A     -1.224436
      16A     -1.132859    17A     -1.089517    18A     -1.034435
      19A     -1.008271    20A     -0.982160    21A     -0.869640
      22A     -0.860810    23A     -0.823719    24A     -0.804522
      25A     -0.727322    26A     -0.717245    27A     -0.680520
      28A     -0.664020    29A     -0.645107    30A     -0.624651
      31A     -0.599620    32A     -0.597947    33A     -0.582078
      34A     -0.579557    35A     -0.567997    36A     -0.535837
      37A     -0.518357    38A     -0.506344    39A     -0.488620
      40A     -0.458422    41A     -0.419849    42A     -0.387372
      43A     -0.344034    44A     -0.331446    45A     -0.282671

  @DF-RHF Final Energy:  -531.44792376760108

   => Energetics <=

    Nuclear Repulsion Energy =            698.0065587643583740
    One-Electron Energy =               -2104.3158455387106187
    Two-Electron Energy =                 874.8613630067510485
    Total Energy =                       -531.4479237676010825
  Basis Set: (AUG-CC-PVTZ AUX)
    Blend: AUG-CC-PVTZ-RI
    Molecular point group: c1

    Geometry (in Angstrom), charge = 0, multiplicity = 1:

       Center              X                  Y                   Z               Mass
    ------------   -----------------  -----------------  -----------------  -----------------
         N            0.014510405812    -1.023849702208     0.309209040954    14.003074004430
         N            1.375554705812     0.907665597792    -0.081869959046    14.003074004430
         C           -1.237614294188    -0.406655402208     0.136107040954    12.000000000000
         C            1.284436705812    -0.415360402208     0.119248040954    12.000000000000
         C           -2.286494294188    -1.270346402208    -0.220624959046    12.000000000000
         C           -1.516610294188     0.948544597792     0.375066040954    12.000000000000
         C            2.416618705812    -1.257184402208     0.162710040954    12.000000000000
         C           -3.586432294188    -0.790460402208    -0.359372959046    12.000000000000
         C           -2.820580294188     1.418291597792     0.213078040954    12.000000000000
         C           -3.862739294188     0.561017597792    -0.143892959046    12.000000000000
         C            3.670466705812    -0.697434402208    -0.019569959046    12.000000000000
         C            3.777955705812     0.681039597792    -0.236129959046    12.000000000000
         C            2.606402705812     1.427270597792    -0.255608959046    12.000000000000
         H            0.031360705812    -1.994174402208     0.289508040954     1.007825032230
         H           -2.075140294188    -2.322826402208    -0.407997959046     1.007825032230
         H           -0.715818294188     1.619614597792     0.654235040954     1.007825032230
         H            2.303269705812    -2.325693402208     0.333915040954     1.007825032230
         H           -4.382404294188    -1.476777402208    -0.638915959046     1.007825032230
         H           -3.023190294188     2.471951597792     0.391730040954     1.007825032230
         H           -4.874349294188     0.941090597792    -0.259778959046     1.007825032230
         H            4.556157705812    -1.327797402208     0.005963040954     1.007825032230
         H            4.741483705812     1.159318597792    -0.381623959046     1.007825032230
         H            2.634818705812     2.503440597792    -0.419211959046     1.007825032230

  Basis Set: AUG-CC-PVTZ
    Blend: AUG-CC-PVTZ
  Basis Set: (AUG-CC-PVTZ AUX)
    Blend: AUG-CC-PVTZ-JKFIT
	 Reference Energy          =    -531.4479237676010825 [Eh]
	 Singles Energy            =      -0.0000000000000000 [Eh]
	 Same-Spin Energy          =      -0.5917351806573631 [Eh]
	 Opposite-Spin Energy      =      -1.8135485814889507 [Eh]
	 Correlation Energy        =      -2.4052837621463139 [Eh]
	 Total Energy              =    -533.8532075297473511 [Eh]

	 ================> DF-SCS-MP2 Energies <==================
	-----------------------------------------------------------
	 SCS Same-Spin Scale       =       0.3333333333333333 [-]
	 SCS Opposite-Spin Scale   =       1.2000000000000000 [-]
	 SCS Same-Spin Energy      =      -0.1972450602191210 [Eh]
	 SCS Opposite-Spin Energy  =      -2.1762582977867408 [Eh]
	 SCS Correlation Energy    =      -2.3735033580058618 [Eh]
	 SCS Total Energy          =    -533.8214271256069878 [Eh]
	-----------------------------------------------------------

  Dipole Moment: [D]
     X:     1.7009      Y:    -1.7995      Z:    -0.0610     Total:     2.4769

*** Psi4 exiting successfully. Buy a developer a beer!
