                               Psi4 1.3.2 release

  ==> Input File <==

--------------------------------------------------------------------------
#psi4
#
memory 32 gb

molecule  {
0 1
  N       -0.0185320    -0.8458494     0.3107559
  N        1.3785830     0.9084480    -0.0806070
  C       -1.2345860    -0.4058730     0.1373700
  C        1.2874650    -0.4145780     0.1205110
  C       -2.2834660    -1.2695640    -0.2193620
  C       -1.5135820     0.9493270     0.3763290
  C        2.4196470    -1.2564020     0.1639730
  C       -3.5834040    -0.7896780    -0.3581100
  C       -2.8175520     1.4190740     0.2143410
  C       -3.8597110     0.5618000    -0.1426300
  C        3.6734950    -0.6966520    -0.0183070
  C        3.7809840     0.6818220    -0.2348670
  C        2.6094310     1.4280530    -0.2543460
  H        0.0343890    -1.9933920     0.2907710
  H       -2.0721120    -2.3220440    -0.4067350
  H       -0.7127900     1.6203970     0.6554980
  H        2.3062980    -2.3249110     0.3351780
  H       -4.3793760    -1.4759950    -0.6376530
  H       -3.0201620     2.4727340     0.3929930
  H       -4.8713210     0.9418730    -0.2585160
  H        4.5591860    -1.3270150     0.0072260
  H        4.7445120     1.1601010    -0.3803610
  H        2.6378470     2.5042230    -0.4179490
units angstrom
no_reorient  #important for SAPT in psi4, default
symmetry c1  #important for SAPT in psi4, default
}

set PROPERTIES_ORIGIN ["COM"]
properties('MP2/aug-cc-pvtz', properties = ['dipole'])
--------------------------------------------------------------------------

    Molecular point group: c1
  Charge       = 0
  Multiplicity = 1
  Basis Set: AUG-CC-PVTZ
    Blend: AUG-CC-PVTZ
  Basis Set: (AUG-CC-PVTZ AUX)
    Blend: AUG-CC-PVTZ-JKFIT

    Orbital Energies [Eh]
    ---------------------

    Doubly Occupied:

       1A    -15.602409     2A    -15.557931     3A    -11.334541
       4A    -11.282190     5A    -11.276573     6A    -11.269081
       7A    -11.247482     8A    -11.234633     9A    -11.232611
      10A    -11.227910    11A    -11.225056    12A    -11.216234
      13A    -11.212151    14A     -1.310202    15A     -1.233343
      16A     -1.128364    17A     -1.092601    18A     -1.044211
      19A     -1.006007    20A     -0.975281    21A     -0.875294
      22A     -0.870802    23A     -0.826017    24A     -0.798091
      25A     -0.735084    26A     -0.706791    27A     -0.680008
      28A     -0.663124    29A     -0.642648    30A     -0.627157
      31A     -0.604705    32A     -0.597502    33A     -0.583290
      34A     -0.572528    35A     -0.564855    36A     -0.534490
      37A     -0.521725    38A     -0.506537    39A     -0.481885
      40A     -0.458487    41A     -0.423449    42A     -0.389278
      43A     -0.347422    44A     -0.329704    45A     -0.273056

  @DF-RHF Final Energy:  -531.41778201044713

   => Energetics <=

    Nuclear Repulsion Energy =            700.6584461309797689
    One-Electron Energy =               -2109.5069770422051079
    Two-Electron Energy =                 877.4307489007780987
    Total Energy =                       -531.4177820104471266
  Basis Set: (AUG-CC-PVTZ AUX)
    Blend: AUG-CC-PVTZ-RI
    Molecular point group: c1

    Geometry (in Angstrom), charge = 0, multiplicity = 1:

       Center              X                  Y                   Z               Mass
    ------------   -----------------  -----------------  -----------------  -----------------
         N           -0.018590588051    -0.861222178474     0.309469567425    14.003074004430
         N            1.378524411949     0.893075221526    -0.081893332575    14.003074004430
         C           -1.234644588051    -0.421245778474     0.136083667425    12.000000000000
         C            1.287406411949    -0.429950778474     0.119224667425    12.000000000000
         C           -2.283524588051    -1.284936778474    -0.220648332575    12.000000000000
         C           -1.513640588051     0.933954221526     0.375042667425    12.000000000000
         C            2.419588411949    -1.271774778474     0.162686667425    12.000000000000
         C           -3.583462588051    -0.805050778474    -0.359396332575    12.000000000000
         C           -2.817610588051     1.403701221526     0.213054667425    12.000000000000
         C           -3.859769588051     0.546427221526    -0.143916332575    12.000000000000
         C            3.673436411949    -0.712024778474    -0.019593332575    12.000000000000
         C            3.780925411949     0.666449221526    -0.236153332575    12.000000000000
         C            2.609372411949     1.412680221526    -0.255632332575    12.000000000000
         H            0.034330411949    -2.008764778474     0.289484667425     1.007825032230
         H           -2.072170588051    -2.337416778474    -0.408021332575     1.007825032230
         H           -0.712848588051     1.605024221526     0.654211667425     1.007825032230
         H            2.306239411949    -2.340283778474     0.333891667425     1.007825032230
         H           -4.379434588051    -1.491367778474    -0.638939332575     1.007825032230
         H           -3.020220588051     2.457361221526     0.391706667425     1.007825032230
         H           -4.871379588051     0.926500221526    -0.259802332575     1.007825032230
         H            4.559127411949    -1.342387778474     0.005939667425     1.007825032230
         H            4.744453411949     1.144728221526    -0.381647332575     1.007825032230
         H            2.637788411949     2.488850221526    -0.419235332575     1.007825032230

  Basis Set: AUG-CC-PVTZ
    Blend: AUG-CC-PVTZ
  Basis Set: (AUG-CC-PVTZ AUX)
    Blend: AUG-CC-PVTZ-JKFIT
	 Reference Energy          =    -531.4177820104471266 [Eh]
	 Singles Energy            =      -0.0000000000000000 [Eh]
	 Same-Spin Energy          =      -0.5947762755164147 [Eh]
	 Opposite-Spin Energy      =      -1.8183048171674365 [Eh]
	 Correlation Energy        =      -2.4130810926838513 [Eh]
	 Total Energy              =    -533.8308631031309233 [Eh]

	 ================> DF-SCS-MP2 Energies <==================
	-----------------------------------------------------------
	 SCS Same-Spin Scale       =       0.3333333333333333 [-]
	 SCS Opposite-Spin Scale   =       1.2000000000000000 [-]
	 SCS Same-Spin Energy      =      -0.1982587585054715 [Eh]
	 SCS Opposite-Spin Energy  =      -2.1819657806009238 [Eh]
	 SCS Correlation Energy    =      -2.3802245391063952 [Eh]
	 SCS Total Energy          =    -533.7980065495535200 [Eh]
	-----------------------------------------------------------

  Dipole Moment: [D]
     X:     2.1020      Y:    -1.9371      Z:    -0.0237     Total:     2.8586

*** Psi4 exiting successfully. Buy a developer a beer!
