                               Psi4 1.4a3.dev225

  ==> Input File <==

--------------------------------------------------------------------------
#psi4
#
memory 32 gb

molecule  {
0 1
  N        0.0358730    -0.9798690     0.3249120
  N        1.3785830     0.9084480    -0.0806070
  C       -1.2345860    -0.4058730     0.1373700
  C        1.2874650    -0.4145780     0.1205110
  C       -2.2983992    -1.2818606    -0.2244409
  C       -1.5135820     0.9493270     0.3763290
  C        2.4196470    -1.2564020     0.1639730
  C       -3.5834040    -0.7896780    -0.3581100
  C       -2.8175520     1.4190740     0.2143410
  C       -3.8597110     0.5618000    -0.1426300
  C        3.6734950    -0.6966520    -0.0183070
  C        3.7809840     0.6818220    -0.2348670
  C        2.6094310     1.4280530    -0.2543460
  H        0.0343890    -1.9933920     0.2907710
  H       -2.0721120    -2.3220440    -0.4067350
  H       -0.7127900     1.6203970     0.6554980
  H        2.3062980    -2.3249110     0.3351780
  H       -4.3793760    -1.4759950    -0.6376530
  H       -3.0201620     2.4727340     0.3929930
  H       -4.8713210     0.9418730    -0.2585160
  H        4.5591860    -1.3270150     0.0072260
  H        4.7445120     1.1601010    -0.3803610
  H        2.6378470     2.5042230    -0.4179490
units angstrom
no_reorient  #important for SAPT in psi4, default
symmetry c1  #important for SAPT in psi4, default
}

set PROPERTIES_ORIGIN ["COM"]
properties('MP2/aug-cc-pvtz', properties = ['dipole'])
--------------------------------------------------------------------------

    Molecular point group: c1
  Charge       = 0
  Multiplicity = 1
  Basis Set: AUG-CC-PVTZ
    Blend: AUG-CC-PVTZ
  Basis Set: (AUG-CC-PVTZ AUX)
    Blend: AUG-CC-PVTZ-JKFIT

    Orbital Energies [Eh]
    ---------------------

    Doubly Occupied:

       1A    -15.592674     2A    -15.556506     3A    -11.328249
       4A    -11.284623     5A    -11.280077     6A    -11.263902
       7A    -11.239856     8A    -11.234205     9A    -11.232036
      10A    -11.230716    11A    -11.230606    12A    -11.222875
      13A    -11.220066    14A     -1.296406    15A     -1.222112
      16A     -1.133988    17A     -1.088264    18A     -1.034223
      19A     -1.011023    20A     -0.979979    21A     -0.869545
      22A     -0.862290    23A     -0.824651    24A     -0.801590
      25A     -0.727918    26A     -0.714953    27A     -0.680440
      28A     -0.665241    29A     -0.642689    30A     -0.623715
      31A     -0.600199    32A     -0.595966    33A     -0.584477
      34A     -0.581031    35A     -0.568853    36A     -0.534582
      37A     -0.517385    38A     -0.509081    39A     -0.488032
      40A     -0.460366    41A     -0.418936    42A     -0.386232
      43A     -0.342594    44A     -0.334035    45A     -0.281188

  @DF-RHF Final Energy:  -531.44950799688911

   => Energetics <=

    Nuclear Repulsion Energy =            698.2704553227835049
    One-Electron Energy =               -2104.8431811315058440
    Two-Electron Energy =                 875.1232178118331149
    Total Energy =                       -531.4495079968891105
  Basis Set: (AUG-CC-PVTZ AUX)
    Blend: AUG-CC-PVTZ-RI
    Molecular point group: c1

    Geometry (in Angstrom), charge = 0, multiplicity = 1:

       Center              X                  Y                   Z               Mass
    ------------   -----------------  -----------------  -----------------  -----------------
         N            0.032388825317    -0.983340360139     0.322818526280    14.003074004430
         N            1.375098825317     0.904976639861    -0.082700473720    14.003074004430
         C           -1.238070174683    -0.409344360139     0.135276526280    12.000000000000
         C            1.283980825317    -0.418049360139     0.118417526280    12.000000000000
         C           -2.301883374683    -1.285331960139    -0.226534373720    12.000000000000
         C           -1.517066174683     0.945855639861     0.374235526280    12.000000000000
         C            2.416162825317    -1.259873360139     0.161879526280    12.000000000000
         C           -3.586888174683    -0.793149360139    -0.360203473720    12.000000000000
         C           -2.821036174683     1.415602639861     0.212247526280    12.000000000000
         C           -3.863195174683     0.558328639861    -0.144723473720    12.000000000000
         C            3.670010825317    -0.700123360139    -0.020400473720    12.000000000000
         C            3.777499825317     0.678350639861    -0.236960473720    12.000000000000
         C            2.605946825317     1.424581639861    -0.256439473720    12.000000000000
         H            0.030904825317    -1.996863360139     0.288677526280     1.007825032230
         H           -2.075596174683    -2.325515360139    -0.408828473720     1.007825032230
         H           -0.716274174683     1.616925639861     0.653404526280     1.007825032230
         H            2.302813825317    -2.328382360139     0.333084526280     1.007825032230
         H           -4.382860174683    -1.479466360139    -0.639746473720     1.007825032230
         H           -3.023646174683     2.469262639861     0.390899526280     1.007825032230
         H           -4.874805174683     0.938401639861    -0.260609473720     1.007825032230
         H            4.555701825317    -1.330486360139     0.005132526280     1.007825032230
         H            4.741027825317     1.156629639861    -0.382454473720     1.007825032230
         H            2.634362825317     2.500751639861    -0.420042473720     1.007825032230

  Basis Set: AUG-CC-PVTZ
    Blend: AUG-CC-PVTZ
  Basis Set: (AUG-CC-PVTZ AUX)
    Blend: AUG-CC-PVTZ-JKFIT
	 Reference Energy          =    -531.4495079968891105 [Eh]
	 Singles Energy            =      -0.0000000000000000 [Eh]
	 Same-Spin Energy          =      -0.5920413062777199 [Eh]
	 Opposite-Spin Energy      =      -1.8139973348457328 [Eh]
	 Correlation Energy        =      -2.4060386411234527 [Eh]
	 Total Energy              =    -533.8555466380125836 [Eh]

	 ================> DF-SCS-MP2 Energies <==================
	-----------------------------------------------------------
	 SCS Same-Spin Scale       =       0.3333333333333333 [-]
	 SCS Opposite-Spin Scale   =       1.2000000000000000 [-]
	 SCS Same-Spin Energy      =      -0.1973471020925733 [Eh]
	 SCS Opposite-Spin Energy  =      -2.1767968018148793 [Eh]
	 SCS Correlation Energy    =      -2.3741439039074526 [Eh]
	 SCS Total Energy          =    -533.8236519007965626 [Eh]
	-----------------------------------------------------------

  Dipole Moment: [D]
     X:     1.4978      Y:    -1.8624      Z:    -0.0643     Total:     2.3909

*** Psi4 exiting successfully. Buy a developer a beer!
