                               Psi4 1.3.2 release

  ==> Input File <==

--------------------------------------------------------------------------
#psi4
#
memory 32 gb

molecule  {
0 1
  N        0.0358730    -0.9798690     0.3249120
  N        1.3785830     0.9084480    -0.0806070
  C       -1.1924243    -0.3177466     0.1471785
  C        1.2874650    -0.4145780     0.1205110
  C       -2.2834660    -1.2695640    -0.2193620
  C       -1.5135820     0.9493270     0.3763290
  C        2.4196470    -1.2564020     0.1639730
  C       -3.5834040    -0.7896780    -0.3581100
  C       -2.8175520     1.4190740     0.2143410
  C       -3.8597110     0.5618000    -0.1426300
  C        3.6734950    -0.6966520    -0.0183070
  C        3.7809840     0.6818220    -0.2348670
  C        2.6094310     1.4280530    -0.2543460
  H        0.0343890    -1.9933920     0.2907710
  H       -2.0721120    -2.3220440    -0.4067350
  H       -0.7127900     1.6203970     0.6554980
  H        2.3062980    -2.3249110     0.3351780
  H       -4.3793760    -1.4759950    -0.6376530
  H       -3.0201620     2.4727340     0.3929930
  H       -4.8713210     0.9418730    -0.2585160
  H        4.5591860    -1.3270150     0.0072260
  H        4.7445120     1.1601010    -0.3803610
  H        2.6378470     2.5042230    -0.4179490
units angstrom
no_reorient  #important for SAPT in psi4, default
symmetry c1  #important for SAPT in psi4, default
}

set PROPERTIES_ORIGIN ["COM"]
properties('MP2/aug-cc-pvtz', properties = ['dipole'])
--------------------------------------------------------------------------

    Molecular point group: c1
  Charge       = 0
  Multiplicity = 1
  Basis Set: AUG-CC-PVTZ
    Blend: AUG-CC-PVTZ
  Basis Set: (AUG-CC-PVTZ AUX)
    Blend: AUG-CC-PVTZ-JKFIT

    Orbital Energies [Eh]
    ---------------------

    Doubly Occupied:

       1A    -15.592895     2A    -15.555916     3A    -11.325898
       4A    -11.281820     5A    -11.279756     6A    -11.263379
       7A    -11.238876     8A    -11.238363     9A    -11.234519
      10A    -11.233488    11A    -11.230003    12A    -11.223586
      13A    -11.210882    14A     -1.296839    15A     -1.221278
      16A     -1.134691    17A     -1.087749    18A     -1.033621
      19A     -1.013763    20A     -0.978779    21A     -0.869660
      22A     -0.860432    23A     -0.829421    24A     -0.796903
      25A     -0.725723    26A     -0.718217    27A     -0.679496
      28A     -0.666548    29A     -0.642307    30A     -0.623120
      31A     -0.604053    32A     -0.597891    33A     -0.582197
      34A     -0.576438    35A     -0.567996    36A     -0.534116
      37A     -0.517765    38A     -0.510201    39A     -0.483185
      40A     -0.459339    41A     -0.417428    42A     -0.385740
      43A     -0.346390    44A     -0.331257    45A     -0.282206

  @DF-RHF Final Energy:  -531.43819352949754

   => Energetics <=

    Nuclear Repulsion Energy =            698.9544037609301768
    One-Electron Energy =               -2106.2169356313984281
    Two-Electron Energy =                 875.8243383409705984
    Total Energy =                       -531.4381935294975392
  Basis Set: (AUG-CC-PVTZ AUX)
    Blend: AUG-CC-PVTZ-RI
    Molecular point group: c1

    Geometry (in Angstrom), charge = 0, multiplicity = 1:

       Center              X                  Y                   Z               Mass
    ------------   -----------------  -----------------  -----------------  -----------------
         N            0.028360596939    -0.990425524985     0.321768172446    14.003074004430
         N            1.371070596939     0.897891475015    -0.083750827554    14.003074004430
         C           -1.199936703061    -0.328303124985     0.144034672446    12.000000000000
         C            1.279952596939    -0.425134524985     0.117367172446    12.000000000000
         C           -2.290978403061    -1.280120524985    -0.222505827554    12.000000000000
         C           -1.521094403061     0.938770475015     0.373185172446    12.000000000000
         C            2.412134596939    -1.266958524985     0.160829172446    12.000000000000
         C           -3.590916403061    -0.800234524985    -0.361253827554    12.000000000000
         C           -2.825064403061     1.408517475015     0.211197172446    12.000000000000
         C           -3.867223403061     0.551243475015    -0.145773827554    12.000000000000
         C            3.665982596939    -0.707208524985    -0.021450827554    12.000000000000
         C            3.773471596939     0.671265475015    -0.238010827554    12.000000000000
         C            2.601918596939     1.417496475015    -0.257489827554    12.000000000000
         H            0.026876596939    -2.003948524985     0.287627172446     1.007825032230
         H           -2.079624403061    -2.332600524985    -0.409878827554     1.007825032230
         H           -0.720302403061     1.609840475015     0.652354172446     1.007825032230
         H            2.298785596939    -2.335467524985     0.332034172446     1.007825032230
         H           -4.386888403061    -1.486551524985    -0.640796827554     1.007825032230
         H           -3.027674403061     2.462177475015     0.389849172446     1.007825032230
         H           -4.878833403061     0.931316475015    -0.261659827554     1.007825032230
         H            4.551673596939    -1.337571524985     0.004082172446     1.007825032230
         H            4.736999596939     1.149544475015    -0.383504827554     1.007825032230
         H            2.630334596939     2.493666475015    -0.421092827554     1.007825032230

  Basis Set: AUG-CC-PVTZ
    Blend: AUG-CC-PVTZ
  Basis Set: (AUG-CC-PVTZ AUX)
    Blend: AUG-CC-PVTZ-JKFIT
	 Reference Energy          =    -531.4381935294975392 [Eh]
	 Singles Energy            =      -0.0000000000000000 [Eh]
	 Same-Spin Energy          =      -0.5918233502004004 [Eh]
	 Opposite-Spin Energy      =      -1.8145644755996289 [Eh]
	 Correlation Energy        =      -2.4063878258000293 [Eh]
	 Total Energy              =    -533.8445813552975778 [Eh]

	 ================> DF-SCS-MP2 Energies <==================
	-----------------------------------------------------------
	 SCS Same-Spin Scale       =       0.3333333333333333 [-]
	 SCS Opposite-Spin Scale   =       1.2000000000000000 [-]
	 SCS Same-Spin Energy      =      -0.1972744500668001 [Eh]
	 SCS Opposite-Spin Energy  =      -2.1774773707195547 [Eh]
	 SCS Correlation Energy    =      -2.3747518207863547 [Eh]
	 SCS Total Energy          =    -533.8129453502839397 [Eh]
	-----------------------------------------------------------

  Dipole Moment: [D]
     X:     1.4363      Y:    -1.8646      Z:    -0.0502     Total:     2.3542

*** Psi4 exiting successfully. Buy a developer a beer!
