                               Psi4 1.3.2 release

  ==> Input File <==

--------------------------------------------------------------------------
#psi4
#
memory 32 gb

molecule  {
0 1
  N        0.0358730    -0.9798690     0.3249120
  N        1.3785830     0.9084480    -0.0806070
  C       -1.1442690    -0.4466784     0.1507024
  C        1.2874650    -0.4145780     0.1205110
  C       -2.2834660    -1.2695640    -0.2193620
  C       -1.5135820     0.9493270     0.3763290
  C        2.4196470    -1.2564020     0.1639730
  C       -3.5834040    -0.7896780    -0.3581100
  C       -2.8175520     1.4190740     0.2143410
  C       -3.8597110     0.5618000    -0.1426300
  C        3.6734950    -0.6966520    -0.0183070
  C        3.7809840     0.6818220    -0.2348670
  C        2.6094310     1.4280530    -0.2543460
  H        0.0343890    -1.9933920     0.2907710
  H       -2.0721120    -2.3220440    -0.4067350
  H       -0.7127900     1.6203970     0.6554980
  H        2.3062980    -2.3249110     0.3351780
  H       -4.3793760    -1.4759950    -0.6376530
  H       -3.0201620     2.4727340     0.3929930
  H       -4.8713210     0.9418730    -0.2585160
  H        4.5591860    -1.3270150     0.0072260
  H        4.7445120     1.1601010    -0.3803610
  H        2.6378470     2.5042230    -0.4179490
units angstrom
no_reorient  #important for SAPT in psi4, default
symmetry c1  #important for SAPT in psi4, default
}

set PROPERTIES_ORIGIN ["COM"]
properties('MP2/aug-cc-pvtz', properties = ['dipole'])
--------------------------------------------------------------------------

    Molecular point group: c1
  Charge       = 0
  Multiplicity = 1
  Basis Set: AUG-CC-PVTZ
    Blend: AUG-CC-PVTZ
  Basis Set: (AUG-CC-PVTZ AUX)
    Blend: AUG-CC-PVTZ-JKFIT

    Orbital Energies [Eh]
    ---------------------

    Doubly Occupied:

       1A    -15.601566     2A    -15.563170     3A    -11.334268
       4A    -11.287119     5A    -11.284719     6A    -11.268742
       7A    -11.246465     8A    -11.236703     9A    -11.231396
      10A    -11.228465    11A    -11.227887    12A    -11.220162
      13A    -11.216040    14A     -1.319866    15A     -1.239795
      16A     -1.122333    17A     -1.093813    18A     -1.043236
      19A     -0.999451    20A     -0.974537    21A     -0.878406
      22A     -0.872516    23A     -0.819381    24A     -0.801820
      25A     -0.735387    26A     -0.724632    27A     -0.684022
      28A     -0.665966    29A     -0.650980    30A     -0.626576
      31A     -0.607636    32A     -0.597081    33A     -0.582367
      34A     -0.575998    35A     -0.568228    36A     -0.539664
      37A     -0.521021    38A     -0.508534    39A     -0.472524
      40A     -0.458432    41A     -0.423436    42A     -0.391024
      43A     -0.346138    44A     -0.327286    45A     -0.271396

  @DF-RHF Final Energy:  -531.43451704691313

   => Energetics <=

    Nuclear Repulsion Energy =            698.8275762844816654
    One-Electron Energy =               -2105.7438207934510501
    Two-Electron Energy =                 875.4817274620562557
    Total Energy =                       -531.4345170469131290
  Basis Set: (AUG-CC-PVTZ AUX)
    Blend: AUG-CC-PVTZ-RI
    Molecular point group: c1

    Geometry (in Angstrom), charge = 0, multiplicity = 1:

       Center              X                  Y                   Z               Mass
    ------------   -----------------  -----------------  -----------------  -----------------
         N            0.024963086023    -0.981328972831     0.321519549995    14.003074004430
         N            1.367673086023     0.906988027169    -0.083999450005    14.003074004430
         C           -1.155178913977    -0.448138372831     0.147309949995    12.000000000000
         C            1.276555086023    -0.416037972831     0.117118549995    12.000000000000
         C           -2.294375913977    -1.271023972831    -0.222754450005    12.000000000000
         C           -1.524491913977     0.947867027169     0.372936549995    12.000000000000
         C            2.408737086023    -1.257861972831     0.160580549995    12.000000000000
         C           -3.594313913977    -0.791137972831    -0.361502450005    12.000000000000
         C           -2.828461913977     1.417614027169     0.210948549995    12.000000000000
         C           -3.870620913977     0.560340027169    -0.146022450005    12.000000000000
         C            3.662585086023    -0.698111972831    -0.021699450005    12.000000000000
         C            3.770074086023     0.680362027169    -0.238259450005    12.000000000000
         C            2.598521086023     1.426593027169    -0.257738450005    12.000000000000
         H            0.023479086023    -1.994851972831     0.287378549995     1.007825032230
         H           -2.083021913977    -2.323503972831    -0.410127450005     1.007825032230
         H           -0.723699913977     1.618937027169     0.652105549995     1.007825032230
         H            2.295388086023    -2.326370972831     0.331785549995     1.007825032230
         H           -4.390285913977    -1.477454972831    -0.641045450005     1.007825032230
         H           -3.031071913977     2.471274027169     0.389600549995     1.007825032230
         H           -4.882230913977     0.940413027169    -0.261908450005     1.007825032230
         H            4.548276086023    -1.328474972831     0.003833549995     1.007825032230
         H            4.733602086023     1.158641027169    -0.383753450005     1.007825032230
         H            2.626937086023     2.502763027169    -0.421341450005     1.007825032230

  Basis Set: AUG-CC-PVTZ
    Blend: AUG-CC-PVTZ
  Basis Set: (AUG-CC-PVTZ AUX)
    Blend: AUG-CC-PVTZ-JKFIT
	 Reference Energy          =    -531.4345170469131290 [Eh]
	 Singles Energy            =      -0.0000000000000000 [Eh]
	 Same-Spin Energy          =      -0.5934649929590661 [Eh]
	 Opposite-Spin Energy      =      -1.8158253710572687 [Eh]
	 Correlation Energy        =      -2.4092903640163348 [Eh]
	 Total Energy              =    -533.8438074109294575 [Eh]

	 ================> DF-SCS-MP2 Energies <==================
	-----------------------------------------------------------
	 SCS Same-Spin Scale       =       0.3333333333333333 [-]
	 SCS Opposite-Spin Scale   =       1.2000000000000000 [-]
	 SCS Same-Spin Energy      =      -0.1978216643196887 [Eh]
	 SCS Opposite-Spin Energy  =      -2.1789904452687225 [Eh]
	 SCS Correlation Energy    =      -2.3768121095884114 [Eh]
	 SCS Total Energy          =    -533.8113291565015288 [Eh]
	-----------------------------------------------------------

  Dipole Moment: [D]
     X:     2.3576      Y:    -1.9652      Z:    -0.0119     Total:     3.0692

*** Psi4 exiting successfully. Buy a developer a beer!
