                               Psi4 1.3.2 release

  ==> Input File <==

--------------------------------------------------------------------------
#psi4
#
memory 32 gb

molecule  {
0 1
  N        0.0800261    -1.0654856     0.3355152
  N        1.3785830     0.9084480    -0.0806070
  C       -1.2345860    -0.4058730     0.1373700
  C        1.2874650    -0.4145780     0.1205110
  C       -2.2834660    -1.2695640    -0.2193620
  C       -1.5135820     0.9493270     0.3763290
  C        2.4196470    -1.2564020     0.1639730
  C       -3.5834040    -0.7896780    -0.3581100
  C       -2.8175520     1.4190740     0.2143410
  C       -3.8597110     0.5618000    -0.1426300
  C        3.6734950    -0.6966520    -0.0183070
  C        3.7809840     0.6818220    -0.2348670
  C        2.6094310     1.4280530    -0.2543460
  H        0.0343890    -1.9933920     0.2907710
  H       -2.0721120    -2.3220440    -0.4067350
  H       -0.7127900     1.6203970     0.6554980
  H        2.3062980    -2.3249110     0.3351780
  H       -4.3793760    -1.4759950    -0.6376530
  H       -3.0201620     2.4727340     0.3929930
  H       -4.8713210     0.9418730    -0.2585160
  H        4.5591860    -1.3270150     0.0072260
  H        4.7445120     1.1601010    -0.3803610
  H        2.6378470     2.5042230    -0.4179490
units angstrom
no_reorient  #important for SAPT in psi4, default
symmetry c1  #important for SAPT in psi4, default
}

set PROPERTIES_ORIGIN ["COM"]
properties('MP2/aug-cc-pvtz', properties = ['dipole'])
--------------------------------------------------------------------------

    Molecular point group: c1
  Charge       = 0
  Multiplicity = 1
  Basis Set: AUG-CC-PVTZ
    Blend: AUG-CC-PVTZ
  Basis Set: (AUG-CC-PVTZ AUX)
    Blend: AUG-CC-PVTZ-JKFIT

    Orbital Energies [Eh]
    ---------------------

    Doubly Occupied:

       1A    -15.585105     2A    -15.556325     3A    -11.326239
       4A    -11.286793     5A    -11.278935     6A    -11.260581
       7A    -11.236840     8A    -11.235207     9A    -11.234296
      10A    -11.233782    11A    -11.228449    12A    -11.227585
      13A    -11.226037    14A     -1.291050    15A     -1.218520
      16A     -1.138890    17A     -1.085681    18A     -1.030239
      19A     -1.011683    20A     -0.986223    21A     -0.867064
      22A     -0.859730    23A     -0.823625    24A     -0.806470
      25A     -0.736500    26A     -0.711270    27A     -0.680613
      28A     -0.666324    29A     -0.638886    30A     -0.623811
      31A     -0.604419    32A     -0.595134    33A     -0.584282
      34A     -0.579156    35A     -0.564187    36A     -0.533873
      37A     -0.516214    38A     -0.506111    39A     -0.492361
      40A     -0.460965    41A     -0.416220    42A     -0.384630
      43A     -0.341933    44A     -0.334160    45A     -0.287854

  @DF-RHF Final Energy:  -531.43899634023580

   => Energetics <=

    Nuclear Repulsion Energy =            697.2714525777564631
    One-Electron Energy =               -2102.8323860315977072
    Two-Electron Energy =                 874.1219371136054406
    Total Energy =                       -531.4389963402358035
  Basis Set: (AUG-CC-PVTZ AUX)
    Blend: AUG-CC-PVTZ-RI
    Molecular point group: c1

    Geometry (in Angstrom), charge = 0, multiplicity = 1:

       Center              X                  Y                   Z               Mass
    ------------   -----------------  -----------------  -----------------  -----------------
         N            0.071853208805    -1.062775697212     0.332190430545    14.003074004430
         N            1.370410108805     0.911157902788    -0.083931769455    14.003074004430
         C           -1.242758891195    -0.403163097212     0.134045230545    12.000000000000
         C            1.279292108805    -0.411868097212     0.117186230545    12.000000000000
         C           -2.291638891195    -1.266854097212    -0.222686769455    12.000000000000
         C           -1.521754891195     0.952036902788     0.373004230545    12.000000000000
         C            2.411474108805    -1.253692097212     0.160648230545    12.000000000000
         C           -3.591576891195    -0.786968097212    -0.361434769455    12.000000000000
         C           -2.825724891195     1.421783902788     0.211016230545    12.000000000000
         C           -3.867883891195     0.564509902788    -0.145954769455    12.000000000000
         C            3.665322108805    -0.693942097212    -0.021631769455    12.000000000000
         C            3.772811108805     0.684531902788    -0.238191769455    12.000000000000
         C            2.601258108805     1.430762902788    -0.257670769455    12.000000000000
         H            0.026216108805    -1.990682097212     0.287446230545     1.007825032230
         H           -2.080284891195    -2.319334097212    -0.410059769455     1.007825032230
         H           -0.720962891195     1.623106902788     0.652173230545     1.007825032230
         H            2.298125108805    -2.322201097212     0.331853230545     1.007825032230
         H           -4.387548891195    -1.473285097212    -0.640977769455     1.007825032230
         H           -3.028334891195     2.475443902788     0.389668230545     1.007825032230
         H           -4.879493891195     0.944582902788    -0.261840769455     1.007825032230
         H            4.551013108805    -1.324305097212     0.003901230545     1.007825032230
         H            4.736339108805     1.162810902788    -0.383685769455     1.007825032230
         H            2.629674108805     2.506932902788    -0.421273769455     1.007825032230

  Basis Set: AUG-CC-PVTZ
    Blend: AUG-CC-PVTZ
  Basis Set: (AUG-CC-PVTZ AUX)
    Blend: AUG-CC-PVTZ-JKFIT
	 Reference Energy          =    -531.4389963402358035 [Eh]
	 Singles Energy            =      -0.0000000000000000 [Eh]
	 Same-Spin Energy          =      -0.5910342156509782 [Eh]
	 Opposite-Spin Energy      =      -1.8131840636295509 [Eh]
	 Correlation Energy        =      -2.4042182792805291 [Eh]
	 Total Energy              =    -533.8432146195162886 [Eh]

	 ================> DF-SCS-MP2 Energies <==================
	-----------------------------------------------------------
	 SCS Same-Spin Scale       =       0.3333333333333333 [-]
	 SCS Opposite-Spin Scale   =       1.2000000000000000 [-]
	 SCS Same-Spin Energy      =      -0.1970114052169927 [Eh]
	 SCS Opposite-Spin Energy  =      -2.1758208763554610 [Eh]
	 SCS Correlation Energy    =      -2.3728322815724536 [Eh]
	 SCS Total Energy          =    -533.8118286218082176 [Eh]
	-----------------------------------------------------------

  Dipole Moment: [D]
     X:     1.0826      Y:    -1.7447      Z:    -0.1058     Total:     2.0560

*** Psi4 exiting successfully. Buy a developer a beer!
