                               Psi4 1.4a3.dev225

  ==> Input File <==

--------------------------------------------------------------------------
#psi4
#
memory 32 gb

molecule  {
0 1
  N        0.0358730    -0.9798690     0.3249120
  N        1.3785830     0.9084480    -0.0806070
  C       -1.2345860    -0.4058730     0.1373700
  C        1.2874650    -0.4145780     0.1205110
  C       -2.2834660    -1.2695640    -0.2193620
  C       -1.5135820     0.9493270     0.3763290
  C        2.4196470    -1.2564020     0.1639730
  C       -3.5834040    -0.7896780    -0.3581100
  C       -2.8175520     1.4190740     0.2143410
  C       -3.8597110     0.5618000    -0.1426300
  C        3.6734950    -0.6966520    -0.0183070
  C        3.7809840     0.6818220    -0.2348670
  C        2.6551100     1.4473365    -0.2607938
  H        0.0343890    -1.9933920     0.2907710
  H       -2.0721120    -2.3220440    -0.4067350
  H       -0.7127900     1.6203970     0.6554980
  H        2.3062980    -2.3249110     0.3351780
  H       -4.3793760    -1.4759950    -0.6376530
  H       -3.0201620     2.4727340     0.3929930
  H       -4.8713210     0.9418730    -0.2585160
  H        4.5591860    -1.3270150     0.0072260
  H        4.7445120     1.1601010    -0.3803610
  H        2.6378470     2.5042230    -0.4179490
units angstrom
no_reorient  #important for SAPT in psi4, default
symmetry c1  #important for SAPT in psi4, default
}

set PROPERTIES_ORIGIN ["COM"]
properties('MP2/aug-cc-pvtz', properties = ['dipole'])
--------------------------------------------------------------------------

    Molecular point group: c1
  Charge       = 0
  Multiplicity = 1
  Basis Set: AUG-CC-PVTZ
    Blend: AUG-CC-PVTZ
  Basis Set: (AUG-CC-PVTZ AUX)
    Blend: AUG-CC-PVTZ-JKFIT

    Orbital Energies [Eh]
    ---------------------

    Doubly Occupied:

       1A    -15.591419     2A    -15.556095     3A    -11.326812
       4A    -11.281915     5A    -11.278130     6A    -11.265324
       7A    -11.242078     8A    -11.234682     9A    -11.231227
      10A    -11.230029    11A    -11.229794    12A    -11.222884
      13A    -11.219956    14A     -1.291684    15A     -1.213526
      16A     -1.133559    17A     -1.086457    18A     -1.037202
      19A     -1.008924    20A     -0.983325    21A     -0.872247
      22A     -0.858354    23A     -0.824229    24A     -0.800451
      25A     -0.728821    26A     -0.713848    27A     -0.679860
      28A     -0.664510    29A     -0.639620    30A     -0.627297
      31A     -0.602986    32A     -0.595362    33A     -0.582880
      34A     -0.578289    35A     -0.568860    36A     -0.531093
      37A     -0.516414    38A     -0.507382    39A     -0.489072
      40A     -0.460038    41A     -0.418649    42A     -0.379979
      43A     -0.346436    44A     -0.331875    45A     -0.284203

  @DF-RHF Final Energy:  -531.44598684126549

   => Energetics <=

    Nuclear Repulsion Energy =            697.8210850380545480
    One-Electron Energy =               -2103.9985880291296780
    Two-Electron Energy =                 874.7315161498095222
    Total Energy =                       -531.4459868412654941
  Basis Set: (AUG-CC-PVTZ AUX)
    Blend: AUG-CC-PVTZ-RI
    Molecular point group: c1

    Geometry (in Angstrom), charge = 0, multiplicity = 1:

       Center              X                  Y                   Z               Mass
    ------------   -----------------  -----------------  -----------------  -----------------
         N            0.028112440139    -0.985568437515     0.322915106567    14.003074004430
         N            1.370822440139     0.902748562485    -0.082603893433    14.003074004430
         C           -1.242346559861    -0.411572437515     0.135373106567    12.000000000000
         C            1.279704440139    -0.420277437515     0.118514106567    12.000000000000
         C           -2.291226559861    -1.275263437515    -0.221358893433    12.000000000000
         C           -1.521342559861     0.943627562485     0.374332106567    12.000000000000
         C            2.411886440139    -1.262101437515     0.161976106567    12.000000000000
         C           -3.591164559861    -0.795377437515    -0.360106893433    12.000000000000
         C           -2.825312559861     1.413374562485     0.212344106567    12.000000000000
         C           -3.867471559861     0.556100562485    -0.144626893433    12.000000000000
         C            3.665734440139    -0.702351437515    -0.020303893433    12.000000000000
         C            3.773223440139     0.676122562485    -0.236863893433    12.000000000000
         C            2.647349440139     1.441637062485    -0.262790693433    12.000000000000
         H            0.026628440139    -1.999091437515     0.288774106567     1.007825032230
         H           -2.079872559861    -2.327743437515    -0.408731893433     1.007825032230
         H           -0.720550559861     1.614697562485     0.653501106567     1.007825032230
         H            2.298537440139    -2.330610437515     0.333181106567     1.007825032230
         H           -4.387136559861    -1.481694437515    -0.639649893433     1.007825032230
         H           -3.027922559861     2.467034562485     0.390996106567     1.007825032230
         H           -4.879081559861     0.936173562485    -0.260512893433     1.007825032230
         H            4.551425440139    -1.332714437515     0.005229106567     1.007825032230
         H            4.736751440139     1.154401562485    -0.382357893433     1.007825032230
         H            2.630086440139     2.498523562485    -0.419945893433     1.007825032230

  Basis Set: AUG-CC-PVTZ
    Blend: AUG-CC-PVTZ
  Basis Set: (AUG-CC-PVTZ AUX)
    Blend: AUG-CC-PVTZ-JKFIT
	 Reference Energy          =    -531.4459868412654941 [Eh]
	 Singles Energy            =      -0.0000000000000000 [Eh]
	 Same-Spin Energy          =      -0.5921212950264954 [Eh]
	 Opposite-Spin Energy      =      -1.8149831400782213 [Eh]
	 Correlation Energy        =      -2.4071044351047166 [Eh]
	 Total Energy              =    -533.8530912763702645 [Eh]

	 ================> DF-SCS-MP2 Energies <==================
	-----------------------------------------------------------
	 SCS Same-Spin Scale       =       0.3333333333333333 [-]
	 SCS Opposite-Spin Scale   =       1.2000000000000000 [-]
	 SCS Same-Spin Energy      =      -0.1973737650088318 [Eh]
	 SCS Opposite-Spin Energy  =      -2.1779797680938655 [Eh]
	 SCS Correlation Energy    =      -2.3753535331026971 [Eh]
	 SCS Total Energy          =    -533.8213403743682193 [Eh]
	-----------------------------------------------------------

  Dipole Moment: [D]
     X:     1.5427      Y:    -1.8522      Z:    -0.0706     Total:     2.4115

*** Psi4 exiting successfully. Buy a developer a beer!
