                               Psi4 1.3.2 release

  ==> Input File <==

--------------------------------------------------------------------------
#psi4
#
memory 32 gb

molecule  {
0 1
  N        0.0358730    -0.9798690     0.3249120
  N        1.3785830     0.9084480    -0.0806070
  C       -1.2861672    -0.5431680     0.1243841
  C        1.2874650    -0.4145780     0.1205110
  C       -2.2834660    -1.2695640    -0.2193620
  C       -1.5135820     0.9493270     0.3763290
  C        2.4196470    -1.2564020     0.1639730
  C       -3.5834040    -0.7896780    -0.3581100
  C       -2.8175520     1.4190740     0.2143410
  C       -3.8597110     0.5618000    -0.1426300
  C        3.6734950    -0.6966520    -0.0183070
  C        3.7809840     0.6818220    -0.2348670
  C        2.6094310     1.4280530    -0.2543460
  H        0.0343890    -1.9933920     0.2907710
  H       -2.0721120    -2.3220440    -0.4067350
  H       -0.7127900     1.6203970     0.6554980
  H        2.3062980    -2.3249110     0.3351780
  H       -4.3793760    -1.4759950    -0.6376530
  H       -3.0201620     2.4727340     0.3929930
  H       -4.8713210     0.9418730    -0.2585160
  H        4.5591860    -1.3270150     0.0072260
  H        4.7445120     1.1601010    -0.3803610
  H        2.6378470     2.5042230    -0.4179490
units angstrom
no_reorient  #important for SAPT in psi4, default
symmetry c1  #important for SAPT in psi4, default
}

set PROPERTIES_ORIGIN ["COM"]
properties('MP2/aug-cc-pvtz', properties = ['dipole'])
--------------------------------------------------------------------------

    Molecular point group: c1
  Charge       = 0
  Multiplicity = 1
  Basis Set: AUG-CC-PVTZ
    Blend: AUG-CC-PVTZ
  Basis Set: (AUG-CC-PVTZ AUX)
    Blend: AUG-CC-PVTZ-JKFIT

    Orbital Energies [Eh]
    ---------------------

    Doubly Occupied:

       1A    -15.590911     2A    -15.556997     3A    -11.331572
       4A    -11.280340     5A    -11.279655     6A    -11.264363
       7A    -11.240662     8A    -11.235229     9A    -11.232703
      10A    -11.231049    11A    -11.228501    12A    -11.224854
      13A    -11.216072    14A     -1.295826    15A     -1.224338
      16A     -1.137865    17A     -1.088677    18A     -1.042683
      19A     -1.009681    20A     -0.978685    21A     -0.869244
      22A     -0.864422    23A     -0.825652    24A     -0.798956
      25A     -0.734184    26A     -0.709685    27A     -0.682665
      28A     -0.664752    29A     -0.642949    30A     -0.625306
      31A     -0.608356    32A     -0.591538    33A     -0.582766
      34A     -0.577747    35A     -0.564749    36A     -0.534991
      37A     -0.520791    38A     -0.512359    39A     -0.474102
      40A     -0.459600    41A     -0.420441    42A     -0.386880
      43A     -0.355342    44A     -0.325775    45A     -0.282635

  @DF-RHF Final Energy:  -531.42281570290459

   => Energetics <=

    Nuclear Repulsion Energy =            698.1528719101787601
    One-Electron Energy =               -2104.5382733699793789
    Two-Electron Energy =                 874.9625857568959191
    Total Energy =                       -531.4228157029045860
  Basis Set: (AUG-CC-PVTZ AUX)
    Blend: AUG-CC-PVTZ-RI
    Molecular point group: c1

    Geometry (in Angstrom), charge = 0, multiplicity = 1:

       Center              X                  Y                   Z               Mass
    ------------   -----------------  -----------------  -----------------  -----------------
         N            0.034974459298    -0.974521321975     0.323376390499    14.003074004430
         N            1.377684459298     0.913795678025    -0.082142609501    14.003074004430
         C           -1.287065740702    -0.537820321975     0.122848490499    12.000000000000
         C            1.286566459298    -0.409230321975     0.118975390499    12.000000000000
         C           -2.284364540702    -1.264216321975    -0.220897609501    12.000000000000
         C           -1.514480540702     0.954674678025     0.374793390499    12.000000000000
         C            2.418748459298    -1.251054321975     0.162437390499    12.000000000000
         C           -3.584302540702    -0.784330321975    -0.359645609501    12.000000000000
         C           -2.818450540702     1.424421678025     0.212805390499    12.000000000000
         C           -3.860609540702     0.567147678025    -0.144165609501    12.000000000000
         C            3.672596459298    -0.691304321975    -0.019842609501    12.000000000000
         C            3.780085459298     0.687169678025    -0.236402609501    12.000000000000
         C            2.608532459298     1.433400678025    -0.255881609501    12.000000000000
         H            0.033490459298    -1.988044321975     0.289235390499     1.007825032230
         H           -2.073010540702    -2.316696321975    -0.408270609501     1.007825032230
         H           -0.713688540702     1.625744678025     0.653962390499     1.007825032230
         H            2.305399459298    -2.319563321975     0.333642390499     1.007825032230
         H           -4.380274540702    -1.470647321975    -0.639188609501     1.007825032230
         H           -3.021060540702     2.478081678025     0.391457390499     1.007825032230
         H           -4.872219540702     0.947220678025    -0.260051609501     1.007825032230
         H            4.558287459298    -1.321667321975     0.005690390499     1.007825032230
         H            4.743613459298     1.165448678025    -0.381896609501     1.007825032230
         H            2.636948459298     2.509570678025    -0.419484609501     1.007825032230

  Basis Set: AUG-CC-PVTZ
    Blend: AUG-CC-PVTZ
  Basis Set: (AUG-CC-PVTZ AUX)
    Blend: AUG-CC-PVTZ-JKFIT
	 Reference Energy          =    -531.4228157029045860 [Eh]
	 Singles Energy            =      -0.0000000000000000 [Eh]
	 Same-Spin Energy          =      -0.5914598050490403 [Eh]
	 Opposite-Spin Energy      =      -1.8149581201250173 [Eh]
	 Correlation Energy        =      -2.4064179251740576 [Eh]
	 Total Energy              =    -533.8292336280786685 [Eh]

	 ================> DF-SCS-MP2 Energies <==================
	-----------------------------------------------------------
	 SCS Same-Spin Scale       =       0.3333333333333333 [-]
	 SCS Opposite-Spin Scale   =       1.2000000000000000 [-]
	 SCS Same-Spin Energy      =      -0.1971532683496801 [Eh]
	 SCS Opposite-Spin Energy  =      -2.1779497441500206 [Eh]
	 SCS Correlation Energy    =      -2.3751030124997006 [Eh]
	 SCS Total Energy          =    -533.7979187154043075 [Eh]
	-----------------------------------------------------------

  Dipole Moment: [D]
     X:     1.5107      Y:    -1.8289      Z:    -0.0980     Total:     2.3742

*** Psi4 exiting successfully. Buy a developer a beer!
