                               Psi4 1.3.2 release

  ==> Input File <==

--------------------------------------------------------------------------
#psi4
#
memory 32 gb

molecule  {
0 1
  N        0.0358730    -0.9798690     0.3249120
  N        1.3785830     0.9084480    -0.0806070
  C       -1.2345860    -0.4058730     0.1373700
  C        1.2874650    -0.4145780     0.1205110
  C       -2.2834660    -1.2695640    -0.2193620
  C       -1.5135820     0.9493270     0.3763290
  C        2.4196470    -1.2564020     0.1639730
  C       -3.5834040    -0.7896780    -0.3581100
  C       -2.8175520     1.4190740     0.2143410
  C       -3.8597110     0.5618000    -0.1426300
  C        3.6734950    -0.6966520    -0.0183070
  C        3.7809840     0.6818220    -0.2348670
  C        2.6094310     1.4280530    -0.2543460
  H        0.0346817    -1.7935056     0.2975043
  H       -2.0721120    -2.3220440    -0.4067350
  H       -0.7127900     1.6203970     0.6554980
  H        2.3062980    -2.3249110     0.3351780
  H       -4.3793760    -1.4759950    -0.6376530
  H       -3.0201620     2.4727340     0.3929930
  H       -4.8713210     0.9418730    -0.2585160
  H        4.5591860    -1.3270150     0.0072260
  H        4.7445120     1.1601010    -0.3803610
  H        2.6378470     2.5042230    -0.4179490
units angstrom
no_reorient  #important for SAPT in psi4, default
symmetry c1  #important for SAPT in psi4, default
}

set PROPERTIES_ORIGIN ["COM"]
properties('MP2/aug-cc-pvtz', properties = ['dipole'])
--------------------------------------------------------------------------

    Molecular point group: c1
  Charge       = 0
  Multiplicity = 1
  Basis Set: AUG-CC-PVTZ
    Blend: AUG-CC-PVTZ
  Basis Set: (AUG-CC-PVTZ AUX)
    Blend: AUG-CC-PVTZ-JKFIT

    Orbital Energies [Eh]
    ---------------------

    Doubly Occupied:

       1A    -15.570217     2A    -15.556974     3A    -11.328170
       4A    -11.282281     5A    -11.280381     6A    -11.264459
       7A    -11.240517     8A    -11.235511     9A    -11.231978
      10A    -11.231299    11A    -11.231023    12A    -11.223836
      13A    -11.220801    14A     -1.315146    15A     -1.236102
      16A     -1.138338    17A     -1.088935    18A     -1.036336
      19A     -1.010099    20A     -0.991148    21A     -0.875522
      22A     -0.866682    23A     -0.827436    24A     -0.812148
      25A     -0.746859    26A     -0.722553    27A     -0.681773
      28A     -0.666357    29A     -0.647195    30A     -0.625182
      31A     -0.605377    32A     -0.599488    33A     -0.585738
      34A     -0.582582    35A     -0.569521    36A     -0.534989
      37A     -0.519048    38A     -0.508126    39A     -0.489912
      40A     -0.462034    41A     -0.419487    42A     -0.386650
      43A     -0.344293    44A     -0.332631    45A     -0.284298

  @DF-RHF Final Energy:  -531.40683334468690

   => Energetics <=

    Nuclear Repulsion Energy =            700.0189264909427038
    One-Electron Energy =               -2108.0326573995826038
    Two-Electron Energy =                 876.6068975639529981
    Total Energy =                       -531.4068333446869019
  Basis Set: (AUG-CC-PVTZ AUX)
    Blend: AUG-CC-PVTZ-RI
    Molecular point group: c1

    Geometry (in Angstrom), charge = 0, multiplicity = 1:

       Center              X                  Y                   Z               Mass
    ------------   -----------------  -----------------  -----------------  -----------------
         N            0.031333505769    -0.985392339750     0.322420295820    14.003074004430
         N            1.374043505769     0.902924660250    -0.083098704180    14.003074004430
         C           -1.239125494231    -0.411396339750     0.134878295820    12.000000000000
         C            1.282925505769    -0.420101339750     0.118019295820    12.000000000000
         C           -2.288005494231    -1.275087339750    -0.221853704180    12.000000000000
         C           -1.518121494231     0.943803660250     0.373837295820    12.000000000000
         C            2.415107505769    -1.261925339750     0.161481295820    12.000000000000
         C           -3.587943494231    -0.795201339750    -0.360601704180    12.000000000000
         C           -2.822091494231     1.413550660250     0.211849295820    12.000000000000
         C           -3.864250494231     0.556276660250    -0.145121704180    12.000000000000
         C            3.668955505769    -0.702175339750    -0.020798704180    12.000000000000
         C            3.776444505769     0.676298660250    -0.237358704180    12.000000000000
         C            2.604891505769     1.422529660250    -0.256837704180    12.000000000000
         H            0.030142205769    -1.799028939750     0.295012595820     1.007825032230
         H           -2.076651494231    -2.327567339750    -0.409226704180     1.007825032230
         H           -0.717329494231     1.614873660250     0.653006295820     1.007825032230
         H            2.301758505769    -2.330434339750     0.332686295820     1.007825032230
         H           -4.383915494231    -1.481518339750    -0.640144704180     1.007825032230
         H           -3.024701494231     2.467210660250     0.390501295820     1.007825032230
         H           -4.875860494231     0.936349660250    -0.261007704180     1.007825032230
         H            4.554646505769    -1.332538339750     0.004734295820     1.007825032230
         H            4.739972505769     1.154577660250    -0.382852704180     1.007825032230
         H            2.633307505769     2.498699660250    -0.420440704180     1.007825032230

  Basis Set: AUG-CC-PVTZ
    Blend: AUG-CC-PVTZ
  Basis Set: (AUG-CC-PVTZ AUX)
    Blend: AUG-CC-PVTZ-JKFIT
	 Reference Energy          =    -531.4068333446869019 [Eh]
	 Singles Energy            =      -0.0000000000000000 [Eh]
	 Same-Spin Energy          =      -0.5904821373506887 [Eh]
	 Opposite-Spin Energy      =      -1.8107316623108218 [Eh]
	 Correlation Energy        =      -2.4012137996615106 [Eh]
	 Total Energy              =    -533.8080471443483930 [Eh]

	 ================> DF-SCS-MP2 Energies <==================
	-----------------------------------------------------------
	 SCS Same-Spin Scale       =       0.3333333333333333 [-]
	 SCS Opposite-Spin Scale   =       1.2000000000000000 [-]
	 SCS Same-Spin Energy      =      -0.1968273791168962 [Eh]
	 SCS Opposite-Spin Energy  =      -2.1728779947729859 [Eh]
	 SCS Correlation Energy    =      -2.3697053738898823 [Eh]
	 SCS Total Energy          =    -533.7765387185768304 [Eh]
	-----------------------------------------------------------

  Dipole Moment: [D]
     X:     1.5066      Y:    -1.7090      Z:    -0.0748     Total:     2.2795

*** Psi4 exiting successfully. Buy a developer a beer!
