                               Psi4 1.3.2 release

  ==> Input File <==

--------------------------------------------------------------------------
#psi4
#
memory 32 gb

molecule  {
0 1
  N        0.0358730    -0.9798690     0.3249120
  N        1.3785830     0.9084480    -0.0806070
  C       -1.2345860    -0.4058730     0.1373700
  C        1.3010513    -0.2173063     0.0905230
  C       -2.2834660    -1.2695640    -0.2193620
  C       -1.5135820     0.9493270     0.3763290
  C        2.4196470    -1.2564020     0.1639730
  C       -3.5834040    -0.7896780    -0.3581100
  C       -2.8175520     1.4190740     0.2143410
  C       -3.8597110     0.5618000    -0.1426300
  C        3.6734950    -0.6966520    -0.0183070
  C        3.7809840     0.6818220    -0.2348670
  C        2.6094310     1.4280530    -0.2543460
  H        0.0343890    -1.9933920     0.2907710
  H       -2.0721120    -2.3220440    -0.4067350
  H       -0.7127900     1.6203970     0.6554980
  H        2.3062980    -2.3249110     0.3351780
  H       -4.3793760    -1.4759950    -0.6376530
  H       -3.0201620     2.4727340     0.3929930
  H       -4.8713210     0.9418730    -0.2585160
  H        4.5591860    -1.3270150     0.0072260
  H        4.7445120     1.1601010    -0.3803610
  H        2.6378470     2.5042230    -0.4179490
units angstrom
no_reorient  #important for SAPT in psi4, default
symmetry c1  #important for SAPT in psi4, default
}

set PROPERTIES_ORIGIN ["COM"]
properties('MP2/aug-cc-pvtz', properties = ['dipole'])
--------------------------------------------------------------------------

    Molecular point group: c1
  Charge       = 0
  Multiplicity = 1
  Basis Set: AUG-CC-PVTZ
    Blend: AUG-CC-PVTZ
  Basis Set: (AUG-CC-PVTZ AUX)
    Blend: AUG-CC-PVTZ-JKFIT

    Orbital Energies [Eh]
    ---------------------

    Doubly Occupied:

       1A    -15.574920     2A    -15.551635     3A    -11.324037
       4A    -11.287153     5A    -11.272390     6A    -11.261948
       7A    -11.255443     8A    -11.243307     9A    -11.230064
      10A    -11.227881    11A    -11.221634    12A    -11.216346
      13A    -11.214634    14A     -1.346950    15A     -1.220285
      16A     -1.123196    17A     -1.105365    18A     -1.025914
      19A     -1.003939    20A     -0.975002    21A     -0.889371
      22A     -0.846491    23A     -0.822440    24A     -0.793413
      25A     -0.728034    26A     -0.707462    27A     -0.687560
      28A     -0.668579    29A     -0.644022    30A     -0.618826
      31A     -0.604216    32A     -0.597104    33A     -0.585425
      34A     -0.578568    35A     -0.570274    36A     -0.541117
      37A     -0.518212    38A     -0.503622    39A     -0.485581
      40A     -0.449372    41A     -0.415142    42A     -0.411388
      43A     -0.338183    44A     -0.328113    45A     -0.281049

  @DF-RHF Final Energy:  -531.39291108976465

   => Energetics <=

    Nuclear Repulsion Energy =            700.0433621208861723
    One-Electron Energy =               -2108.2813340607135615
    Two-Electron Energy =                 876.8450608500626231
    Total Energy =                       -531.3929110897646524
  Basis Set: (AUG-CC-PVTZ AUX)
    Blend: AUG-CC-PVTZ-RI
    Molecular point group: c1

    Geometry (in Angstrom), charge = 0, multiplicity = 1:

       Center              X                  Y                   Z               Mass
    ------------   -----------------  -----------------  -----------------  -----------------
         N            0.030376683090    -0.998126076082     0.324575943204    14.003074004430
         N            1.373086683090     0.890190923918    -0.080943056796    14.003074004430
         C           -1.240082316910    -0.424130076082     0.137033943204    12.000000000000
         C            1.295554983090    -0.235563376082     0.090186943204    12.000000000000
         C           -2.288962316910    -1.287821076082    -0.219698056796    12.000000000000
         C           -1.519078316910     0.931069923918     0.375992943204    12.000000000000
         C            2.414150683090    -1.274659076082     0.163636943204    12.000000000000
         C           -3.588900316910    -0.807935076082    -0.358446056796    12.000000000000
         C           -2.823048316910     1.400816923918     0.214004943204    12.000000000000
         C           -3.865207316910     0.543542923918    -0.142966056796    12.000000000000
         C            3.667998683090    -0.714909076082    -0.018643056796    12.000000000000
         C            3.775487683090     0.663564923918    -0.235203056796    12.000000000000
         C            2.603934683090     1.409795923918    -0.254682056796    12.000000000000
         H            0.028892683090    -2.011649076082     0.290434943204     1.007825032230
         H           -2.077608316910    -2.340301076082    -0.407071056796     1.007825032230
         H           -0.718286316910     1.602139923918     0.655161943204     1.007825032230
         H            2.300801683090    -2.343168076082     0.334841943204     1.007825032230
         H           -4.384872316910    -1.494252076082    -0.637989056796     1.007825032230
         H           -3.025658316910     2.454476923918     0.392656943204     1.007825032230
         H           -4.876817316910     0.923615923918    -0.258852056796     1.007825032230
         H            4.553689683090    -1.345272076082     0.006889943204     1.007825032230
         H            4.739015683090     1.141843923918    -0.380697056796     1.007825032230
         H            2.632350683090     2.485965923918    -0.418285056796     1.007825032230

  Basis Set: AUG-CC-PVTZ
    Blend: AUG-CC-PVTZ
  Basis Set: (AUG-CC-PVTZ AUX)
    Blend: AUG-CC-PVTZ-JKFIT
	 Reference Energy          =    -531.3929110897646524 [Eh]
	 Singles Energy            =      -0.0000000000000000 [Eh]
	 Same-Spin Energy          =      -0.5892654534974768 [Eh]
	 Opposite-Spin Energy      =      -1.8125097328585649 [Eh]
	 Correlation Energy        =      -2.4017751863560415 [Eh]
	 Total Energy              =    -533.7946862761207285 [Eh]

	 ================> DF-SCS-MP2 Energies <==================
	-----------------------------------------------------------
	 SCS Same-Spin Scale       =       0.3333333333333333 [-]
	 SCS Opposite-Spin Scale   =       1.2000000000000000 [-]
	 SCS Same-Spin Energy      =      -0.1964218178324923 [Eh]
	 SCS Opposite-Spin Energy  =      -2.1750116794302778 [Eh]
	 SCS Correlation Energy    =      -2.3714334972627702 [Eh]
	 SCS Total Energy          =    -533.7643445870273808 [Eh]
	-----------------------------------------------------------

  Dipole Moment: [D]
     X:     2.5208      Y:    -1.4752      Z:    -0.1827     Total:     2.9264

*** Psi4 exiting successfully. Buy a developer a beer!
