                               Psi4 1.4a3.dev225

  ==> Input File <==

--------------------------------------------------------------------------
#psi4
#
memory 32 gb

molecule  {
0 1
  N       -2.7513610     0.1438680    -0.1944680
  C        0.7647750     0.0263420    -0.3418330
  C       -0.3397190    -0.8197720     0.3150330
  C        0.7287660     1.4657710     0.1638370
  C        2.1226780    -0.6220260    -0.0827390
  C       -1.6817970    -0.2974810     0.0424840
  H        0.5782550     0.0304320    -1.4233270
  H       -0.2896400    -1.8551110    -0.0410840
  H       -0.1876540    -0.8451710     1.4012950
  H        0.9032250     1.4956430     1.2452160
  H        1.5086800     2.0616750    -0.3191730
  H       -0.2358010     1.9387980    -0.0403200
  H        2.3555808    -0.6535008     1.0894226
  H        2.9204480    -0.0525400    -0.5681780
  H        2.1576980    -1.6469370    -0.4652230
units angstrom
no_reorient  #important for SAPT in psi4, default
symmetry c1  #important for SAPT in psi4, default
}

set PROPERTIES_ORIGIN ["COM"]
properties('MP2/aug-cc-pvtz', properties = ['dipole'])
--------------------------------------------------------------------------

    Molecular point group: c1
  Charge       = 0
  Multiplicity = 1
  Basis Set: AUG-CC-PVTZ
    Blend: AUG-CC-PVTZ
  Basis Set: (AUG-CC-PVTZ AUX)
    Blend: AUG-CC-PVTZ-JKFIT

    Orbital Energies [Eh]
    ---------------------

    Doubly Occupied:

       1A    -15.574581     2A    -11.282016     3A    -11.280725
       4A    -11.258894     5A    -11.245859     6A    -11.226987
       7A     -1.205976     8A     -1.119591     9A     -0.994683
      10A     -0.944983    11A     -0.803736    12A     -0.707614
      13A     -0.660679    14A     -0.624575    15A     -0.594084
      16A     -0.565315    17A     -0.546362    18A     -0.541153
      19A     -0.512820    20A     -0.497244    21A     -0.487531
      22A     -0.448110    23A     -0.444249

  @DF-RHF Final Energy:  -249.10773598167208

   => Energetics <=

    Nuclear Repulsion Energy =            219.7859904274625933
    One-Electron Energy =                -770.6519218905654043
    Two-Electron Energy =                 301.7581954814307323
    Total Energy =                       -249.1077359816720787
  Basis Set: (AUG-CC-PVTZ AUX)
    Blend: AUG-CC-PVTZ-RI
    Molecular point group: c1

    Geometry (in Angstrom), charge = 0, multiplicity = 1:

       Center              X                  Y                   Z               Mass
    ------------   -----------------  -----------------  -----------------  -----------------
         N           -2.635748961039     0.149578678589    -0.186327474994    14.003074004430
         C            0.880387038961     0.032052678589    -0.333692474994    12.000000000000
         C           -0.224106961039    -0.814061321411     0.323173525006    12.000000000000
         C            0.844378038961     1.471481678589     0.171977525006    12.000000000000
         C            2.238290038961    -0.616315321411    -0.074598474994    12.000000000000
         C           -1.566184961039    -0.291770321411     0.050624525006    12.000000000000
         H            0.693867038961     0.036142678589    -1.415186474994     1.007825032230
         H           -0.174027961039    -1.849400321411    -0.032943474994     1.007825032230
         H           -0.072041961039    -0.839460321411     1.409435525006     1.007825032230
         H            1.018837038961     1.501353678589     1.253356525006     1.007825032230
         H            1.624292038961     2.067385678589    -0.311032474994     1.007825032230
         H           -0.120188961039     1.944508678589    -0.032179474994     1.007825032230
         H            2.471192838961    -0.647790121411     1.097563125006     1.007825032230
         H            3.036060038961    -0.046829321411    -0.560037474994     1.007825032230
         H            2.273310038961    -1.641226321411    -0.457082474994     1.007825032230

  Basis Set: AUG-CC-PVTZ
    Blend: AUG-CC-PVTZ
  Basis Set: (AUG-CC-PVTZ AUX)
    Blend: AUG-CC-PVTZ-JKFIT
	 Reference Energy          =    -249.1077359816720787 [Eh]
	 Singles Energy            =      -0.0000000000000000 [Eh]
	 Same-Spin Energy          =      -0.2628636876873209 [Eh]
	 Opposite-Spin Energy      =      -0.9104732875106668 [Eh]
	 Correlation Energy        =      -1.1733369751979876 [Eh]
	 Total Energy              =    -250.2810729568700765 [Eh]

	 ================> DF-SCS-MP2 Energies <==================
	-----------------------------------------------------------
	 SCS Same-Spin Scale       =       0.3333333333333333 [-]
	 SCS Opposite-Spin Scale   =       1.2000000000000000 [-]
	 SCS Same-Spin Energy      =      -0.0876212292291070 [Eh]
	 SCS Opposite-Spin Energy  =      -1.0925679450128001 [Eh]
	 SCS Correlation Energy    =      -1.1801891742419071 [Eh]
	 SCS Total Energy          =    -250.2879251559139959 [Eh]
	-----------------------------------------------------------

  Dipole Moment: [D]
     X:     3.8509      Y:    -1.1077      Z:     0.4729     Total:     4.0349

*** Psi4 exiting successfully. Buy a developer a beer!
