                               Psi4 1.4a3.dev225

  ==> Input File <==

--------------------------------------------------------------------------
#psi4
#
memory 32 gb

molecule  {
0 1
  N       -2.7513610     0.1438680    -0.1944680
  C        0.7647750     0.0263420    -0.3418330
  C       -0.3397190    -0.8197720     0.3150330
  C        0.7240469     1.6544136     0.2301070
  C        2.1226780    -0.6220260    -0.0827390
  C       -1.6817970    -0.2974810     0.0424840
  H        0.5782550     0.0304320    -1.4233270
  H       -0.2896400    -1.8551110    -0.0410840
  H       -0.1876540    -0.8451710     1.4012950
  H        0.9032250     1.4956430     1.2452160
  H        1.5086800     2.0616750    -0.3191730
  H       -0.2358010     1.9387980    -0.0403200
  H        2.3360990    -0.6508680     0.9913740
  H        2.9204480    -0.0525400    -0.5681780
  H        2.1576980    -1.6469370    -0.4652230
units angstrom
no_reorient  #important for SAPT in psi4, default
symmetry c1  #important for SAPT in psi4, default
}

set PROPERTIES_ORIGIN ["COM"]
properties('MP2/aug-cc-pvtz', properties = ['dipole'])
--------------------------------------------------------------------------

    Molecular point group: c1
  Charge       = 0
  Multiplicity = 1
  Basis Set: AUG-CC-PVTZ
    Blend: AUG-CC-PVTZ
  Basis Set: (AUG-CC-PVTZ AUX)
    Blend: AUG-CC-PVTZ-JKFIT

    Orbital Energies [Eh]
    ---------------------

    Doubly Occupied:

       1A    -15.574479     2A    -11.281843     3A    -11.280605
       4A    -11.263551     5A    -11.233868     6A    -11.225013
       7A     -1.205528     8A     -1.105084     9A     -0.991144
      10A     -0.951840    11A     -0.806750    12A     -0.705057
      13A     -0.655634    14A     -0.624379    15A     -0.602556
      16A     -0.572971    17A     -0.566118    18A     -0.554833
      19A     -0.521430    20A     -0.503384    21A     -0.455867
      22A     -0.445800    23A     -0.430287

  @DF-RHF Final Energy:  -249.08763793611504

   => Energetics <=

    Nuclear Repulsion Energy =            217.5281879955786053
    One-Electron Energy =                -766.1156104735099461
    Two-Electron Energy =                 299.4997845418163251
    Total Energy =                       -249.0876379361150157
  Basis Set: (AUG-CC-PVTZ AUX)
    Blend: AUG-CC-PVTZ-RI
    Molecular point group: c1

    Geometry (in Angstrom), charge = 0, multiplicity = 1:

       Center              X                  Y                   Z               Mass
    ------------   -----------------  -----------------  -----------------  -----------------
         N           -2.634830937284     0.122297239610    -0.194710703971    14.003074004430
         C            0.881305062716     0.004771239610    -0.342075703971    12.000000000000
         C           -0.223188937284    -0.841342760390     0.314790296029    12.000000000000
         C            0.840576962716     1.632842839610     0.229864296029    12.000000000000
         C            2.239208062716    -0.643596760390    -0.082981703971    12.000000000000
         C           -1.565266937284    -0.319051760390     0.042241296029    12.000000000000
         H            0.694785062716     0.008861239610    -1.423569703971     1.007825032230
         H           -0.173109937284    -1.876681760390    -0.041326703971     1.007825032230
         H           -0.071123937284    -0.866741760390     1.401052296029     1.007825032230
         H            1.019755062716     1.474072239610     1.244973296029     1.007825032230
         H            1.625210062716     2.040104239610    -0.319415703971     1.007825032230
         H           -0.119270937284     1.917227239610    -0.040562703971     1.007825032230
         H            2.452629062716    -0.672438760390     0.991131296029     1.007825032230
         H            3.036978062716    -0.074110760390    -0.568420703971     1.007825032230
         H            2.274228062716    -1.668507760390    -0.465465703971     1.007825032230

  Basis Set: AUG-CC-PVTZ
    Blend: AUG-CC-PVTZ
  Basis Set: (AUG-CC-PVTZ AUX)
    Blend: AUG-CC-PVTZ-JKFIT
	 Reference Energy          =    -249.0876379361150441 [Eh]
	 Singles Energy            =      -0.0000000000000000 [Eh]
	 Same-Spin Energy          =      -0.2626516962703073 [Eh]
	 Opposite-Spin Energy      =      -0.9108539717954762 [Eh]
	 Correlation Energy        =      -1.1735056680657836 [Eh]
	 Total Energy              =    -250.2611436041808304 [Eh]

	 ================> DF-SCS-MP2 Energies <==================
	-----------------------------------------------------------
	 SCS Same-Spin Scale       =       0.3333333333333333 [-]
	 SCS Opposite-Spin Scale   =       1.2000000000000000 [-]
	 SCS Same-Spin Energy      =      -0.0875505654234358 [Eh]
	 SCS Opposite-Spin Energy  =      -1.0930247661545713 [Eh]
	 SCS Correlation Energy    =      -1.1805753315780070 [Eh]
	 SCS Total Energy          =    -250.2682132676930564 [Eh]
	-----------------------------------------------------------

  Dipole Moment: [D]
     X:     3.8872      Y:    -1.2021      Z:     0.5254     Total:     4.1026

*** Psi4 exiting successfully. Buy a developer a beer!
