                               Psi4 1.4a3.dev225

  ==> Input File <==

--------------------------------------------------------------------------
#psi4
#
memory 32 gb

molecule  {
0 1
  N       -2.7513610     0.1438680    -0.1944680
  C        0.7647750     0.0263420    -0.3418330
  C       -0.3397190    -0.8197720     0.3150330
  C        0.7287660     1.4657710     0.1638370
  C        2.1226780    -0.6220260    -0.0827390
  C       -1.6817970    -0.2974810     0.0424840
  H        0.5782550     0.0304320    -1.4233270
  H       -0.2896400    -1.8551110    -0.0410840
  H       -0.1876540    -0.8451710     1.4012950
  H        0.9032250     1.4956430     1.2452160
  H        1.5086800     2.0616750    -0.3191730
  H       -0.2358010     1.9387980    -0.0403200
  H        2.3360990    -0.6508680     0.9913740
  H        2.9058609    -0.0629530    -0.5593018
  H        2.1576980    -1.6469370    -0.4652230
units angstrom
no_reorient  #important for SAPT in psi4, default
symmetry c1  #important for SAPT in psi4, default
}

set PROPERTIES_ORIGIN ["COM"]
properties('MP2/aug-cc-pvtz', properties = ['dipole'])
--------------------------------------------------------------------------

    Molecular point group: c1
  Charge       = 0
  Multiplicity = 1
  Basis Set: AUG-CC-PVTZ
    Blend: AUG-CC-PVTZ
  Basis Set: (AUG-CC-PVTZ AUX)
    Blend: AUG-CC-PVTZ-JKFIT

    Orbital Energies [Eh]
    ---------------------

    Doubly Occupied:

       1A    -15.574281     2A    -11.281656     3A    -11.280437
       4A    -11.257346     5A    -11.231313     6A    -11.226788
       7A     -1.205689     8A     -1.120037     9A     -0.996433
      10A     -0.949922    11A     -0.807448    12A     -0.707686
      13A     -0.661551    14A     -0.624511    15A     -0.595838
      16A     -0.567734    17A     -0.554662    18A     -0.543937
      19A     -0.513112    20A     -0.495833    21A     -0.491685
      22A     -0.447825    23A     -0.443945

  @DF-RHF Final Energy:  -249.11410177913993

   => Energetics <=

    Nuclear Repulsion Energy =            220.2514305543426474
    One-Electron Energy =                -771.5717270763349234
    Two-Electron Energy =                 302.2061947428524036
    Total Energy =                       -249.1141017791399008
  Basis Set: (AUG-CC-PVTZ AUX)
    Blend: AUG-CC-PVTZ-RI
    Molecular point group: c1

    Geometry (in Angstrom), charge = 0, multiplicity = 1:

       Center              X                  Y                   Z               Mass
    ------------   -----------------  -----------------  -----------------  -----------------
         N           -2.635335646437     0.149673065853    -0.185245659762    14.003074004430
         C            0.880800353563     0.032147065853    -0.332610659762    12.000000000000
         C           -0.223693646437    -0.813966934147     0.324255340238    12.000000000000
         C            0.844791353563     1.471576065853     0.173059340238    12.000000000000
         C            2.238703353563    -0.616220934147    -0.073516659762    12.000000000000
         C           -1.565771646437    -0.291675934147     0.051706340238    12.000000000000
         H            0.694280353563     0.036237065853    -1.414104659762     1.007825032230
         H           -0.173614646437    -1.849305934147    -0.031861659762     1.007825032230
         H           -0.071628646437    -0.839365934147     1.410517340238     1.007825032230
         H            1.019250353563     1.501448065853     1.254438340238     1.007825032230
         H            1.624705353563     2.067480065853    -0.309950659762     1.007825032230
         H           -0.119775646437     1.944603065853    -0.031097659762     1.007825032230
         H            2.452124353563    -0.645062934147     1.000596340238     1.007825032230
         H            3.021886253563    -0.057147934147    -0.550079459762     1.007825032230
         H            2.273723353563    -1.641131934147    -0.456000659762     1.007825032230

  Basis Set: AUG-CC-PVTZ
    Blend: AUG-CC-PVTZ
  Basis Set: (AUG-CC-PVTZ AUX)
    Blend: AUG-CC-PVTZ-JKFIT
	 Reference Energy          =    -249.1141017791399292 [Eh]
	 Singles Energy            =      -0.0000000000000000 [Eh]
	 Same-Spin Energy          =      -0.2628715546108110 [Eh]
	 Opposite-Spin Energy      =      -0.9096745484876820 [Eh]
	 Correlation Energy        =      -1.1725461030984929 [Eh]
	 Total Energy              =    -250.2866478822384124 [Eh]

	 ================> DF-SCS-MP2 Energies <==================
	-----------------------------------------------------------
	 SCS Same-Spin Scale       =       0.3333333333333333 [-]
	 SCS Opposite-Spin Scale   =       1.2000000000000000 [-]
	 SCS Same-Spin Energy      =      -0.0876238515369370 [Eh]
	 SCS Opposite-Spin Energy  =      -1.0916094581852185 [Eh]
	 SCS Correlation Energy    =      -1.1792333097221555 [Eh]
	 SCS Total Energy          =    -250.2933350888620794 [Eh]
	-----------------------------------------------------------

  Dipole Moment: [D]
     X:     3.8880      Y:    -1.1131      Z:     0.5311     Total:     4.0790

*** Psi4 exiting successfully. Buy a developer a beer!
