                               Psi4 1.4a3.dev225

  ==> Input File <==

--------------------------------------------------------------------------
#psi4
#
memory 32 gb

molecule  {
0 1
  N       -2.7513610     0.1438680    -0.1944680
  C        0.7647750     0.0263420    -0.3418330
  C       -0.3397190    -0.8197720     0.3150330
  C        0.7275862     1.5129316     0.1804045
  C        2.1226780    -0.6220260    -0.0827390
  C       -1.6817970    -0.2974810     0.0424840
  H        0.5782550     0.0304320    -1.4233270
  H       -0.2896400    -1.8551110    -0.0410840
  H       -0.1876540    -0.8451710     1.4012950
  H        0.9032250     1.4956430     1.2452160
  H        1.5086800     2.0616750    -0.3191730
  H       -0.2358010     1.9387980    -0.0403200
  H        2.3360990    -0.6508680     0.9913740
  H        2.9204480    -0.0525400    -0.5681780
  H        2.1576980    -1.6469370    -0.4652230
units angstrom
no_reorient  #important for SAPT in psi4, default
symmetry c1  #important for SAPT in psi4, default
}

set PROPERTIES_ORIGIN ["COM"]
properties('MP2/aug-cc-pvtz', properties = ['dipole'])
--------------------------------------------------------------------------

    Molecular point group: c1
  Charge       = 0
  Multiplicity = 1
  Basis Set: AUG-CC-PVTZ
    Blend: AUG-CC-PVTZ
  Basis Set: (AUG-CC-PVTZ AUX)
    Blend: AUG-CC-PVTZ-JKFIT

    Orbital Energies [Eh]
    ---------------------

    Doubly Occupied:

       1A    -15.574375     2A    -11.281722     3A    -11.280527
       4A    -11.259308     5A    -11.233667     6A    -11.225155
       7A     -1.205654     8A     -1.115129     9A     -0.994432
      10A     -0.949371    11A     -0.806987    12A     -0.706590
      13A     -0.659600    14A     -0.623300    15A     -0.596464
      16A     -0.566826    17A     -0.558132    18A     -0.545820
      19A     -0.515513    20A     -0.497565    21A     -0.483375
      22A     -0.447437    23A     -0.443711

  @DF-RHF Final Energy:  -249.11249497633099

   => Energetics <=

    Nuclear Repulsion Energy =            219.4837745084020071
    One-Electron Energy =                -770.0512227277324655
    Two-Electron Energy =                 301.4549532429994656
    Total Energy =                       -249.1124949763309928
  Basis Set: (AUG-CC-PVTZ AUX)
    Blend: AUG-CC-PVTZ-RI
    Molecular point group: c1

    Geometry (in Angstrom), charge = 0, multiplicity = 1:

       Center              X                  Y                   Z               Mass
    ------------   -----------------  -----------------  -----------------  -----------------
         N           -2.635342190576     0.142734370758    -0.187531158086    14.003074004430
         C            0.880793809424     0.025208370758    -0.334896158086    12.000000000000
         C           -0.223700190576    -0.820905629242     0.321969841914    12.000000000000
         C            0.843605009424     1.511797970758     0.187341341914    12.000000000000
         C            2.238696809424    -0.623159629242    -0.075802158086    12.000000000000
         C           -1.565778190576    -0.298614629242     0.049420841914    12.000000000000
         H            0.694273809424     0.029298370758    -1.416390158086     1.007825032230
         H           -0.173621190576    -1.856244629242    -0.034147158086     1.007825032230
         H           -0.071635190576    -0.846304629242     1.408231841914     1.007825032230
         H            1.019243809424     1.494509370758     1.252152841914     1.007825032230
         H            1.624698809424     2.060541370758    -0.312236158086     1.007825032230
         H           -0.119782190576     1.937664370758    -0.033383158086     1.007825032230
         H            2.452117809424    -0.652001629242     0.998310841914     1.007825032230
         H            3.036466809424    -0.053673629242    -0.561241158086     1.007825032230
         H            2.273716809424    -1.648070629242    -0.458286158086     1.007825032230

  Basis Set: AUG-CC-PVTZ
    Blend: AUG-CC-PVTZ
  Basis Set: (AUG-CC-PVTZ AUX)
    Blend: AUG-CC-PVTZ-JKFIT
	 Reference Energy          =    -249.1124949763309928 [Eh]
	 Singles Energy            =      -0.0000000000000000 [Eh]
	 Same-Spin Energy          =      -0.2625680302209596 [Eh]
	 Opposite-Spin Energy      =      -0.9096044200548060 [Eh]
	 Correlation Energy        =      -1.1721724502757658 [Eh]
	 Total Energy              =    -250.2846674266067453 [Eh]

	 ================> DF-SCS-MP2 Energies <==================
	-----------------------------------------------------------
	 SCS Same-Spin Scale       =       0.3333333333333333 [-]
	 SCS Opposite-Spin Scale   =       1.2000000000000000 [-]
	 SCS Same-Spin Energy      =      -0.0875226767403199 [Eh]
	 SCS Opposite-Spin Energy  =      -1.0915253040657671 [Eh]
	 SCS Correlation Energy    =      -1.1790479808060870 [Eh]
	 SCS Total Energy          =    -250.2915429571370680 [Eh]
	-----------------------------------------------------------

  Dipole Moment: [D]
     X:     3.8802      Y:    -1.1274      Z:     0.5363     Total:     4.0761

*** Psi4 exiting successfully. Buy a developer a beer!
