                               Psi4 1.4a3.dev225

  ==> Input File <==

--------------------------------------------------------------------------
#psi4
#
memory 32 gb

molecule  {
0 1
  N       -2.7513610     0.1438680    -0.1944680
  C        0.7647750     0.0263420    -0.3418330
  C       -0.3397190    -0.8197720     0.3150330
  C        0.7264064     1.5600923     0.1969720
  C        2.1226780    -0.6220260    -0.0827390
  C       -1.6817970    -0.2974810     0.0424840
  H        0.5782550     0.0304320    -1.4233270
  H       -0.2896400    -1.8551110    -0.0410840
  H       -0.1876540    -0.8451710     1.4012950
  H        0.9032250     1.4956430     1.2452160
  H        1.5086800     2.0616750    -0.3191730
  H       -0.2358010     1.9387980    -0.0403200
  H        2.3360990    -0.6508680     0.9913740
  H        2.9204480    -0.0525400    -0.5681780
  H        2.1576980    -1.6469370    -0.4652230
units angstrom
no_reorient  #important for SAPT in psi4, default
symmetry c1  #important for SAPT in psi4, default
}

set PROPERTIES_ORIGIN ["COM"]
properties('MP2/aug-cc-pvtz', properties = ['dipole'])
--------------------------------------------------------------------------

    Molecular point group: c1
  Charge       = 0
  Multiplicity = 1
  Basis Set: AUG-CC-PVTZ
    Blend: AUG-CC-PVTZ
  Basis Set: (AUG-CC-PVTZ AUX)
    Blend: AUG-CC-PVTZ-JKFIT

    Orbital Energies [Eh]
    ---------------------

    Doubly Occupied:

       1A    -15.574382     2A    -11.281688     3A    -11.280521
       4A    -11.260871     5A    -11.233654     6A    -11.224307
       7A     -1.205568     8A     -1.111121     9A     -0.993141
      10A     -0.950055    11A     -0.806951    12A     -0.705958
      13A     -0.657926    14A     -0.623054    15A     -0.598000
      16A     -0.567066    17A     -0.562511    18A     -0.549169
      19A     -0.518197    20A     -0.500254    21A     -0.471492
      22A     -0.446731    23A     -0.442632

  @DF-RHF Final Energy:  -249.10703988215113

   => Energetics <=

    Nuclear Repulsion Energy =            218.8194112309852244
    One-Electron Energy =                -768.7224086677736068
    Two-Electron Energy =                 300.7959575546372548
    Total Energy =                       -249.1070398821511276
  Basis Set: (AUG-CC-PVTZ AUX)
    Blend: AUG-CC-PVTZ-RI
    Molecular point group: c1

    Geometry (in Angstrom), charge = 0, multiplicity = 1:

       Center              X                  Y                   Z               Mass
    ------------   -----------------  -----------------  -----------------  -----------------
         N           -2.635171767997     0.135921988894    -0.189924340048    14.003074004430
         C            0.880964232003     0.018395988894    -0.337289340048    12.000000000000
         C           -0.223529767997    -0.827718011106     0.319576659952    12.000000000000
         C            0.842595632003     1.552146288894     0.201515659952    12.000000000000
         C            2.238867232003    -0.629972011106    -0.078195340048    12.000000000000
         C           -1.565607767997    -0.305427011106     0.047027659952    12.000000000000
         H            0.694444232003     0.022485988894    -1.418783340048     1.007825032230
         H           -0.173450767997    -1.863057011106    -0.036540340048     1.007825032230
         H           -0.071464767997    -0.853117011106     1.405838659952     1.007825032230
         H            1.019414232003     1.487696988894     1.249759659952     1.007825032230
         H            1.624869232003     2.053728988894    -0.314629340048     1.007825032230
         H           -0.119611767997     1.930851988894    -0.035776340048     1.007825032230
         H            2.452288232003    -0.658814011106     0.995917659952     1.007825032230
         H            3.036637232003    -0.060486011106    -0.563634340048     1.007825032230
         H            2.273887232003    -1.654883011106    -0.460679340048     1.007825032230

  Basis Set: AUG-CC-PVTZ
    Blend: AUG-CC-PVTZ
  Basis Set: (AUG-CC-PVTZ AUX)
    Blend: AUG-CC-PVTZ-JKFIT
	 Reference Energy          =    -249.1070398821511276 [Eh]
	 Singles Energy            =      -0.0000000000000000 [Eh]
	 Same-Spin Energy          =      -0.2624406401373067 [Eh]
	 Opposite-Spin Energy      =      -0.9097255380229075 [Eh]
	 Correlation Energy        =      -1.1721661781602142 [Eh]
	 Total Energy              =    -250.2792060603113384 [Eh]

	 ================> DF-SCS-MP2 Energies <==================
	-----------------------------------------------------------
	 SCS Same-Spin Scale       =       0.3333333333333333 [-]
	 SCS Opposite-Spin Scale   =       1.2000000000000000 [-]
	 SCS Same-Spin Energy      =      -0.0874802133791022 [Eh]
	 SCS Opposite-Spin Energy  =      -1.0916706456274889 [Eh]
	 SCS Correlation Energy    =      -1.1791508590065911 [Eh]
	 SCS Total Energy          =    -250.2861907411577249 [Eh]
	-----------------------------------------------------------

  Dipole Moment: [D]
     X:     3.8832      Y:    -1.1441      Z:     0.5354     Total:     4.0834

*** Psi4 exiting successfully. Buy a developer a beer!
