                               Psi4 1.4a3.dev225

  ==> Input File <==

--------------------------------------------------------------------------
#psi4
#
memory 32 gb

molecule  {
0 1
  N       -2.7513610     0.1438680    -0.1944680
  C        0.7647750     0.0263420    -0.3418330
  C       -0.3397190    -0.8197720     0.3150330
  C        0.7311256     1.3714497     0.1307020
  C        2.1226780    -0.6220260    -0.0827390
  C       -1.6817970    -0.2974810     0.0424840
  H        0.5782550     0.0304320    -1.4233270
  H       -0.2896400    -1.8551110    -0.0410840
  H       -0.1876540    -0.8451710     1.4012950
  H        0.9032250     1.4956430     1.2452160
  H        1.5086800     2.0616750    -0.3191730
  H       -0.2358010     1.9387980    -0.0403200
  H        2.3360990    -0.6508680     0.9913740
  H        2.9204480    -0.0525400    -0.5681780
  H        2.1576980    -1.6469370    -0.4652230
units angstrom
no_reorient  #important for SAPT in psi4, default
symmetry c1  #important for SAPT in psi4, default
}

set PROPERTIES_ORIGIN ["COM"]
properties('MP2/aug-cc-pvtz', properties = ['dipole'])
--------------------------------------------------------------------------

    Molecular point group: c1
  Charge       = 0
  Multiplicity = 1
  Basis Set: AUG-CC-PVTZ
    Blend: AUG-CC-PVTZ
  Basis Set: (AUG-CC-PVTZ AUX)
    Blend: AUG-CC-PVTZ-JKFIT

    Orbital Energies [Eh]
    ---------------------

    Doubly Occupied:

       1A    -15.574522     2A    -11.282323     3A    -11.280718
       4A    -11.253217     5A    -11.234250     6A    -11.232154
       7A     -1.206297     8A     -1.132744     9A     -0.999784
      10A     -0.949299    11A     -0.805670    12A     -0.709428
      13A     -0.667264    14A     -0.628430    15A     -0.595383
      16A     -0.569436    17A     -0.549560    18A     -0.538587
      19A     -0.522173    20A     -0.493519    21A     -0.479693
      22A     -0.448357    23A     -0.443328

  @DF-RHF Final Energy:  -249.10212910966391

   => Energetics <=

    Nuclear Repulsion Energy =            221.6039947419479006
    One-Electron Energy =                -774.2199755752451438
    Two-Electron Energy =                 303.5138517236333655
    Total Energy =                       -249.1021291096639061
  Basis Set: (AUG-CC-PVTZ AUX)
    Blend: AUG-CC-PVTZ-RI
    Molecular point group: c1

    Geometry (in Angstrom), charge = 0, multiplicity = 1:

       Center              X                  Y                   Z               Mass
    ------------   -----------------  -----------------  -----------------  -----------------
         N           -2.635853458314     0.163171487461    -0.180351612201    14.003074004430
         C            0.880282541686     0.045645487461    -0.327716612201    12.000000000000
         C           -0.224211458314    -0.800468512539     0.329149387799    12.000000000000
         C            0.846633141686     1.390753187461     0.144818387799    12.000000000000
         C            2.238185541686    -0.602722512539    -0.068622612201    12.000000000000
         C           -1.566289458314    -0.278177512539     0.056600387799    12.000000000000
         H            0.693762541686     0.049735487461    -1.409210612201     1.007825032230
         H           -0.174132458314    -1.835807512539    -0.026967612201     1.007825032230
         H           -0.072146458314    -0.825867512539     1.415411387799     1.007825032230
         H            1.018732541686     1.514946487461     1.259332387799     1.007825032230
         H            1.624187541686     2.080978487461    -0.305056612201     1.007825032230
         H           -0.120293458314     1.958101487461    -0.026203612201     1.007825032230
         H            2.451606541686    -0.631564512539     1.005490387799     1.007825032230
         H            3.035955541686    -0.033236512539    -0.554061612201     1.007825032230
         H            2.273205541686    -1.627633512539    -0.451106612201     1.007825032230

  Basis Set: AUG-CC-PVTZ
    Blend: AUG-CC-PVTZ
  Basis Set: (AUG-CC-PVTZ AUX)
    Blend: AUG-CC-PVTZ-JKFIT
	 Reference Energy          =    -249.1021291096639061 [Eh]
	 Singles Energy            =      -0.0000000000000000 [Eh]
	 Same-Spin Energy          =      -0.2640586906699754 [Eh]
	 Opposite-Spin Energy      =      -0.9112148053857947 [Eh]
	 Correlation Energy        =      -1.1752734960557700 [Eh]
	 Total Energy              =    -250.2774026057196863 [Eh]

	 ================> DF-SCS-MP2 Energies <==================
	-----------------------------------------------------------
	 SCS Same-Spin Scale       =       0.3333333333333333 [-]
	 SCS Opposite-Spin Scale   =       1.2000000000000000 [-]
	 SCS Same-Spin Energy      =      -0.0880195635566585 [Eh]
	 SCS Opposite-Spin Energy  =      -1.0934577664629537 [Eh]
	 SCS Correlation Energy    =      -1.1814773300196122 [Eh]
	 SCS Total Energy          =    -250.2836064396835241 [Eh]
	-----------------------------------------------------------

  Dipole Moment: [D]
     X:     3.8671      Y:    -1.1136      Z:     0.5250     Total:     4.0583

*** Psi4 exiting successfully. Buy a developer a beer!
