                               Psi4 1.4a3.dev225

  ==> Input File <==

--------------------------------------------------------------------------
#psi4
#
memory 32 gb

molecule  {
0 1
  N       -2.7513610     0.1438680    -0.1944680
  C        0.7647750     0.0263420    -0.3418330
  C       -0.3397190    -0.8197720     0.3150330
  C        0.7287660     1.4657710     0.1638370
  C        2.1226780    -0.6220260    -0.0827390
  C       -1.6817970    -0.2974810     0.0424840
  H        0.5782550     0.0304320    -1.4233270
  H       -0.2896400    -1.8551110    -0.0410840
  H       -0.1876540    -0.8451710     1.4012950
  H        0.9032250     1.4956430     1.2452160
  H        1.5086800     2.0616750    -0.3191730
  H       -0.2534422     1.9474493    -0.0440539
  H        2.3360990    -0.6508680     0.9913740
  H        2.9204480    -0.0525400    -0.5681780
  H        2.1576980    -1.6469370    -0.4652230
units angstrom
no_reorient  #important for SAPT in psi4, default
symmetry c1  #important for SAPT in psi4, default
}

set PROPERTIES_ORIGIN ["COM"]
properties('MP2/aug-cc-pvtz', properties = ['dipole'])
--------------------------------------------------------------------------

    Molecular point group: c1
  Charge       = 0
  Multiplicity = 1
  Basis Set: AUG-CC-PVTZ
    Blend: AUG-CC-PVTZ
  Basis Set: (AUG-CC-PVTZ AUX)
    Blend: AUG-CC-PVTZ-JKFIT

    Orbital Energies [Eh]
    ---------------------

    Doubly Occupied:

       1A    -15.574304     2A    -11.281841     3A    -11.280517
       4A    -11.257700     5A    -11.233936     6A    -11.229098
       7A     -1.205720     8A     -1.119862     9A     -0.995805
      10A     -0.947673    11A     -0.806487    12A     -0.707384
      13A     -0.661545    14A     -0.623083    15A     -0.594937
      16A     -0.567158    17A     -0.553908    18A     -0.542344
      19A     -0.512413    20A     -0.495023    21A     -0.491636
      22A     -0.447806    23A     -0.443876

  @DF-RHF Final Energy:  -249.11352867461358

   => Energetics <=

    Nuclear Repulsion Energy =            220.0913818292568749
    One-Electron Energy =                -771.2617125910542200
    Two-Electron Energy =                 302.0568020871837689
    Total Energy =                       -249.1135286746135762
  Basis Set: (AUG-CC-PVTZ AUX)
    Blend: AUG-CC-PVTZ-RI
    Molecular point group: c1

    Geometry (in Angstrom), charge = 0, multiplicity = 1:

       Center              X                  Y                   Z               Mass
    ------------   -----------------  -----------------  -----------------  -----------------
         N           -2.635298594929     0.149441782966    -0.185092677468    14.003074004430
         C            0.880837405071     0.031915782966    -0.332457677468    12.000000000000
         C           -0.223656594929    -0.814198217034     0.324408322532    12.000000000000
         C            0.844828405071     1.471344782966     0.173212322532    12.000000000000
         C            2.238740405071    -0.616452217034    -0.073363677468    12.000000000000
         C           -1.565734594929    -0.291907217034     0.051859322532    12.000000000000
         H            0.694317405071     0.036005782966    -1.413951677468     1.007825032230
         H           -0.173577594929    -1.849537217034    -0.031708677468     1.007825032230
         H           -0.071591594929    -0.839597217034     1.410670322532     1.007825032230
         H            1.019287405071     1.501216782966     1.254591322532     1.007825032230
         H            1.624742405071     2.067248782966    -0.309797677468     1.007825032230
         H           -0.137379794929     1.953023082966    -0.034678577468     1.007825032230
         H            2.452161405071    -0.645294217034     1.000749322532     1.007825032230
         H            3.036510405071    -0.046966217034    -0.558802677468     1.007825032230
         H            2.273760405071    -1.641363217034    -0.455847677468     1.007825032230

  Basis Set: AUG-CC-PVTZ
    Blend: AUG-CC-PVTZ
  Basis Set: (AUG-CC-PVTZ AUX)
    Blend: AUG-CC-PVTZ-JKFIT
	 Reference Energy          =    -249.1135286746135762 [Eh]
	 Singles Energy            =      -0.0000000000000000 [Eh]
	 Same-Spin Energy          =      -0.2628878962573094 [Eh]
	 Opposite-Spin Energy      =      -0.9099483375369071 [Eh]
	 Correlation Energy        =      -1.1728362337942164 [Eh]
	 Total Energy              =    -250.2863649084077906 [Eh]

	 ================> DF-SCS-MP2 Energies <==================
	-----------------------------------------------------------
	 SCS Same-Spin Scale       =       0.3333333333333333 [-]
	 SCS Opposite-Spin Scale   =       1.2000000000000000 [-]
	 SCS Same-Spin Energy      =      -0.0876292987524364 [Eh]
	 SCS Opposite-Spin Energy  =      -1.0919380050442884 [Eh]
	 SCS Correlation Energy    =      -1.1795673037967249 [Eh]
	 SCS Total Energy          =    -250.2930959784102924 [Eh]
	-----------------------------------------------------------

  Dipole Moment: [D]
     X:     3.8840      Y:    -1.1237      Z:     0.5354     Total:     4.0785

*** Psi4 exiting successfully. Buy a developer a beer!
