                               Psi4 1.4a3.dev225

  ==> Input File <==

--------------------------------------------------------------------------
#psi4
#
memory 32 gb

molecule  {
0 1
  N       -2.7513610     0.1438680    -0.1944680
  C        0.7647750     0.0263420    -0.3418330
  C       -0.3397190    -0.8197720     0.3150330
  C        0.7287660     1.4657710     0.1638370
  C        2.1226780    -0.6220260    -0.0827390
  C       -1.6817970    -0.2974810     0.0424840
  H        0.5782550     0.0304320    -1.4233270
  H       -0.2896400    -1.8551110    -0.0410840
  H       -0.1876540    -0.8451710     1.4012950
  H        0.9032250     1.4956430     1.2452160
  H        1.5229390     2.0725698    -0.3280038
  H       -0.2358010     1.9387980    -0.0403200
  H        2.3360990    -0.6508680     0.9913740
  H        2.9204480    -0.0525400    -0.5681780
  H        2.1576980    -1.6469370    -0.4652230
units angstrom
no_reorient  #important for SAPT in psi4, default
symmetry c1  #important for SAPT in psi4, default
}

set PROPERTIES_ORIGIN ["COM"]
properties('MP2/aug-cc-pvtz', properties = ['dipole'])
--------------------------------------------------------------------------

    Molecular point group: c1
  Charge       = 0
  Multiplicity = 1
  Basis Set: AUG-CC-PVTZ
    Blend: AUG-CC-PVTZ
  Basis Set: (AUG-CC-PVTZ AUX)
    Blend: AUG-CC-PVTZ-JKFIT

    Orbital Energies [Eh]
    ---------------------

    Doubly Occupied:

       1A    -15.574530     2A    -11.282015     3A    -11.280691
       4A    -11.257717     5A    -11.233764     6A    -11.229233
       7A     -1.205923     8A     -1.119930     9A     -0.995679
      10A     -0.947883    11A     -0.806389    12A     -0.707505
      13A     -0.661040    14A     -0.623878    15A     -0.595701
      16A     -0.567212    17A     -0.553788    18A     -0.541443
      19A     -0.511221    20A     -0.496205    21A     -0.491958
      22A     -0.448064    23A     -0.443992

  @DF-RHF Final Energy:  -249.11355653274106

   => Energetics <=

    Nuclear Repulsion Energy =            220.0808138454523259
    One-Electron Energy =                -771.2372154012807641
    Two-Electron Energy =                 302.0428450230873523
    Total Energy =                       -249.1135565327410859
  Basis Set: (AUG-CC-PVTZ AUX)
    Blend: AUG-CC-PVTZ-RI
    Molecular point group: c1

    Geometry (in Angstrom), charge = 0, multiplicity = 1:

       Center              X                  Y                   Z               Mass
    ------------   -----------------  -----------------  -----------------  -----------------
         N           -2.635685599454     0.149414565436    -0.185030843268    14.003074004430
         C            0.880450400546     0.031888565436    -0.332395843268    12.000000000000
         C           -0.224043599454    -0.814225434564     0.324470156732    12.000000000000
         C            0.844441400546     1.471317565436     0.173274156732    12.000000000000
         C            2.238353400546    -0.616479434564    -0.073301843268    12.000000000000
         C           -1.566121599454    -0.291934434564     0.051921156732    12.000000000000
         H            0.693930400546     0.035978565436    -1.413889843268     1.007825032230
         H           -0.173964599454    -1.849564434564    -0.031646843268     1.007825032230
         H           -0.071978599454    -0.839624434564     1.410732156732     1.007825032230
         H            1.018900400546     1.501189565436     1.254653156732     1.007825032230
         H            1.638614400546     2.078116365436    -0.318566643268     1.007825032230
         H           -0.120125599454     1.944344565436    -0.030882843268     1.007825032230
         H            2.451774400546    -0.645321434564     1.000811156732     1.007825032230
         H            3.036123400546    -0.046993434564    -0.558740843268     1.007825032230
         H            2.273373400546    -1.641390434564    -0.455785843268     1.007825032230

  Basis Set: AUG-CC-PVTZ
    Blend: AUG-CC-PVTZ
  Basis Set: (AUG-CC-PVTZ AUX)
    Blend: AUG-CC-PVTZ-JKFIT
	 Reference Energy          =    -249.1135565327410575 [Eh]
	 Singles Energy            =      -0.0000000000000000 [Eh]
	 Same-Spin Energy          =      -0.2628675685915402 [Eh]
	 Opposite-Spin Energy      =      -0.9099273535343204 [Eh]
	 Correlation Energy        =      -1.1727949221258607 [Eh]
	 Total Energy              =    -250.2863514548669173 [Eh]

	 ================> DF-SCS-MP2 Energies <==================
	-----------------------------------------------------------
	 SCS Same-Spin Scale       =       0.3333333333333333 [-]
	 SCS Opposite-Spin Scale   =       1.2000000000000000 [-]
	 SCS Same-Spin Energy      =      -0.0876225228638467 [Eh]
	 SCS Opposite-Spin Energy  =      -1.0919128242411844 [Eh]
	 SCS Correlation Energy    =      -1.1795353471050312 [Eh]
	 SCS Total Energy          =    -250.2930918798460880 [Eh]
	-----------------------------------------------------------

  Dipole Moment: [D]
     X:     3.8671      Y:    -1.1262      Z:     0.5386     Total:     4.0636

*** Psi4 exiting successfully. Buy a developer a beer!
