                               Psi4 1.4a3.dev225

  ==> Input File <==

--------------------------------------------------------------------------
#psi4
#
memory 32 gb

molecule  {
0 1
  N       -2.7513610     0.1438680    -0.1944680
  C        0.7647750     0.0263420    -0.3418330
  C       -0.3397190    -0.8197720     0.3150330
  C        0.7287660     1.4657710     0.1638370
  C        2.1226780    -0.6220260    -0.0827390
  C       -1.6817970    -0.2974810     0.0424840
  H        0.5782550     0.0304320    -1.4233270
  H       -0.2896400    -1.8551110    -0.0410840
  H       -0.1876540    -0.8451710     1.4012950
  H        0.9032250     1.4956430     1.2452160
  H        1.5086800     2.0616750    -0.3191730
  H       -0.2358010     1.9387980    -0.0403200
  H        2.2971354    -0.6456024     0.7952768
  H        2.9204480    -0.0525400    -0.5681780
  H        2.1576980    -1.6469370    -0.4652230
units angstrom
no_reorient  #important for SAPT in psi4, default
symmetry c1  #important for SAPT in psi4, default
}

set PROPERTIES_ORIGIN ["COM"]
properties('MP2/aug-cc-pvtz', properties = ['dipole'])
--------------------------------------------------------------------------

    Molecular point group: c1
  Charge       = 0
  Multiplicity = 1
  Basis Set: AUG-CC-PVTZ
    Blend: AUG-CC-PVTZ
  Basis Set: (AUG-CC-PVTZ AUX)
    Blend: AUG-CC-PVTZ-JKFIT

    Orbital Energies [Eh]
    ---------------------

    Doubly Occupied:

       1A    -15.574204     2A    -11.281671     3A    -11.280408
       4A    -11.255625     5A    -11.226617     6A    -11.208506
       7A     -1.205624     8A     -1.122940     9A     -1.003589
      10A     -0.961287    11A     -0.816402    12A     -0.707075
      13A     -0.665988    14A     -0.626452    15A     -0.604027
      16A     -0.579897    17A     -0.559696    18A     -0.542299
      19A     -0.512386    20A     -0.495970    21A     -0.494117
      22A     -0.447733    23A     -0.443564

  @DF-RHF Final Energy:  -249.08023768703339

   => Energetics <=

    Nuclear Repulsion Energy =            221.0940424118678038
    One-Electron Energy =                -773.1164031915928945
    Two-Electron Energy =                 302.9421230926917019
    Total Energy =                       -249.0802376870333887
  Basis Set: (AUG-CC-PVTZ AUX)
    Blend: AUG-CC-PVTZ-RI
    Molecular point group: c1

    Geometry (in Angstrom), charge = 0, multiplicity = 1:

       Center              X                  Y                   Z               Mass
    ------------   -----------------  -----------------  -----------------  -----------------
         N           -2.635039917389     0.149482857354    -0.182758978387    14.003074004430
         C            0.881096082611     0.031956857354    -0.330123978387    12.000000000000
         C           -0.223397917389    -0.814157142646     0.326742021613    12.000000000000
         C            0.845087082611     1.471385857354     0.175546021613    12.000000000000
         C            2.238999082611    -0.616411142646    -0.071029978387    12.000000000000
         C           -1.565475917389    -0.291866142646     0.054193021613    12.000000000000
         H            0.694576082611     0.036046857354    -1.411617978387     1.007825032230
         H           -0.173318917389    -1.849496142646    -0.029374978387     1.007825032230
         H           -0.071332917389    -0.839556142646     1.413004021613     1.007825032230
         H            1.019546082611     1.501257857354     1.256925021613     1.007825032230
         H            1.625001082611     2.067289857354    -0.307463978387     1.007825032230
         H           -0.119479917389     1.944412857354    -0.028610978387     1.007825032230
         H            2.413456482611    -0.639987542646     0.806985821613     1.007825032230
         H            3.036769082611    -0.046925142646    -0.556468978387     1.007825032230
         H            2.274019082611    -1.641322142646    -0.453513978387     1.007825032230

  Basis Set: AUG-CC-PVTZ
    Blend: AUG-CC-PVTZ
  Basis Set: (AUG-CC-PVTZ AUX)
    Blend: AUG-CC-PVTZ-JKFIT
	 Reference Energy          =    -249.0802376870333887 [Eh]
	 Singles Energy            =      -0.0000000000000000 [Eh]
	 Same-Spin Energy          =      -0.2629753283266718 [Eh]
	 Opposite-Spin Energy      =      -0.9092579436810506 [Eh]
	 Correlation Energy        =      -1.1722332720077224 [Eh]
	 Total Energy              =    -250.2524709590411192 [Eh]

	 ================> DF-SCS-MP2 Energies <==================
	-----------------------------------------------------------
	 SCS Same-Spin Scale       =       0.3333333333333333 [-]
	 SCS Opposite-Spin Scale   =       1.2000000000000000 [-]
	 SCS Same-Spin Energy      =      -0.0876584427755573 [Eh]
	 SCS Opposite-Spin Energy  =      -1.0911095324172606 [Eh]
	 SCS Correlation Energy    =      -1.1787679751928180 [Eh]
	 SCS Total Energy          =    -250.2590056622262011 [Eh]
	-----------------------------------------------------------

  Dipole Moment: [D]
     X:     3.9103      Y:    -1.1296      Z:     0.6186     Total:     4.1170

*** Psi4 exiting successfully. Buy a developer a beer!
