                               Psi4 1.4a3.dev225

  ==> Input File <==

--------------------------------------------------------------------------
#psi4
#
memory 32 gb

molecule  {
0 1
  N       -2.7513610     0.1438680    -0.1944680
  C        0.7647750     0.0263420    -0.3418330
  C       -0.3397190    -0.8197720     0.3150330
  C        0.7287660     1.4657710     0.1638370
  C        2.1226780    -0.6220260    -0.0827390
  C       -1.6817970    -0.2974810     0.0424840
  H        0.5782550     0.0304320    -1.4233270
  H       -0.2896400    -1.8551110    -0.0410840
  H       -0.1876540    -0.8451710     1.4012950
  H        0.9032250     1.4956430     1.2452160
  H        1.5086800     2.0616750    -0.3191730
  H       -0.2358010     1.9387980    -0.0403200
  H        2.3360990    -0.6508680     0.9913740
  H        2.8839802    -0.0785724    -0.5459876
  H        2.1576980    -1.6469370    -0.4652230
units angstrom
no_reorient  #important for SAPT in psi4, default
symmetry c1  #important for SAPT in psi4, default
}

set PROPERTIES_ORIGIN ["COM"]
properties('MP2/aug-cc-pvtz', properties = ['dipole'])
--------------------------------------------------------------------------

    Molecular point group: c1
  Charge       = 0
  Multiplicity = 1
  Basis Set: AUG-CC-PVTZ
    Blend: AUG-CC-PVTZ
  Basis Set: (AUG-CC-PVTZ AUX)
    Blend: AUG-CC-PVTZ-JKFIT

    Orbital Energies [Eh]
    ---------------------

    Doubly Occupied:

       1A    -15.574123     2A    -11.281416     3A    -11.280262
       4A    -11.257097     5A    -11.227603     6A    -11.226792
       7A     -1.205544     8A     -1.120202     9A     -0.997290
      10A     -0.951479    11A     -0.808410    12A     -0.708231
      13A     -0.661354    14A     -0.624956    15A     -0.596403
      16A     -0.568828    17A     -0.555739    18A     -0.545320
      19A     -0.513735    20A     -0.495581    21A     -0.491514
      22A     -0.447679    23A     -0.443952

  @DF-RHF Final Energy:  -249.11309719741061

   => Energetics <=

    Nuclear Repulsion Energy =            220.3834993384020891
    One-Electron Energy =                -771.8261690972364022
    Two-Electron Energy =                 302.3295725614236744
    Total Energy =                       -249.1130971974106387
  Basis Set: (AUG-CC-PVTZ AUX)
    Blend: AUG-CC-PVTZ-RI
    Molecular point group: c1

    Geometry (in Angstrom), charge = 0, multiplicity = 1:

       Center              X                  Y                   Z               Mass
    ------------   -----------------  -----------------  -----------------  -----------------
         N           -2.635070195754     0.149862556153    -0.185407184004    14.003074004430
         C            0.881065804246     0.032336556153    -0.332772184004    12.000000000000
         C           -0.223428195754    -0.813777443847     0.324093815996    12.000000000000
         C            0.845056804246     1.471765556153     0.172897815996    12.000000000000
         C            2.238968804246    -0.616031443847    -0.073678184004    12.000000000000
         C           -1.565506195754    -0.291486443847     0.051544815996    12.000000000000
         H            0.694545804246     0.036426556153    -1.414266184004     1.007825032230
         H           -0.173349195754    -1.849116443847    -0.032023184004     1.007825032230
         H           -0.071363195754    -0.839176443847     1.410355815996     1.007825032230
         H            1.019515804246     1.501637556153     1.254276815996     1.007825032230
         H            1.624970804246     2.067669556153    -0.310112184004     1.007825032230
         H           -0.119510195754     1.944792556153    -0.031259184004     1.007825032230
         H            2.452389804246    -0.644873443847     1.000434815996     1.007825032230
         H            3.000271004246    -0.072577843847    -0.536926784004     1.007825032230
         H            2.273988804246    -1.640942443847    -0.456162184004     1.007825032230

  Basis Set: AUG-CC-PVTZ
    Blend: AUG-CC-PVTZ
  Basis Set: (AUG-CC-PVTZ AUX)
    Blend: AUG-CC-PVTZ-JKFIT
	 Reference Energy          =    -249.1130971974106103 [Eh]
	 Singles Energy            =      -0.0000000000000000 [Eh]
	 Same-Spin Energy          =      -0.2628770142566059 [Eh]
	 Opposite-Spin Energy      =      -0.9095096395396934 [Eh]
	 Correlation Energy        =      -1.1723866537962992 [Eh]
	 Total Energy              =    -250.2854838512069193 [Eh]

	 ================> DF-SCS-MP2 Energies <==================
	-----------------------------------------------------------
	 SCS Same-Spin Scale       =       0.3333333333333333 [-]
	 SCS Opposite-Spin Scale   =       1.2000000000000000 [-]
	 SCS Same-Spin Energy      =      -0.0876256714188686 [Eh]
	 SCS Opposite-Spin Energy  =      -1.0914115674476321 [Eh]
	 SCS Correlation Energy    =      -1.1790372388665007 [Eh]
	 SCS Total Energy          =    -250.2921344362771094 [Eh]
	-----------------------------------------------------------

  Dipole Moment: [D]
     X:     3.9042      Y:    -1.1080      Z:     0.5259     Total:     4.0923

*** Psi4 exiting successfully. Buy a developer a beer!
