                               Psi4 1.4a3.dev225

  ==> Input File <==

--------------------------------------------------------------------------
#psi4
#
memory 32 gb

molecule  {
0 1
  N       -2.7513610     0.1438680    -0.1944680
  C        0.7647750     0.0263420    -0.3418330
  C       -0.3397190    -0.8197720     0.3150330
  C        0.7287660     1.4657710     0.1638370
  C        2.1226780    -0.6220260    -0.0827390
  C       -1.6817970    -0.2974810     0.0424840
  H        0.5782550     0.0304320    -1.4233270
  H       -0.2896400    -1.8551110    -0.0410840
  H       -0.1876540    -0.8451710     1.4012950
  H        0.9032250     1.4956430     1.2452160
  H        1.3660896     1.9527269    -0.2308651
  H       -0.2358010     1.9387980    -0.0403200
  H        2.3360990    -0.6508680     0.9913740
  H        2.9204480    -0.0525400    -0.5681780
  H        2.1576980    -1.6469370    -0.4652230
units angstrom
no_reorient  #important for SAPT in psi4, default
symmetry c1  #important for SAPT in psi4, default
}

set PROPERTIES_ORIGIN ["COM"]
properties('MP2/aug-cc-pvtz', properties = ['dipole'])
--------------------------------------------------------------------------

    Molecular point group: c1
  Charge       = 0
  Multiplicity = 1
  Basis Set: AUG-CC-PVTZ
    Blend: AUG-CC-PVTZ
  Basis Set: (AUG-CC-PVTZ AUX)
    Blend: AUG-CC-PVTZ-JKFIT

    Orbital Energies [Eh]
    ---------------------

    Doubly Occupied:

       1A    -15.573378     2A    -11.280490     3A    -11.279566
       4A    -11.256133     5A    -11.233848     6A    -11.201876
       7A     -1.204835     8A     -1.121881     9A     -1.002891
      10A     -0.962981    11A     -0.813608    12A     -0.706332
      13A     -0.672604    14A     -0.628512    15A     -0.594460
      16A     -0.571117    17A     -0.562194    18A     -0.548783
      19A     -0.519461    20A     -0.494718    21A     -0.490779
      22A     -0.446940    23A     -0.443493

  @DF-RHF Final Energy:  -249.08006769204735

   => Energetics <=

    Nuclear Repulsion Energy =            221.1601533739738557
    One-Electron Energy =                -773.2586828582909675
    Two-Electron Energy =                 303.0184617922698180
    Total Energy =                       -249.0800676920473506
  Basis Set: (AUG-CC-PVTZ AUX)
    Blend: AUG-CC-PVTZ-RI
    Molecular point group: c1

    Geometry (in Angstrom), charge = 0, multiplicity = 1:

       Center              X                  Y                   Z               Mass
    ------------   -----------------  -----------------  -----------------  -----------------
         N           -2.633782745319     0.150868466807    -0.186209303478    14.003074004430
         C            0.882353254681     0.033342466807    -0.333574303478    12.000000000000
         C           -0.222140745319    -0.812771533193     0.323291696522    12.000000000000
         C            0.846344254681     1.472771466807     0.172095696522    12.000000000000
         C            2.240256254681    -0.615025533193    -0.074480303478    12.000000000000
         C           -1.564218745319    -0.290480533193     0.050742696522    12.000000000000
         H            0.695833254681     0.037432466807    -1.415068303478     1.007825032230
         H           -0.172061745319    -1.848110533193    -0.032825303478     1.007825032230
         H           -0.070075745319    -0.838170533193     1.409553696522     1.007825032230
         H            1.020803254681     1.502643466807     1.253474696522     1.007825032230
         H            1.483667854681     1.959727366807    -0.222606403478     1.007825032230
         H           -0.118222745319     1.945798466807    -0.032061303478     1.007825032230
         H            2.453677254681    -0.643867533193     0.999632696522     1.007825032230
         H            3.038026254681    -0.045539533193    -0.559919303478     1.007825032230
         H            2.275276254681    -1.639936533193    -0.456964303478     1.007825032230

  Basis Set: AUG-CC-PVTZ
    Blend: AUG-CC-PVTZ
  Basis Set: (AUG-CC-PVTZ AUX)
    Blend: AUG-CC-PVTZ-JKFIT
	 Reference Energy          =    -249.0800676920473506 [Eh]
	 Singles Energy            =      -0.0000000000000000 [Eh]
	 Same-Spin Energy          =      -0.2629850264794562 [Eh]
	 Opposite-Spin Energy      =      -0.9091895971415005 [Eh]
	 Correlation Energy        =      -1.1721746236209567 [Eh]
	 Total Energy              =    -250.2522423156682976 [Eh]

	 ================> DF-SCS-MP2 Energies <==================
	-----------------------------------------------------------
	 SCS Same-Spin Scale       =       0.3333333333333333 [-]
	 SCS Opposite-Spin Scale   =       1.2000000000000000 [-]
	 SCS Same-Spin Energy      =      -0.0876616754931521 [Eh]
	 SCS Opposite-Spin Energy  =      -1.0910275165698005 [Eh]
	 SCS Correlation Energy    =      -1.1786891920629525 [Eh]
	 SCS Total Energy          =    -250.2587568841103121 [Eh]
	-----------------------------------------------------------

  Dipole Moment: [D]
     X:     3.9455      Y:    -1.0491      Z:     0.5109     Total:     4.1144

*** Psi4 exiting successfully. Buy a developer a beer!
