                               Psi4 1.4a3.dev225

  ==> Input File <==

--------------------------------------------------------------------------
#psi4
#
memory 32 gb

molecule  {
0 1
  N       -2.7513610     0.1438680    -0.1944680
  C        0.7647750     0.0263420    -0.3418330
  C       -0.3397190    -0.8197720     0.3150330
  C        0.7287660     1.4657710     0.1638370
  C        2.1226780    -0.6220260    -0.0827390
  C       -1.6817970    -0.2974810     0.0424840
  H        0.5782550     0.0304320    -1.4233270
  H       -0.2866060    -1.8609640    -0.0231271
  H       -0.1876540    -0.8451710     1.4012950
  H        0.9032250     1.4956430     1.2452160
  H        1.5086800     2.0616750    -0.3191730
  H       -0.2358010     1.9387980    -0.0403200
  H        2.3360990    -0.6508680     0.9913740
  H        2.9204480    -0.0525400    -0.5681780
  H        2.1576980    -1.6469370    -0.4652230
units angstrom
no_reorient  #important for SAPT in psi4, default
symmetry c1  #important for SAPT in psi4, default
}

set PROPERTIES_ORIGIN ["COM"]
properties('MP2/aug-cc-pvtz', properties = ['dipole'])
--------------------------------------------------------------------------

    Molecular point group: c1
  Charge       = 0
  Multiplicity = 1
  Basis Set: AUG-CC-PVTZ
    Blend: AUG-CC-PVTZ
  Basis Set: (AUG-CC-PVTZ AUX)
    Blend: AUG-CC-PVTZ-JKFIT

    Orbital Energies [Eh]
    ---------------------

    Doubly Occupied:

       1A    -15.574490     2A    -11.281797     3A    -11.280666
       4A    -11.257581     5A    -11.233747     6A    -11.226838
       7A     -1.205832     8A     -1.119888     9A     -0.995921
      10A     -0.948960    11A     -0.806930    12A     -0.707939
      13A     -0.661246    14A     -0.624407    15A     -0.594929
      16A     -0.567048    17A     -0.554087    18A     -0.542872
      19A     -0.512721    20A     -0.496064    21A     -0.491729
      22A     -0.447760    23A     -0.444194

  @DF-RHF Final Energy:  -249.11400867322590

   => Energetics <=

    Nuclear Repulsion Energy =            220.1550220759224317
    One-Electron Energy =                -771.3827718988021616
    Two-Electron Energy =                 302.1137411496538903
    Total Energy =                       -249.1140086732258965
  Basis Set: (AUG-CC-PVTZ AUX)
    Blend: AUG-CC-PVTZ-RI
    Molecular point group: c1

    Geometry (in Angstrom), charge = 0, multiplicity = 1:

       Center              X                  Y                   Z               Mass
    ------------   -----------------  -----------------  -----------------  -----------------
         N           -2.635549420816     0.149617745177    -0.185355824337    14.003074004430
         C            0.880586579184     0.032091745177    -0.332720824337    12.000000000000
         C           -0.223907420816    -0.814022254823     0.324145175663    12.000000000000
         C            0.844577579184     1.471520745177     0.172949175663    12.000000000000
         C            2.238489579184    -0.616276254823    -0.073626824337    12.000000000000
         C           -1.565985420816    -0.291731254823     0.051596175663    12.000000000000
         H            0.694066579184     0.036181745177    -1.414214824337     1.007825032230
         H           -0.170794420816    -1.855214254823    -0.014014924337     1.007825032230
         H           -0.071842420816    -0.839421254823     1.410407175663     1.007825032230
         H            1.019036579184     1.501392745177     1.254328175663     1.007825032230
         H            1.624491579184     2.067424745177    -0.310060824337     1.007825032230
         H           -0.119989420816     1.944547745177    -0.031207824337     1.007825032230
         H            2.451910579184    -0.645118254823     1.000486175663     1.007825032230
         H            3.036259579184    -0.046790254823    -0.559065824337     1.007825032230
         H            2.273509579184    -1.641187254823    -0.456110824337     1.007825032230

  Basis Set: AUG-CC-PVTZ
    Blend: AUG-CC-PVTZ
  Basis Set: (AUG-CC-PVTZ AUX)
    Blend: AUG-CC-PVTZ-JKFIT
	 Reference Energy          =    -249.1140086732258965 [Eh]
	 Singles Energy            =      -0.0000000000000000 [Eh]
	 Same-Spin Energy          =      -0.2628735342474543 [Eh]
	 Opposite-Spin Energy      =      -0.9097985522302062 [Eh]
	 Correlation Energy        =      -1.1726720864776605 [Eh]
	 Total Energy              =    -250.2866807597035574 [Eh]

	 ================> DF-SCS-MP2 Energies <==================
	-----------------------------------------------------------
	 SCS Same-Spin Scale       =       0.3333333333333333 [-]
	 SCS Opposite-Spin Scale   =       1.2000000000000000 [-]
	 SCS Same-Spin Energy      =      -0.0876245114158181 [Eh]
	 SCS Opposite-Spin Energy  =      -1.0917582626762474 [Eh]
	 SCS Correlation Energy    =      -1.1793827740920655 [Eh]
	 SCS Total Energy          =    -250.2933914473179584 [Eh]
	-----------------------------------------------------------

  Dipole Moment: [D]
     X:     3.8760      Y:    -1.1194      Z:     0.5412     Total:     4.0705

*** Psi4 exiting successfully. Buy a developer a beer!
