                               Psi4 1.4a3.dev225

  ==> Input File <==

--------------------------------------------------------------------------
#psi4
#
memory 32 gb

molecule  {
0 1
  N       -2.7513610     0.1438680    -0.1944680
  C        0.7647750     0.0263420    -0.3418330
  C       -0.3397190    -0.8197720     0.3150330
  C        0.7287660     1.4657710     0.1638370
  C        2.1226780    -0.6220260    -0.0827390
  C       -1.6817970    -0.2974810     0.0424840
  H        0.5782550     0.0304320    -1.4233270
  H       -0.2896400    -1.8551110    -0.0410840
  H       -0.1876540    -0.8451710     1.4012950
  H        0.9032250     1.4956430     1.2452160
  H        1.5799752     2.1161491    -0.3633270
  H       -0.2358010     1.9387980    -0.0403200
  H        2.3360990    -0.6508680     0.9913740
  H        2.9204480    -0.0525400    -0.5681780
  H        2.1576980    -1.6469370    -0.4652230
units angstrom
no_reorient  #important for SAPT in psi4, default
symmetry c1  #important for SAPT in psi4, default
}

set PROPERTIES_ORIGIN ["COM"]
properties('MP2/aug-cc-pvtz', properties = ['dipole'])
--------------------------------------------------------------------------

    Molecular point group: c1
  Charge       = 0
  Multiplicity = 1
  Basis Set: AUG-CC-PVTZ
    Blend: AUG-CC-PVTZ
  Basis Set: (AUG-CC-PVTZ AUX)
    Blend: AUG-CC-PVTZ-JKFIT

    Orbital Energies [Eh]
    ---------------------

    Doubly Occupied:

       1A    -15.575143     2A    -11.282862     3A    -11.281269
       4A    -11.258588     5A    -11.238734     6A    -11.233803
       7A     -1.206512     8A     -1.120030     9A     -0.994993
      10A     -0.944339    11A     -0.804877    12A     -0.708163
      13A     -0.659115    14A     -0.622499    15A     -0.596450
      16A     -0.567453    17A     -0.553644    18A     -0.536939
      19A     -0.503922    20A     -0.496966    21A     -0.492631
      22A     -0.448668    23A     -0.444193

  @DF-RHF Final Energy:  -249.10757443504338

   => Energetics <=

    Nuclear Repulsion Energy =            219.7588605318838688
    One-Electron Energy =                -770.5892841841928202
    Two-Electron Energy =                 301.7228492172655478
    Total Energy =                       -249.1075744350433752
  Basis Set: (AUG-CC-PVTZ AUX)
    Blend: AUG-CC-PVTZ-RI
    Molecular point group: c1

    Geometry (in Angstrom), charge = 0, multiplicity = 1:

       Center              X                  Y                   Z               Mass
    ------------   -----------------  -----------------  -----------------  -----------------
         N           -2.636377547074     0.148885873256    -0.184602311841    14.003074004430
         C            0.879758452926     0.031359873256    -0.331967311841    12.000000000000
         C           -0.224735547074    -0.814754126744     0.324898688159    12.000000000000
         C            0.843749452926     1.470788873256     0.173702688159    12.000000000000
         C            2.237661452926    -0.617008126744    -0.072873311841    12.000000000000
         C           -1.566813547074    -0.292463126744     0.052349688159    12.000000000000
         H            0.693238452926     0.035449873256    -1.413461311841     1.007825032230
         H           -0.174656547074    -1.850093126744    -0.031218311841     1.007825032230
         H           -0.072670547074    -0.840153126744     1.411160688159     1.007825032230
         H            1.018208452926     1.500660873256     1.255081688159     1.007825032230
         H            1.694958652926     2.121166973256    -0.353461311841     1.007825032230
         H           -0.120817547074     1.943815873256    -0.030454311841     1.007825032230
         H            2.451082452926    -0.645850126744     1.001239688159     1.007825032230
         H            3.035431452926    -0.047522126744    -0.558312311841     1.007825032230
         H            2.272681452926    -1.641919126744    -0.455357311841     1.007825032230

  Basis Set: AUG-CC-PVTZ
    Blend: AUG-CC-PVTZ
  Basis Set: (AUG-CC-PVTZ AUX)
    Blend: AUG-CC-PVTZ-JKFIT
	 Reference Energy          =    -249.1075744350433752 [Eh]
	 Singles Energy            =      -0.0000000000000000 [Eh]
	 Same-Spin Energy          =      -0.2628628234596970 [Eh]
	 Opposite-Spin Energy      =      -0.9105222453874358 [Eh]
	 Correlation Energy        =      -1.1733850688471328 [Eh]
	 Total Energy              =    -250.2809595038905002 [Eh]

	 ================> DF-SCS-MP2 Energies <==================
	-----------------------------------------------------------
	 SCS Same-Spin Scale       =       0.3333333333333333 [-]
	 SCS Opposite-Spin Scale   =       1.2000000000000000 [-]
	 SCS Same-Spin Energy      =      -0.0876209411532323 [Eh]
	 SCS Opposite-Spin Energy  =      -1.0926266944649228 [Eh]
	 SCS Correlation Energy    =      -1.1802476356181550 [Eh]
	 SCS Total Energy          =    -250.2878220706615195 [Eh]
	-----------------------------------------------------------

  Dipole Moment: [D]
     X:     3.8251      Y:    -1.1680      Z:     0.5554     Total:     4.0378

*** Psi4 exiting successfully. Buy a developer a beer!
