                               Psi4 1.4a3.dev225

  ==> Input File <==

--------------------------------------------------------------------------
#psi4
#
memory 32 gb

molecule  {
0 1
  N       -2.7513610     0.1438680    -0.1944680
  C        0.7647750     0.0263420    -0.3418330
  C       -0.3397190    -0.8197720     0.3150330
  C        0.7287660     1.4657710     0.1638370
  C        2.1226780    -0.6220260    -0.0827390
  C       -1.6817970    -0.2974810     0.0424840
  H        0.5782550     0.0304320    -1.4233270
  H       -0.2896400    -1.8551110    -0.0410840
  H       -0.1876540    -0.8451710     1.4012950
  H        0.9032250     1.4956430     1.2452160
  H        1.5086800     2.0616750    -0.3191730
  H       -0.2358010     1.9387980    -0.0403200
  H        2.3322026    -0.6503414     0.9717643
  H        2.9204480    -0.0525400    -0.5681780
  H        2.1576980    -1.6469370    -0.4652230
units angstrom
no_reorient  #important for SAPT in psi4, default
symmetry c1  #important for SAPT in psi4, default
}

set PROPERTIES_ORIGIN ["COM"]
properties('MP2/aug-cc-pvtz', properties = ['dipole'])
--------------------------------------------------------------------------

    Molecular point group: c1
  Charge       = 0
  Multiplicity = 1
  Basis Set: AUG-CC-PVTZ
    Blend: AUG-CC-PVTZ
  Basis Set: (AUG-CC-PVTZ AUX)
    Blend: AUG-CC-PVTZ-JKFIT

    Orbital Energies [Eh]
    ---------------------

    Doubly Occupied:

       1A    -15.574364     2A    -11.281801     3A    -11.280536
       4A    -11.257284     5A    -11.231262     6A    -11.226760
       7A     -1.205764     8A     -1.120108     9A     -0.996342
      10A     -0.949947    11A     -0.807626    12A     -0.707320
      13A     -0.661970    14A     -0.624286    15A     -0.596004
      16A     -0.568122    17A     -0.555405    18A     -0.542692
      19A     -0.512563    20A     -0.495817    21A     -0.492389
      22A     -0.447900    23A     -0.443885

  @DF-RHF Final Energy:  -249.11407792036971

   => Energetics <=

    Nuclear Repulsion Energy =            220.2478865287631606
    One-Electron Energy =                -771.5636373662122196
    Two-Electron Energy =                 302.2016729170793496
    Total Energy =                       -249.1140779203697093
  Basis Set: (AUG-CC-PVTZ AUX)
    Blend: AUG-CC-PVTZ-RI
    Molecular point group: c1

    Geometry (in Angstrom), charge = 0, multiplicity = 1:

       Center              X                  Y                   Z               Mass
    ------------   -----------------  -----------------  -----------------  -----------------
         N           -2.635465343094     0.149540349610    -0.184900076593    14.003074004430
         C            0.880670656906     0.032014349610    -0.332265076593    12.000000000000
         C           -0.223823343094    -0.814099650390     0.324600923407    12.000000000000
         C            0.844661656906     1.471443349610     0.173404923407    12.000000000000
         C            2.238573656906    -0.616353650390    -0.073171076593    12.000000000000
         C           -1.565901343094    -0.291808650390     0.052051923407    12.000000000000
         H            0.694150656906     0.036104349610    -1.413759076593     1.007825032230
         H           -0.173744343094    -1.849438650390    -0.031516076593     1.007825032230
         H           -0.071758343094    -0.839498650390     1.410862923407     1.007825032230
         H            1.019120656906     1.501315349610     1.254783923407     1.007825032230
         H            1.624575656906     2.067347349610    -0.309605076593     1.007825032230
         H           -0.119905343094     1.944470349610    -0.030752076593     1.007825032230
         H            2.448098256906    -0.644669050390     0.981332223407     1.007825032230
         H            3.036343656906    -0.046867650390    -0.558610076593     1.007825032230
         H            2.273593656906    -1.641264650390    -0.455655076593     1.007825032230

  Basis Set: AUG-CC-PVTZ
    Blend: AUG-CC-PVTZ
  Basis Set: (AUG-CC-PVTZ AUX)
    Blend: AUG-CC-PVTZ-JKFIT
	 Reference Energy          =    -249.1140779203697093 [Eh]
	 Singles Energy            =      -0.0000000000000000 [Eh]
	 Same-Spin Energy          =      -0.2628718775669343 [Eh]
	 Opposite-Spin Energy      =      -0.9096868356685421 [Eh]
	 Correlation Energy        =      -1.1725587132354764 [Eh]
	 Total Energy              =    -250.2866366336051840 [Eh]

	 ================> DF-SCS-MP2 Energies <==================
	-----------------------------------------------------------
	 SCS Same-Spin Scale       =       0.3333333333333333 [-]
	 SCS Opposite-Spin Scale   =       1.2000000000000000 [-]
	 SCS Same-Spin Energy      =      -0.0876239591889781 [Eh]
	 SCS Opposite-Spin Energy  =      -1.0916242028022505 [Eh]
	 SCS Correlation Energy    =      -1.1792481619912285 [Eh]
	 SCS Total Energy          =    -250.2933260823609487 [Eh]
	-----------------------------------------------------------

  Dipole Moment: [D]
     X:     3.8809      Y:    -1.1184      Z:     0.5457     Total:     4.0756

*** Psi4 exiting successfully. Buy a developer a beer!
