                               Psi4 1.4a3.dev225

  ==> Input File <==

--------------------------------------------------------------------------
#psi4
#
memory 32 gb

molecule  {
0 1
  N       -2.7513610     0.1438680    -0.1944680
  C        0.7647750     0.0263420    -0.3418330
  C       -0.3397190    -0.8197720     0.3150330
  C        0.7287660     1.4657710     0.1638370
  C        2.1226780    -0.6220260    -0.0827390
  C       -1.6817970    -0.2974810     0.0424840
  H        0.5782550     0.0304320    -1.4233270
  H       -0.2716970    -1.8854395     0.0680921
  H       -0.1876540    -0.8451710     1.4012950
  H        0.9032250     1.4956430     1.2452160
  H        1.5086800     2.0616750    -0.3191730
  H       -0.2358010     1.9387980    -0.0403200
  H        2.3360990    -0.6508680     0.9913740
  H        2.9204480    -0.0525400    -0.5681780
  H        2.1576980    -1.6469370    -0.4652230
units angstrom
no_reorient  #important for SAPT in psi4, default
symmetry c1  #important for SAPT in psi4, default
}

set PROPERTIES_ORIGIN ["COM"]
properties('MP2/aug-cc-pvtz', properties = ['dipole'])
--------------------------------------------------------------------------

    Molecular point group: c1
  Charge       = 0
  Multiplicity = 1
  Basis Set: AUG-CC-PVTZ
    Blend: AUG-CC-PVTZ
  Basis Set: (AUG-CC-PVTZ AUX)
    Blend: AUG-CC-PVTZ-JKFIT

    Orbital Energies [Eh]
    ---------------------

    Doubly Occupied:

       1A    -15.574905     2A    -11.281814     3A    -11.281046
       4A    -11.257910     5A    -11.233699     6A    -11.227057
       7A     -1.206014     8A     -1.119599     9A     -0.995895
      10A     -0.948998    11A     -0.807360    12A     -0.711278
      13A     -0.659009    14A     -0.625013    15A     -0.591886
      16A     -0.566046    17A     -0.554435    18A     -0.543457
      19A     -0.513265    20A     -0.496285    21A     -0.491331
      22A     -0.446888    23A     -0.445141

  @DF-RHF Final Energy:  -249.11264012241912

   => Energetics <=

    Nuclear Repulsion Energy =            220.1045554447944141
    One-Electron Energy =                -771.2777263288437553
    Two-Electron Energy =                 302.0605307616302184
    Total Energy =                       -249.1126401224191227
  Basis Set: (AUG-CC-PVTZ AUX)
    Blend: AUG-CC-PVTZ-RI
    Molecular point group: c1

    Geometry (in Angstrom), charge = 0, multiplicity = 1:

       Center              X                  Y                   Z               Mass
    ------------   -----------------  -----------------  -----------------  -----------------
         N           -2.635730292737     0.149914675266    -0.186462470788    14.003074004430
         C            0.880405707263     0.032388675266    -0.333827470788    12.000000000000
         C           -0.224088292737    -0.813725324734     0.323038529212    12.000000000000
         C            0.844396707263     1.471817675266     0.171842529212    12.000000000000
         C            2.238308707263    -0.615979324734    -0.074733470788    12.000000000000
         C           -1.566166292737    -0.291434324734     0.050489529212    12.000000000000
         H            0.693885707263     0.036478675266    -1.415321470788     1.007825032230
         H           -0.156066292737    -1.879392824734     0.076097629212     1.007825032230
         H           -0.072023292737    -0.839124324734     1.409300529212     1.007825032230
         H            1.018855707263     1.501689675266     1.253221529212     1.007825032230
         H            1.624310707263     2.067721675266    -0.311167470788     1.007825032230
         H           -0.120170292737     1.944844675266    -0.032314470788     1.007825032230
         H            2.451729707263    -0.644821324734     0.999379529212     1.007825032230
         H            3.036078707263    -0.046493324734    -0.560172470788     1.007825032230
         H            2.273328707263    -1.640890324734    -0.457217470788     1.007825032230

  Basis Set: AUG-CC-PVTZ
    Blend: AUG-CC-PVTZ
  Basis Set: (AUG-CC-PVTZ AUX)
    Blend: AUG-CC-PVTZ-JKFIT
	 Reference Energy          =    -249.1126401224191227 [Eh]
	 Singles Energy            =      -0.0000000000000000 [Eh]
	 Same-Spin Energy          =      -0.2629459899558133 [Eh]
	 Opposite-Spin Energy      =      -0.9098900415238232 [Eh]
	 Correlation Energy        =      -1.1728360314796364 [Eh]
	 Total Energy              =    -250.2854761538987702 [Eh]

	 ================> DF-SCS-MP2 Energies <==================
	-----------------------------------------------------------
	 SCS Same-Spin Scale       =       0.3333333333333333 [-]
	 SCS Opposite-Spin Scale   =       1.2000000000000000 [-]
	 SCS Same-Spin Energy      =      -0.0876486633186044 [Eh]
	 SCS Opposite-Spin Energy  =      -1.0918680498285878 [Eh]
	 SCS Correlation Energy    =      -1.1795167131471922 [Eh]
	 SCS Total Energy          =    -250.2921568355663169 [Eh]
	-----------------------------------------------------------

  Dipole Moment: [D]
     X:     3.8755      Y:    -1.1316      Z:     0.5763     Total:     4.0783

*** Psi4 exiting successfully. Buy a developer a beer!
