                               Psi4 1.4a3.dev225

  ==> Input File <==

--------------------------------------------------------------------------
#psi4
#
memory 32 gb

molecule  {
0 1
  N       -2.7513610     0.1438680    -0.1944680
  C        0.7647750     0.0263420    -0.3418330
  C       -0.3397190    -0.8197720     0.3150330
  C        0.7287660     1.4657710     0.1638370
  C        2.1226780    -0.6220260    -0.0827390
  C       -1.6817970    -0.2974810     0.0424840
  H        0.5782550     0.0304320    -1.4233270
  H       -0.2896400    -1.8551110    -0.0410840
  H       -0.1876540    -0.8451710     1.4012950
  H        0.9032250     1.4956430     1.2452160
  H        1.5086800     2.0616750    -0.3191730
  H       -0.3240071     1.9820546    -0.0589894
  H        2.3360990    -0.6508680     0.9913740
  H        2.9204480    -0.0525400    -0.5681780
  H        2.1576980    -1.6469370    -0.4652230
units angstrom
no_reorient  #important for SAPT in psi4, default
symmetry c1  #important for SAPT in psi4, default
}

set PROPERTIES_ORIGIN ["COM"]
properties('MP2/aug-cc-pvtz', properties = ['dipole'])
--------------------------------------------------------------------------

    Molecular point group: c1
  Charge       = 0
  Multiplicity = 1
  Basis Set: AUG-CC-PVTZ
    Blend: AUG-CC-PVTZ
  Basis Set: (AUG-CC-PVTZ AUX)
    Blend: AUG-CC-PVTZ-JKFIT

    Orbital Energies [Eh]
    ---------------------

    Doubly Occupied:

       1A    -15.573922     2A    -11.281922     3A    -11.280329
       4A    -11.258487     5A    -11.238011     6A    -11.234718
       7A     -1.205416     8A     -1.119662     9A     -0.995494
      10A     -0.943397    11A     -0.805295    12A     -0.707512
      13A     -0.661261    14A     -0.619488    15A     -0.592501
      16A     -0.566983    17A     -0.553793    18A     -0.540748
      19A     -0.512050    20A     -0.493772    21A     -0.487003
      22A     -0.447218    23A     -0.443520

  @DF-RHF Final Energy:  -249.10740183881359

   => Energetics <=

    Nuclear Repulsion Energy =            219.8106217048357678
    One-Electron Energy =                -770.7110415082805730
    Two-Electron Energy =                 301.7930179646312467
    Total Energy =                       -249.1074018388135869
  Basis Set: (AUG-CC-PVTZ AUX)
    Blend: AUG-CC-PVTZ-RI
    Molecular point group: c1

    Geometry (in Angstrom), charge = 0, multiplicity = 1:

       Center              X                  Y                   Z               Mass
    ------------   -----------------  -----------------  -----------------  -----------------
         N           -2.634442520812     0.149021960906    -0.184911484056    14.003074004430
         C            0.881693479188     0.031495960906    -0.332276484056    12.000000000000
         C           -0.222800520812    -0.814618039094     0.324589515944    12.000000000000
         C            0.845684479188     1.470924960906     0.173393515944    12.000000000000
         C            2.239596479188    -0.616872039094    -0.073182484056    12.000000000000
         C           -1.564878520812    -0.292327039094     0.052040515944    12.000000000000
         H            0.695173479188     0.035585960906    -1.413770484056     1.007825032230
         H           -0.172721520812    -1.849957039094    -0.031527484056     1.007825032230
         H           -0.070735520812    -0.840017039094     1.410851515944     1.007825032230
         H            1.020143479188     1.500796960906     1.254772515944     1.007825032230
         H            1.625598479188     2.066828960906    -0.309616484056     1.007825032230
         H           -0.207088620812     1.987208560906    -0.049432884056     1.007825032230
         H            2.453017479188    -0.645714039094     1.000930515944     1.007825032230
         H            3.037366479188    -0.047386039094    -0.558621484056     1.007825032230
         H            2.274616479188    -1.641783039094    -0.455666484056     1.007825032230

  Basis Set: AUG-CC-PVTZ
    Blend: AUG-CC-PVTZ
  Basis Set: (AUG-CC-PVTZ AUX)
    Blend: AUG-CC-PVTZ-JKFIT
	 Reference Energy          =    -249.1074018388135869 [Eh]
	 Singles Energy            =      -0.0000000000000000 [Eh]
	 Same-Spin Energy          =      -0.2629724069279509 [Eh]
	 Opposite-Spin Energy      =      -0.9106357807454606 [Eh]
	 Correlation Energy        =      -1.1736081876734115 [Eh]
	 Total Energy              =    -250.2810100264869959 [Eh]

	 ================> DF-SCS-MP2 Energies <==================
	-----------------------------------------------------------
	 SCS Same-Spin Scale       =       0.3333333333333333 [-]
	 SCS Opposite-Spin Scale   =       1.2000000000000000 [-]
	 SCS Same-Spin Energy      =      -0.0876574689759836 [Eh]
	 SCS Opposite-Spin Energy  =      -1.0927629368945526 [Eh]
	 SCS Correlation Energy    =      -1.1804204058705363 [Eh]
	 SCS Total Energy          =    -250.2878222446841221 [Eh]
	-----------------------------------------------------------

  Dipole Moment: [D]
     X:     3.9172      Y:    -1.1543      Z:     0.5378     Total:     4.1190

*** Psi4 exiting successfully. Buy a developer a beer!
