                               Psi4 1.4a3.dev225

  ==> Input File <==

--------------------------------------------------------------------------
#psi4
#
memory 32 gb

molecule  {
0 1
  N       -2.7513610     0.1438680    -0.1944680
  C        0.7647750     0.0263420    -0.3418330
  C       -0.3397190    -0.8197720     0.3150330
  C        0.7287660     1.4657710     0.1638370
  C        2.1226780    -0.6220260    -0.0827390
  C       -1.6817970    -0.2974810     0.0424840
  H        0.5782550     0.0304320    -1.4233270
  H       -0.3081317    -1.8134391    -0.1463584
  H       -0.1876540    -0.8451710     1.4012950
  H        0.9032250     1.4956430     1.2452160
  H        1.5086800     2.0616750    -0.3191730
  H       -0.2358010     1.9387980    -0.0403200
  H        2.3360990    -0.6508680     0.9913740
  H        2.9204480    -0.0525400    -0.5681780
  H        2.1576980    -1.6469370    -0.4652230
units angstrom
no_reorient  #important for SAPT in psi4, default
symmetry c1  #important for SAPT in psi4, default
}

set PROPERTIES_ORIGIN ["COM"]
properties('MP2/aug-cc-pvtz', properties = ['dipole'])
--------------------------------------------------------------------------

    Molecular point group: c1
  Charge       = 0
  Multiplicity = 1
  Basis Set: AUG-CC-PVTZ
    Blend: AUG-CC-PVTZ
  Basis Set: (AUG-CC-PVTZ AUX)
    Blend: AUG-CC-PVTZ-JKFIT

    Orbital Energies [Eh]
    ---------------------

    Doubly Occupied:

       1A    -15.573736     2A    -11.282113     3A    -11.279881
       4A    -11.257265     5A    -11.233878     6A    -11.226462
       7A     -1.205535     8A     -1.120510     9A     -0.996303
      10A     -0.948912    11A     -0.806564    12A     -0.704670
      13A     -0.664159    14A     -0.623269    15A     -0.599090
      16A     -0.567908    17A     -0.553723    18A     -0.541526
      19A     -0.511767    20A     -0.495704    21A     -0.492277
      22A     -0.448722    23A     -0.442136

  @DF-RHF Final Energy:  -249.11296106999038

   => Energetics <=

    Nuclear Repulsion Energy =            220.2410084488055020
    One-Electron Energy =                -771.5557211749605813
    Two-Electron Energy =                 302.2017516561647312
    Total Energy =                       -249.1129610699903765
  Basis Set: (AUG-CC-PVTZ AUX)
    Blend: AUG-CC-PVTZ-RI
    Molecular point group: c1

    Geometry (in Angstrom), charge = 0, multiplicity = 1:

       Center              X                  Y                   Z               Mass
    ------------   -----------------  -----------------  -----------------  -----------------
         N           -2.635288276895     0.149041186054    -0.183860815821    14.003074004430
         C            0.880847723105     0.031515186054    -0.331225815821    12.000000000000
         C           -0.223646276895    -0.814598813946     0.325640184179    12.000000000000
         C            0.844838723105     1.470944186054     0.174444184179    12.000000000000
         C            2.238750723105    -0.616852813946    -0.072131815821    12.000000000000
         C           -1.565724276895    -0.292307813946     0.053091184179    12.000000000000
         H            0.694327723105     0.035605186054    -1.412719815821     1.007825032230
         H           -0.192058976895    -1.808265913946    -0.135751215821     1.007825032230
         H           -0.071581276895    -0.839997813946     1.411902184179     1.007825032230
         H            1.019297723105     1.500816186054     1.255823184179     1.007825032230
         H            1.624752723105     2.066848186054    -0.308565815821     1.007825032230
         H           -0.119728276895     1.943971186054    -0.029712815821     1.007825032230
         H            2.452171723105    -0.645694813946     1.001981184179     1.007825032230
         H            3.036520723105    -0.047366813946    -0.557570815821     1.007825032230
         H            2.273770723105    -1.641763813946    -0.454615815821     1.007825032230

  Basis Set: AUG-CC-PVTZ
    Blend: AUG-CC-PVTZ
  Basis Set: (AUG-CC-PVTZ AUX)
    Blend: AUG-CC-PVTZ-JKFIT
	 Reference Energy          =    -249.1129610699903765 [Eh]
	 Singles Energy            =      -0.0000000000000000 [Eh]
	 Same-Spin Energy          =      -0.2629182011745718 [Eh]
	 Opposite-Spin Energy      =      -0.9099086424794438 [Eh]
	 Correlation Energy        =      -1.1728268436540157 [Eh]
	 Total Energy              =    -250.2857879136443842 [Eh]

	 ================> DF-SCS-MP2 Energies <==================
	-----------------------------------------------------------
	 SCS Same-Spin Scale       =       0.3333333333333333 [-]
	 SCS Opposite-Spin Scale   =       1.2000000000000000 [-]
	 SCS Same-Spin Energy      =      -0.0876394003915239 [Eh]
	 SCS Opposite-Spin Energy  =      -1.0918903709753325 [Eh]
	 SCS Correlation Energy    =      -1.1795297713668564 [Eh]
	 SCS Total Energy          =    -250.2924908413572211 [Eh]
	-----------------------------------------------------------

  Dipole Moment: [D]
     X:     3.8830      Y:    -1.0999      Z:     0.5009     Total:     4.0667

*** Psi4 exiting successfully. Buy a developer a beer!
