                               Psi4 1.4a3.dev225

  ==> Input File <==

--------------------------------------------------------------------------
#psi4
#
memory 32 gb

molecule  {
0 1
  N       -2.7513610     0.1438680    -0.1944680
  C        0.7647750     0.0263420    -0.3418330
  C       -0.3397190    -0.8197720     0.3150330
  C        0.7287660     1.4657710     0.1638370
  C        2.1226780    -0.6220260    -0.0827390
  C       -1.6817970    -0.2974810     0.0424840
  H        0.5952505     0.0300593    -1.3247825
  H       -0.2896400    -1.8551110    -0.0410840
  H       -0.1876540    -0.8451710     1.4012950
  H        0.9032250     1.4956430     1.2452160
  H        1.5086800     2.0616750    -0.3191730
  H       -0.2358010     1.9387980    -0.0403200
  H        2.3360990    -0.6508680     0.9913740
  H        2.9204480    -0.0525400    -0.5681780
  H        2.1576980    -1.6469370    -0.4652230
units angstrom
no_reorient  #important for SAPT in psi4, default
symmetry c1  #important for SAPT in psi4, default
}

set PROPERTIES_ORIGIN ["COM"]
properties('MP2/aug-cc-pvtz', properties = ['dipole'])
--------------------------------------------------------------------------

    Molecular point group: c1
  Charge       = 0
  Multiplicity = 1
  Basis Set: AUG-CC-PVTZ
    Blend: AUG-CC-PVTZ
  Basis Set: (AUG-CC-PVTZ AUX)
    Blend: AUG-CC-PVTZ-JKFIT

    Orbital Energies [Eh]
    ---------------------

    Doubly Occupied:

       1A    -15.574341     2A    -11.281139     3A    -11.280341
       4A    -11.244984     5A    -11.232970     6A    -11.225941
       7A     -1.205892     8A     -1.123644     9A     -0.996004
      10A     -0.948322    11A     -0.820945    12A     -0.710048
      13A     -0.663052    14A     -0.623849    15A     -0.596790
      16A     -0.566951    17A     -0.553718    18A     -0.542394
      19A     -0.513418    20A     -0.501846    21A     -0.495072
      22A     -0.447907    23A     -0.443699

  @DF-RHF Final Energy:  -249.10838697803814

   => Energetics <=

    Nuclear Repulsion Energy =            220.6686851423122846
    One-Electron Energy =                -772.3676118249849196
    Two-Electron Energy =                 302.5905397046345229
    Total Energy =                       -249.1083869780381406
  Basis Set: (AUG-CC-PVTZ AUX)
    Blend: AUG-CC-PVTZ-RI
    Molecular point group: c1

    Geometry (in Angstrom), charge = 0, multiplicity = 1:

       Center              X                  Y                   Z               Mass
    ------------   -----------------  -----------------  -----------------  -----------------
         N           -2.635718797925     0.149551259672    -0.186333491117    14.003074004430
         C            0.880417202075     0.032025259672    -0.333698491117    12.000000000000
         C           -0.224076797925    -0.814088740328     0.323167508883    12.000000000000
         C            0.844408202075     1.471454259672     0.171971508883    12.000000000000
         C            2.238320202075    -0.616342740328    -0.074604491117    12.000000000000
         C           -1.566154797925    -0.291797740328     0.050618508883    12.000000000000
         H            0.710892702075     0.035742559672    -1.316647991117     1.007825032230
         H           -0.173997797925    -1.849427740328    -0.032949491117     1.007825032230
         H           -0.072011797925    -0.839487740328     1.409429508883     1.007825032230
         H            1.018867202075     1.501326259672     1.253350508883     1.007825032230
         H            1.624322202075     2.067358259672    -0.311038491117     1.007825032230
         H           -0.120158797925     1.944481259672    -0.032185491117     1.007825032230
         H            2.451741202075    -0.645184740328     0.999508508883     1.007825032230
         H            3.036090202075    -0.046856740328    -0.560043491117     1.007825032230
         H            2.273340202075    -1.641253740328    -0.457088491117     1.007825032230

  Basis Set: AUG-CC-PVTZ
    Blend: AUG-CC-PVTZ
  Basis Set: (AUG-CC-PVTZ AUX)
    Blend: AUG-CC-PVTZ-JKFIT
	 Reference Energy          =    -249.1083869780381406 [Eh]
	 Singles Energy            =      -0.0000000000000000 [Eh]
	 Same-Spin Energy          =      -0.2628383823120847 [Eh]
	 Opposite-Spin Energy      =      -0.9092881828805388 [Eh]
	 Correlation Energy        =      -1.1721265651926234 [Eh]
	 Total Energy              =    -250.2805135432307679 [Eh]

	 ================> DF-SCS-MP2 Energies <==================
	-----------------------------------------------------------
	 SCS Same-Spin Scale       =       0.3333333333333333 [-]
	 SCS Opposite-Spin Scale   =       1.2000000000000000 [-]
	 SCS Same-Spin Energy      =      -0.0876127941040282 [Eh]
	 SCS Opposite-Spin Energy  =      -1.0911458194566466 [Eh]
	 SCS Correlation Energy    =      -1.1787586135606747 [Eh]
	 SCS Total Energy          =    -250.2871455915988292 [Eh]
	-----------------------------------------------------------

  Dipole Moment: [D]
     X:     3.8679      Y:    -1.1205      Z:     0.4884     Total:     4.0565

*** Psi4 exiting successfully. Buy a developer a beer!
