                               Psi4 1.4a3.dev225

  ==> Input File <==

--------------------------------------------------------------------------
#psi4
#
memory 32 gb

molecule  {
0 1
  N       -2.7513610     0.1438680    -0.1944680
  C        0.7647750     0.0263420    -0.3418330
  C       -0.3397190    -0.8197720     0.3150330
  C        0.7287660     1.4657710     0.1638370
  C        2.1226780    -0.6220260    -0.0827390
  C       -1.6817970    -0.2974810     0.0424840
  H        0.5782550     0.0304320    -1.4233270
  H       -0.2896400    -1.8551110    -0.0410840
  H       -0.1876540    -0.8451710     1.4012950
  H        0.9032250     1.4956430     1.2452160
  H        1.4944210     2.0507802    -0.3103422
  H       -0.2358010     1.9387980    -0.0403200
  H        2.3360990    -0.6508680     0.9913740
  H        2.9204480    -0.0525400    -0.5681780
  H        2.1576980    -1.6469370    -0.4652230
units angstrom
no_reorient  #important for SAPT in psi4, default
symmetry c1  #important for SAPT in psi4, default
}

set PROPERTIES_ORIGIN ["COM"]
properties('MP2/aug-cc-pvtz', properties = ['dipole'])
--------------------------------------------------------------------------

    Molecular point group: c1
  Charge       = 0
  Multiplicity = 1
  Basis Set: AUG-CC-PVTZ
    Blend: AUG-CC-PVTZ
  Basis Set: (AUG-CC-PVTZ AUX)
    Blend: AUG-CC-PVTZ-JKFIT

    Orbital Energies [Eh]
    ---------------------

    Doubly Occupied:

       1A    -15.574263     2A    -11.281651     3A    -11.280435
       4A    -11.257341     5A    -11.233761     6A    -11.224321
       7A     -1.205667     8A     -1.120015     9A     -0.996274
      10A     -0.950095    11A     -0.807371    12A     -0.707223
      13A     -0.662421    14A     -0.624667    15A     -0.595388
      16A     -0.567228    17A     -0.554396    18A     -0.543945
      19A     -0.513801    20A     -0.495837    21A     -0.491665
      22A     -0.447801    23A     -0.443882

  @DF-RHF Final Energy:  -249.11409609975004

   => Energetics <=

    Nuclear Repulsion Energy =            220.2537582317730198
    One-Electron Energy =                -771.5768114519238452
    Two-Electron Energy =                 302.2089571204007257
    Total Energy =                       -249.1140960997500429
  Basis Set: (AUG-CC-PVTZ AUX)
    Blend: AUG-CC-PVTZ-RI
    Molecular point group: c1

    Geometry (in Angstrom), charge = 0, multiplicity = 1:

       Center              X                  Y                   Z               Mass
    ------------   -----------------  -----------------  -----------------  -----------------
         N           -2.635339626857     0.149678910919    -0.185245108981    14.003074004430
         C            0.880796373143     0.032152910919    -0.332610108981    12.000000000000
         C           -0.223697626857    -0.813961089081     0.324255891019    12.000000000000
         C            0.844787373143     1.471581910919     0.173059891019    12.000000000000
         C            2.238699373143    -0.616215089081    -0.073516108981    12.000000000000
         C           -1.565775626857    -0.291670089081     0.051706891019    12.000000000000
         H            0.694276373143     0.036242910919    -1.414104108981     1.007825032230
         H           -0.173618626857    -1.849300089081    -0.031861108981     1.007825032230
         H           -0.071632626857    -0.839360089081     1.410517891019     1.007825032230
         H            1.019246373143     1.501453910919     1.254438891019     1.007825032230
         H            1.610442373143     2.056591110919    -0.301119308981     1.007825032230
         H           -0.119779626857     1.944608910919    -0.031097108981     1.007825032230
         H            2.452120373143    -0.645057089081     1.000596891019     1.007825032230
         H            3.036469373143    -0.046729089081    -0.558955108981     1.007825032230
         H            2.273719373143    -1.641126089081    -0.456000108981     1.007825032230

  Basis Set: AUG-CC-PVTZ
    Blend: AUG-CC-PVTZ
  Basis Set: (AUG-CC-PVTZ AUX)
    Blend: AUG-CC-PVTZ-JKFIT
	 Reference Energy          =    -249.1140960997500429 [Eh]
	 Singles Energy            =      -0.0000000000000000 [Eh]
	 Same-Spin Energy          =      -0.2628723409230003 [Eh]
	 Opposite-Spin Energy      =      -0.9096777846977824 [Eh]
	 Correlation Energy        =      -1.1725501256207826 [Eh]
	 Total Energy              =    -250.2866462253708164 [Eh]

	 ================> DF-SCS-MP2 Energies <==================
	-----------------------------------------------------------
	 SCS Same-Spin Scale       =       0.3333333333333333 [-]
	 SCS Opposite-Spin Scale   =       1.2000000000000000 [-]
	 SCS Same-Spin Energy      =      -0.0876241136410001 [Eh]
	 SCS Opposite-Spin Energy  =      -1.0916133416373388 [Eh]
	 SCS Correlation Energy    =      -1.1792374552783389 [Eh]
	 SCS Total Energy          =    -250.2933335550283687 [Eh]
	-----------------------------------------------------------

  Dipole Moment: [D]
     X:     3.8855      Y:    -1.1080      Z:     0.5314     Total:     4.0752

*** Psi4 exiting successfully. Buy a developer a beer!
