                               Psi4 1.4a3.dev225

  ==> Input File <==

--------------------------------------------------------------------------
#psi4
#
memory 32 gb

molecule  {
0 1
  N       -2.7513610     0.1438680    -0.1944680
  C        0.7647750     0.0263420    -0.3418330
  C       -0.3397190    -0.8197720     0.3150330
  C        0.7334851     1.2771284     0.0975670
  C        2.1226780    -0.6220260    -0.0827390
  C       -1.6817970    -0.2974810     0.0424840
  H        0.5782550     0.0304320    -1.4233270
  H       -0.2896400    -1.8551110    -0.0410840
  H       -0.1876540    -0.8451710     1.4012950
  H        0.9032250     1.4956430     1.2452160
  H        1.5086800     2.0616750    -0.3191730
  H       -0.2358010     1.9387980    -0.0403200
  H        2.3360990    -0.6508680     0.9913740
  H        2.9204480    -0.0525400    -0.5681780
  H        2.1576980    -1.6469370    -0.4652230
units angstrom
no_reorient  #important for SAPT in psi4, default
symmetry c1  #important for SAPT in psi4, default
}

set PROPERTIES_ORIGIN ["COM"]
properties('MP2/aug-cc-pvtz', properties = ['dipole'])
--------------------------------------------------------------------------

    Molecular point group: c1
  Charge       = 0
  Multiplicity = 1
  Basis Set: AUG-CC-PVTZ
    Blend: AUG-CC-PVTZ
  Basis Set: (AUG-CC-PVTZ AUX)
    Blend: AUG-CC-PVTZ-JKFIT

    Orbital Energies [Eh]
    ---------------------

    Doubly Occupied:

       1A    -15.574847     2A    -11.283404     3A    -11.281043
       4A    -11.248072     5A    -11.239609     6A    -11.235345
       7A     -1.207432     8A     -1.150798     9A     -1.004834
      10A     -0.951718    11A     -0.802402    12A     -0.712569
      13A     -0.674579    14A     -0.635501    15A     -0.597123
      16A     -0.574600    17A     -0.551512    18A     -0.537688
      19A     -0.534625    20A     -0.477040    21A     -0.461148
      22A     -0.447515    23A     -0.440327

  @DF-RHF Final Energy:  -249.06346006652649

   => Energetics <=

    Nuclear Repulsion Energy =            223.1732975786580937
    One-Electron Energy =                -777.2260547603837040
    Two-Electron Energy =                 304.9892971151991219
    Total Energy =                       -249.0634600665264884
  Basis Set: (AUG-CC-PVTZ AUX)
    Blend: AUG-CC-PVTZ-RI
    Molecular point group: c1

    Geometry (in Angstrom), charge = 0, multiplicity = 1:

       Center              X                  Y                   Z               Mass
    ------------   -----------------  -----------------  -----------------  -----------------
         N           -2.636194289027     0.176796236745    -0.175565248278    14.003074004430
         C            0.879941710973     0.059270236745    -0.322930248278    12.000000000000
         C           -0.224552289027    -0.786843763255     0.333935751722    12.000000000000
         C            0.848651810973     1.310056636745     0.116469751722    12.000000000000
         C            2.237844710973    -0.589097763255    -0.063836248278    12.000000000000
         C           -1.566630289027    -0.264552763255     0.061386751722    12.000000000000
         H            0.693421710973     0.063360236745    -1.404424248278     1.007825032230
         H           -0.174473289027    -1.822182763255    -0.022181248278     1.007825032230
         H           -0.072487289027    -0.812242763255     1.420197751722     1.007825032230
         H            1.018391710973     1.528571236745     1.264118751722     1.007825032230
         H            1.623846710973     2.094603236745    -0.300270248278     1.007825032230
         H           -0.120634289027     1.971726236745    -0.021417248278     1.007825032230
         H            2.451265710973    -0.617939763255     1.010276751722     1.007825032230
         H            3.035614710973    -0.019611763255    -0.549275248278     1.007825032230
         H            2.272864710973    -1.614008763255    -0.446320248278     1.007825032230

  Basis Set: AUG-CC-PVTZ
    Blend: AUG-CC-PVTZ
  Basis Set: (AUG-CC-PVTZ AUX)
    Blend: AUG-CC-PVTZ-JKFIT
	 Reference Energy          =    -249.0634600665264884 [Eh]
	 Singles Energy            =      -0.0000000000000000 [Eh]
	 Same-Spin Energy          =      -0.2661511837832576 [Eh]
	 Opposite-Spin Energy      =      -0.9141796429683411 [Eh]
	 Correlation Energy        =      -1.1803308267515988 [Eh]
	 Total Energy              =    -250.2437908932780886 [Eh]

	 ================> DF-SCS-MP2 Energies <==================
	-----------------------------------------------------------
	 SCS Same-Spin Scale       =       0.3333333333333333 [-]
	 SCS Opposite-Spin Scale   =       1.2000000000000000 [-]
	 SCS Same-Spin Energy      =      -0.0887170612610859 [Eh]
	 SCS Opposite-Spin Energy  =      -1.0970155715620094 [Eh]
	 SCS Correlation Energy    =      -1.1857326328230953 [Eh]
	 SCS Total Energy          =    -250.2491926993495781 [Eh]
	-----------------------------------------------------------

  Dipole Moment: [D]
     X:     3.8540      Y:    -1.1419      Z:     0.5026     Total:     4.0509

*** Psi4 exiting successfully. Buy a developer a beer!
