                               Psi4 1.4a3.dev225

  ==> Input File <==

--------------------------------------------------------------------------
#psi4
#
memory 32 gb

molecule  {
0 1
  N       -2.7513610     0.1438680    -0.1944680
  C        0.7647750     0.0263420    -0.3418330
  C       -0.3397190    -0.8197720     0.3150330
  C        0.7287660     1.4657710     0.1638370
  C        2.1226780    -0.6220260    -0.0827390
  C       -1.6817970    -0.2974810     0.0424840
  H        0.5782550     0.0304320    -1.4233270
  H       -0.2896400    -1.8551110    -0.0410840
  H       -0.1876540    -0.8451710     1.4012950
  H        0.9032250     1.4956430     1.2452160
  H        1.5086800     2.0616750    -0.3191730
  H       -0.2358010     1.9387980    -0.0403200
  H        2.3360990    -0.6508680     0.9913740
  H        2.9350351    -0.0421270    -0.5770542
  H        2.1576980    -1.6469370    -0.4652230
units angstrom
no_reorient  #important for SAPT in psi4, default
symmetry c1  #important for SAPT in psi4, default
}

set PROPERTIES_ORIGIN ["COM"]
properties('MP2/aug-cc-pvtz', properties = ['dipole'])
--------------------------------------------------------------------------

    Molecular point group: c1
  Charge       = 0
  Multiplicity = 1
  Basis Set: AUG-CC-PVTZ
    Blend: AUG-CC-PVTZ
  Basis Set: (AUG-CC-PVTZ AUX)
    Blend: AUG-CC-PVTZ-JKFIT

    Orbital Energies [Eh]
    ---------------------

    Doubly Occupied:

       1A    -15.574512     2A    -11.282010     3A    -11.280689
       4A    -11.257712     5A    -11.236185     6A    -11.226792
       7A     -1.205900     8A     -1.119910     9A     -0.995534
      10A     -0.948041    11A     -0.806316    12A     -0.707064
      13A     -0.661842    14A     -0.624056    15A     -0.595296
      16A     -0.566817    17A     -0.553500    18A     -0.541260
      19A     -0.511985    20A     -0.496211    21A     -0.491938
      22A     -0.448038    23A     -0.443925

  @DF-RHF Final Energy:  -249.11355009506855

   => Energetics <=

    Nuclear Repulsion Energy =            220.0831136903380525
    One-Electron Energy =                -771.2422580648171788
    Two-Electron Energy =                 302.0455942794106363
    Total Energy =                       -249.1135500950685469
  Basis Set: (AUG-CC-PVTZ AUX)
    Blend: AUG-CC-PVTZ-RI
    Molecular point group: c1

    Geometry (in Angstrom), charge = 0, multiplicity = 1:

       Center              X                  Y                   Z               Mass
    ------------   -----------------  -----------------  -----------------  -----------------
         N           -2.635689579873     0.149420410502    -0.185030292487    14.003074004430
         C            0.880446420127     0.031894410502    -0.332395292487    12.000000000000
         C           -0.224047579873    -0.814219589498     0.324470707513    12.000000000000
         C            0.844437420127     1.471323410502     0.173274707513    12.000000000000
         C            2.238349420127    -0.616473589498    -0.073301292487    12.000000000000
         C           -1.566125579873    -0.291928589498     0.051921707513    12.000000000000
         H            0.693926420127     0.035984410502    -1.413889292487     1.007825032230
         H           -0.173968579873    -1.849558589498    -0.031646292487     1.007825032230
         H           -0.071982579873    -0.839618589498     1.410732707513     1.007825032230
         H            1.018896420127     1.501195410502     1.254653707513     1.007825032230
         H            1.624351420127     2.067227410502    -0.309735292487     1.007825032230
         H           -0.120129579873     1.944350410502    -0.030882292487     1.007825032230
         H            2.451770420127    -0.645315589498     1.000811707513     1.007825032230
         H            3.050706520127    -0.036574589498    -0.567616492487     1.007825032230
         H            2.273369420127    -1.641384589498    -0.455785292487     1.007825032230

  Basis Set: AUG-CC-PVTZ
    Blend: AUG-CC-PVTZ
  Basis Set: (AUG-CC-PVTZ AUX)
    Blend: AUG-CC-PVTZ-JKFIT
	 Reference Energy          =    -249.1135500950685469 [Eh]
	 Singles Energy            =      -0.0000000000000000 [Eh]
	 Same-Spin Energy          =      -0.2628684316734682 [Eh]
	 Opposite-Spin Energy      =      -0.9099305419452012 [Eh]
	 Correlation Energy        =      -1.1727989736186695 [Eh]
	 Total Energy              =    -250.2863490686872296 [Eh]

	 ================> DF-SCS-MP2 Energies <==================
	-----------------------------------------------------------
	 SCS Same-Spin Scale       =       0.3333333333333333 [-]
	 SCS Opposite-Spin Scale   =       1.2000000000000000 [-]
	 SCS Same-Spin Energy      =      -0.0876228105578227 [Eh]
	 SCS Opposite-Spin Energy  =      -1.0919166503342415 [Eh]
	 SCS Correlation Energy    =      -1.1795394608920642 [Eh]
	 SCS Total Energy          =    -250.2930895559606199 [Eh]
	-----------------------------------------------------------

  Dipole Moment: [D]
     X:     3.8644      Y:    -1.1208      Z:     0.5389     Total:     4.0596

*** Psi4 exiting successfully. Buy a developer a beer!
