                               Psi4 1.4a3.dev225

  ==> Input File <==

--------------------------------------------------------------------------
#psi4
#
memory 32 gb

molecule  {
0 1
  N       -2.7513610     0.1438680    -0.1944680
  C        0.7647750     0.0263420    -0.3418330
  C       -0.3397190    -0.8197720     0.3150330
  C        0.7287660     1.4657710     0.1638370
  C        2.1226780    -0.6220260    -0.0827390
  C       -1.6817970    -0.2974810     0.0424840
  H        0.5612595     0.0308047    -1.5218715
  H       -0.2896400    -1.8551110    -0.0410840
  H       -0.1876540    -0.8451710     1.4012950
  H        0.9032250     1.4956430     1.2452160
  H        1.5086800     2.0616750    -0.3191730
  H       -0.2358010     1.9387980    -0.0403200
  H        2.3360990    -0.6508680     0.9913740
  H        2.9204480    -0.0525400    -0.5681780
  H        2.1576980    -1.6469370    -0.4652230
units angstrom
no_reorient  #important for SAPT in psi4, default
symmetry c1  #important for SAPT in psi4, default
}

set PROPERTIES_ORIGIN ["COM"]
properties('MP2/aug-cc-pvtz', properties = ['dipole'])
--------------------------------------------------------------------------

    Molecular point group: c1
  Charge       = 0
  Multiplicity = 1
  Basis Set: AUG-CC-PVTZ
    Blend: AUG-CC-PVTZ
  Basis Set: (AUG-CC-PVTZ AUX)
    Blend: AUG-CC-PVTZ-JKFIT

    Orbital Energies [Eh]
    ---------------------

    Doubly Occupied:

       1A    -15.574502     2A    -11.282888     3A    -11.280743
       4A    -11.269426     5A    -11.234800     6A    -11.227895
       7A     -1.205784     8A     -1.117809     9A     -0.996281
      10A     -0.949811    11A     -0.796839    12A     -0.704841
      13A     -0.660260    14A     -0.624965    15A     -0.594516
      16A     -0.567635    17A     -0.554503    18A     -0.543159
      19A     -0.512983    20A     -0.497284    21A     -0.479512
      22A     -0.447943    23A     -0.444220

  @DF-RHF Final Energy:  -249.10762506456985

   => Energetics <=

    Nuclear Repulsion Energy =            219.7168037581645592
    One-Electron Energy =                -770.5116552302645232
    Two-Electron Energy =                 301.6872264075300905
    Total Energy =                       -249.1076250645698451
  Basis Set: (AUG-CC-PVTZ AUX)
    Blend: AUG-CC-PVTZ-RI
    Molecular point group: c1

    Geometry (in Angstrom), charge = 0, multiplicity = 1:

       Center              X                  Y                   Z               Mass
    ------------   -----------------  -----------------  -----------------  -----------------
         N           -2.635306428386     0.149542216683    -0.183942461132    14.003074004430
         C            0.880829571614     0.032016216683    -0.331307461132    12.000000000000
         C           -0.223664428386    -0.814097783317     0.325558538868    12.000000000000
         C            0.844820571614     1.471445216683     0.174362538868    12.000000000000
         C            2.238732571614    -0.616351783317    -0.072213461132    12.000000000000
         C           -1.565742428386    -0.291806783317     0.053009538868    12.000000000000
         H            0.677314071614     0.036478916683    -1.511345961132     1.007825032230
         H           -0.173585428386    -1.849436783317    -0.030558461132     1.007825032230
         H           -0.071599428386    -0.839496783317     1.411820538868     1.007825032230
         H            1.019279571614     1.501317216683     1.255741538868     1.007825032230
         H            1.624734571614     2.067349216683    -0.308647461132     1.007825032230
         H           -0.119746428386     1.944472216683    -0.029794461132     1.007825032230
         H            2.452153571614    -0.645193783317     1.001899538868     1.007825032230
         H            3.036502571614    -0.046865783317    -0.557652461132     1.007825032230
         H            2.273752571614    -1.641262783317    -0.454697461132     1.007825032230

  Basis Set: AUG-CC-PVTZ
    Blend: AUG-CC-PVTZ
  Basis Set: (AUG-CC-PVTZ AUX)
    Blend: AUG-CC-PVTZ-JKFIT
	 Reference Energy          =    -249.1076250645698451 [Eh]
	 Singles Energy            =      -0.0000000000000000 [Eh]
	 Same-Spin Energy          =      -0.2629257752530568 [Eh]
	 Opposite-Spin Energy      =      -0.9105740350535895 [Eh]
	 Correlation Energy        =      -1.1734998103066463 [Eh]
	 Total Energy              =    -250.2811248748764967 [Eh]

	 ================> DF-SCS-MP2 Energies <==================
	-----------------------------------------------------------
	 SCS Same-Spin Scale       =       0.3333333333333333 [-]
	 SCS Opposite-Spin Scale   =       1.2000000000000000 [-]
	 SCS Same-Spin Energy      =      -0.0876419250843523 [Eh]
	 SCS Opposite-Spin Energy  =      -1.0926888420643073 [Eh]
	 SCS Correlation Energy    =      -1.1803307671486596 [Eh]
	 SCS Total Energy          =    -250.2879558317185058 [Eh]
	-----------------------------------------------------------

  Dipole Moment: [D]
     X:     3.8876      Y:    -1.1129      Z:     0.6017     Total:     4.0883

*** Psi4 exiting successfully. Buy a developer a beer!
