                               Psi4 1.4a3.dev225

  ==> Input File <==

--------------------------------------------------------------------------
#psi4
#
memory 32 gb

molecule  {
0 1
  N       -2.7513610     0.1438680    -0.1944680
  C        0.7647750     0.0263420    -0.3418330
  C       -0.3397190    -0.8197720     0.3150330
  C        0.7287660     1.4657710     0.1638370
  C        2.1226780    -0.6220260    -0.0827390
  C       -1.6817970    -0.2974810     0.0424840
  H        0.5748559     0.0305065    -1.4430359
  H       -0.2896400    -1.8551110    -0.0410840
  H       -0.1876540    -0.8451710     1.4012950
  H        0.9032250     1.4956430     1.2452160
  H        1.5086800     2.0616750    -0.3191730
  H       -0.2358010     1.9387980    -0.0403200
  H        2.3360990    -0.6508680     0.9913740
  H        2.9204480    -0.0525400    -0.5681780
  H        2.1576980    -1.6469370    -0.4652230
units angstrom
no_reorient  #important for SAPT in psi4, default
symmetry c1  #important for SAPT in psi4, default
}

set PROPERTIES_ORIGIN ["COM"]
properties('MP2/aug-cc-pvtz', properties = ['dipole'])
--------------------------------------------------------------------------

    Molecular point group: c1
  Charge       = 0
  Multiplicity = 1
  Basis Set: AUG-CC-PVTZ
    Blend: AUG-CC-PVTZ
  Basis Set: (AUG-CC-PVTZ AUX)
    Blend: AUG-CC-PVTZ-JKFIT

    Orbital Energies [Eh]
    ---------------------

    Doubly Occupied:

       1A    -15.574410     2A    -11.282014     3A    -11.280596
       4A    -11.259966     5A    -11.233949     6A    -11.226990
       7A     -1.205783     8A     -1.119420     9A     -0.995988
      10A     -0.949105    11A     -0.804546    12A     -0.706831
      13A     -0.661407    14A     -0.624382    15A     -0.595314
      16A     -0.567276    17A     -0.554107    18A     -0.542791
      19A     -0.512617    20A     -0.496245    21A     -0.489478
      22A     -0.447934    23A     -0.443992

  @DF-RHF Final Energy:  -249.11353796376704

   => Energetics <=

    Nuclear Repulsion Energy =            220.0724772876822612
    One-Electron Energy =                -771.2217481779728132
    Two-Electron Energy =                 302.0357329265235649
    Total Energy =                       -249.1135379637670439
  Basis Set: (AUG-CC-PVTZ AUX)
    Blend: AUG-CC-PVTZ-RI
    Molecular point group: c1

    Geometry (in Angstrom), charge = 0, multiplicity = 1:

       Center              X                  Y                   Z               Mass
    ------------   -----------------  -----------------  -----------------  -----------------
         N           -2.635471376201     0.149545834364    -0.184898873126    14.003074004430
         C            0.880664623799     0.032019834364    -0.332263873126    12.000000000000
         C           -0.223829376201    -0.814094165636     0.324602126874    12.000000000000
         C            0.844655623799     1.471448834364     0.173406126874    12.000000000000
         C            2.238567623799    -0.616348165636    -0.073169873126    12.000000000000
         C           -1.565907376201    -0.291803165636     0.052053126874    12.000000000000
         H            0.690745523799     0.036184334364    -1.433466773126     1.007825032230
         H           -0.173750376201    -1.849433165636    -0.031514873126     1.007825032230
         H           -0.071764376201    -0.839493165636     1.410864126874     1.007825032230
         H            1.019114623799     1.501320834364     1.254785126874     1.007825032230
         H            1.624569623799     2.067352834364    -0.309603873126     1.007825032230
         H           -0.119911376201     1.944475834364    -0.030750873126     1.007825032230
         H            2.451988623799    -0.645190165636     1.000943126874     1.007825032230
         H            3.036337623799    -0.046862165636    -0.558608873126     1.007825032230
         H            2.273587623799    -1.641259165636    -0.455653873126     1.007825032230

  Basis Set: AUG-CC-PVTZ
    Blend: AUG-CC-PVTZ
  Basis Set: (AUG-CC-PVTZ AUX)
    Blend: AUG-CC-PVTZ-JKFIT
	 Reference Energy          =    -249.1135379637670439 [Eh]
	 Singles Energy            =      -0.0000000000000000 [Eh]
	 Same-Spin Energy          =      -0.2628798086966672 [Eh]
	 Opposite-Spin Energy      =      -0.9099359812423915 [Eh]
	 Correlation Energy        =      -1.1728157899390588 [Eh]
	 Total Energy              =    -250.2863537537060949 [Eh]

	 ================> DF-SCS-MP2 Energies <==================
	-----------------------------------------------------------
	 SCS Same-Spin Scale       =       0.3333333333333333 [-]
	 SCS Opposite-Spin Scale   =       1.2000000000000000 [-]
	 SCS Same-Spin Energy      =      -0.0876266028988891 [Eh]
	 SCS Opposite-Spin Energy  =      -1.0919231774908698 [Eh]
	 SCS Correlation Energy    =      -1.1795497803897588 [Eh]
	 SCS Total Energy          =    -250.2930877441567930 [Eh]
	-----------------------------------------------------------

  Dipole Moment: [D]
     X:     3.8785      Y:    -1.1161      Z:     0.5466     Total:     4.0728

*** Psi4 exiting successfully. Buy a developer a beer!
