                               Psi4 1.4a3.dev225

  ==> Input File <==

--------------------------------------------------------------------------
#psi4
#
memory 32 gb

molecule  {
0 1
  N       -2.7513610     0.1438680    -0.1944680
  C        0.7647750     0.0263420    -0.3418330
  C       -0.3397190    -0.8197720     0.3150330
  C        0.7287660     1.4657710     0.1638370
  C        2.1226780    -0.6220260    -0.0827390
  C       -1.6817970    -0.2974810     0.0424840
  H        0.5782550     0.0304320    -1.4233270
  H       -0.2926893    -1.8489426    -0.0589324
  H       -0.1876540    -0.8451710     1.4012950
  H        0.9032250     1.4956430     1.2452160
  H        1.5086800     2.0616750    -0.3191730
  H       -0.2358010     1.9387980    -0.0403200
  H        2.3360990    -0.6508680     0.9913740
  H        2.9204480    -0.0525400    -0.5681780
  H        2.1576980    -1.6469370    -0.4652230
units angstrom
no_reorient  #important for SAPT in psi4, default
symmetry c1  #important for SAPT in psi4, default
}

set PROPERTIES_ORIGIN ["COM"]
properties('MP2/aug-cc-pvtz', properties = ['dipole'])
--------------------------------------------------------------------------

    Molecular point group: c1
  Charge       = 0
  Multiplicity = 1
  Basis Set: AUG-CC-PVTZ
    Blend: AUG-CC-PVTZ
  Basis Set: (AUG-CC-PVTZ AUX)
    Blend: AUG-CC-PVTZ-JKFIT

    Orbital Energies [Eh]
    ---------------------

    Doubly Occupied:

       1A    -15.574293     2A    -11.281866     3A    -11.280451
       4A    -11.257471     5A    -11.233777     6A    -11.226738
       7A     -1.205750     8A     -1.120039     9A     -0.995990
      10A     -0.948945    11A     -0.806797    12A     -0.706815
      13A     -0.662133    14A     -0.624117    15A     -0.596146
      16A     -0.567350    17A     -0.553968    18A     -0.542540
      19A     -0.512471    20A     -0.495967    21A     -0.491886
      22A     -0.448088    23A     -0.443666

  @DF-RHF Final Energy:  -249.11406348608355

   => Energetics <=

    Nuclear Repulsion Energy =            220.1777581906179933
    One-Electron Energy =                -771.4291139496150436
    Two-Electron Energy =                 302.1372922729135553
    Total Energy =                       -249.1140634860835235
  Basis Set: (AUG-CC-PVTZ AUX)
    Blend: AUG-CC-PVTZ-RI
    Molecular point group: c1

    Geometry (in Angstrom), charge = 0, multiplicity = 1:

       Center              X                  Y                   Z               Mass
    ------------   -----------------  -----------------  -----------------  -----------------
         N           -2.635475619880     0.149471904831    -0.184921444205    14.003074004430
         C            0.880660380120     0.031945904831    -0.332286444205    12.000000000000
         C           -0.223833619880    -0.814168095169     0.324579555795    12.000000000000
         C            0.844651380120     1.471374904831     0.173383555795    12.000000000000
         C            2.238563380120    -0.616422095169    -0.073192444205    12.000000000000
         C           -1.565911619880    -0.291877095169     0.052030555795    12.000000000000
         H            0.694140380120     0.036035904831    -1.413780444205     1.007825032230
         H           -0.176803919880    -1.843338695169    -0.049385844205     1.007825032230
         H           -0.071768619880    -0.839567095169     1.410841555795     1.007825032230
         H            1.019110380120     1.501246904831     1.254762555795     1.007825032230
         H            1.624565380120     2.067278904831    -0.309626444205     1.007825032230
         H           -0.119915619880     1.944401904831    -0.030773444205     1.007825032230
         H            2.451984380120    -0.645264095169     1.000920555795     1.007825032230
         H            3.036333380120    -0.046936095169    -0.558631444205     1.007825032230
         H            2.273583380120    -1.641333095169    -0.455676444205     1.007825032230

  Basis Set: AUG-CC-PVTZ
    Blend: AUG-CC-PVTZ
  Basis Set: (AUG-CC-PVTZ AUX)
    Blend: AUG-CC-PVTZ-JKFIT
	 Reference Energy          =    -249.1140634860835519 [Eh]
	 Singles Energy            =      -0.0000000000000000 [Eh]
	 Same-Spin Energy          =      -0.2628689931759646 [Eh]
	 Opposite-Spin Energy      =      -0.9098027560991471 [Eh]
	 Correlation Energy        =      -1.1726717492751115 [Eh]
	 Total Energy              =    -250.2867352353586625 [Eh]

	 ================> DF-SCS-MP2 Energies <==================
	-----------------------------------------------------------
	 SCS Same-Spin Scale       =       0.3333333333333333 [-]
	 SCS Opposite-Spin Scale   =       1.2000000000000000 [-]
	 SCS Same-Spin Energy      =      -0.0876229977253215 [Eh]
	 SCS Opposite-Spin Energy  =      -1.0917633073189765 [Eh]
	 SCS Correlation Energy    =      -1.1793863050442981 [Eh]
	 SCS Total Energy          =    -250.2934497911278413 [Eh]
	-----------------------------------------------------------

  Dipole Moment: [D]
     X:     3.8772      Y:    -1.1142      Z:     0.5287     Total:     4.0686

*** Psi4 exiting successfully. Buy a developer a beer!
