                               Psi4 1.4a3.dev225

  ==> Input File <==

--------------------------------------------------------------------------
#psi4
#
memory 32 gb

molecule  {
0 1
  N       -2.7513610     0.1438680    -0.1944680
  C        0.7647750     0.0263420    -0.3418330
  C       -0.3397190    -0.8197720     0.3150330
  C        0.7287660     1.4657710     0.1638370
  C        2.1226780    -0.6220260    -0.0827390
  C       -1.6817970    -0.2974810     0.0424840
  H        0.5867527     0.0302457    -1.3740548
  H       -0.2896400    -1.8551110    -0.0410840
  H       -0.1876540    -0.8451710     1.4012950
  H        0.9032250     1.4956430     1.2452160
  H        1.5086800     2.0616750    -0.3191730
  H       -0.2358010     1.9387980    -0.0403200
  H        2.3360990    -0.6508680     0.9913740
  H        2.9204480    -0.0525400    -0.5681780
  H        2.1576980    -1.6469370    -0.4652230
units angstrom
no_reorient  #important for SAPT in psi4, default
symmetry c1  #important for SAPT in psi4, default
}

set PROPERTIES_ORIGIN ["COM"]
properties('MP2/aug-cc-pvtz', properties = ['dipole'])
--------------------------------------------------------------------------

    Molecular point group: c1
  Charge       = 0
  Multiplicity = 1
  Basis Set: AUG-CC-PVTZ
    Blend: AUG-CC-PVTZ
  Basis Set: (AUG-CC-PVTZ AUX)
    Blend: AUG-CC-PVTZ-JKFIT

    Orbital Energies [Eh]
    ---------------------

    Doubly Occupied:

       1A    -15.574361     2A    -11.281430     3A    -11.280464
       4A    -11.251309     5A    -11.233335     6A    -11.226333
       7A     -1.205830     8A     -1.121586     9A     -0.995927
      10A     -0.948610    11A     -0.813374    12A     -0.708706
      13A     -0.662389    14A     -0.624023    15A     -0.596142
      16A     -0.567058    17A     -0.553852    18A     -0.542538
      19A     -0.512758    20A     -0.497229    21A     -0.495503
      22A     -0.447916    23A     -0.443808

  @DF-RHF Final Energy:  -249.11320548911635

   => Energetics <=

    Nuclear Repulsion Energy =            220.4099856577047660
    One-Electron Energy =                -771.8774213895179628
    Two-Electron Energy =                 302.3542302426968718
    Total Energy =                       -249.1132054891163534
  Basis Set: (AUG-CC-PVTZ AUX)
    Blend: AUG-CC-PVTZ-RI
    Molecular point group: c1

    Geometry (in Angstrom), charge = 0, multiplicity = 1:

       Center              X                  Y                   Z               Mass
    ------------   -----------------  -----------------  -----------------  -----------------
         N           -2.635615704934     0.149548998318    -0.185735733014    14.003074004430
         C            0.880520295066     0.032022998318    -0.333100733014    12.000000000000
         C           -0.223973704934    -0.814091001682     0.323765266986    12.000000000000
         C            0.844511295066     1.471451998318     0.172569266986    12.000000000000
         C            2.238423295066    -0.616345001682    -0.074006733014    12.000000000000
         C           -1.566051704934    -0.291800001682     0.051216266986    12.000000000000
         H            0.702497995066     0.035926698318    -1.365322533014     1.007825032230
         H           -0.173894704934    -1.849430001682    -0.032351733014     1.007825032230
         H           -0.071908704934    -0.839490001682     1.410027266986     1.007825032230
         H            1.018970295066     1.501323998318     1.253948266986     1.007825032230
         H            1.624425295066     2.067355998318    -0.310440733014     1.007825032230
         H           -0.120055704934     1.944478998318    -0.031587733014     1.007825032230
         H            2.451844295066    -0.645187001682     1.000106266986     1.007825032230
         H            3.036193295066    -0.046859001682    -0.559445733014     1.007825032230
         H            2.273443295066    -1.641256001682    -0.456490733014     1.007825032230

  Basis Set: AUG-CC-PVTZ
    Blend: AUG-CC-PVTZ
  Basis Set: (AUG-CC-PVTZ AUX)
    Blend: AUG-CC-PVTZ-JKFIT
	 Reference Energy          =    -249.1132054891163534 [Eh]
	 Singles Energy            =      -0.0000000000000000 [Eh]
	 Same-Spin Energy          =      -0.2628486992850118 [Eh]
	 Opposite-Spin Energy      =      -0.9095012025933698 [Eh]
	 Correlation Energy        =      -1.1723499018783814 [Eh]
	 Total Energy              =    -250.2855553909947446 [Eh]

	 ================> DF-SCS-MP2 Energies <==================
	-----------------------------------------------------------
	 SCS Same-Spin Scale       =       0.3333333333333333 [-]
	 SCS Opposite-Spin Scale   =       1.2000000000000000 [-]
	 SCS Same-Spin Energy      =      -0.0876162330950039 [Eh]
	 SCS Opposite-Spin Energy  =      -1.0914014431120436 [Eh]
	 SCS Correlation Energy    =      -1.1790176762070474 [Eh]
	 SCS Total Energy          =    -250.2922231653234064 [Eh]
	-----------------------------------------------------------

  Dipole Moment: [D]
     X:     3.8719      Y:    -1.1187      Z:     0.5091     Total:     4.0623

*** Psi4 exiting successfully. Buy a developer a beer!
