                               Psi4 1.4a3.dev225

  ==> Input File <==

--------------------------------------------------------------------------
#psi4
#
memory 32 gb

molecule  {
0 1
  N       -2.7513610     0.1438680    -0.1944680
  C        0.7647750     0.0263420    -0.3418330
  C       -0.3397190    -0.8197720     0.3150330
  C        0.7287660     1.4657710     0.1638370
  C        2.1226780    -0.6220260    -0.0827390
  C       -1.6817970    -0.2974810     0.0424840
  H        0.5816541     0.0303575    -1.4036181
  H       -0.2896400    -1.8551110    -0.0410840
  H       -0.1876540    -0.8451710     1.4012950
  H        0.9032250     1.4956430     1.2452160
  H        1.5086800     2.0616750    -0.3191730
  H       -0.2358010     1.9387980    -0.0403200
  H        2.3360990    -0.6508680     0.9913740
  H        2.9204480    -0.0525400    -0.5681780
  H        2.1576980    -1.6469370    -0.4652230
units angstrom
no_reorient  #important for SAPT in psi4, default
symmetry c1  #important for SAPT in psi4, default
}

set PROPERTIES_ORIGIN ["COM"]
properties('MP2/aug-cc-pvtz', properties = ['dipole'])
--------------------------------------------------------------------------

    Molecular point group: c1
  Charge       = 0
  Multiplicity = 1
  Basis Set: AUG-CC-PVTZ
    Blend: AUG-CC-PVTZ
  Basis Set: (AUG-CC-PVTZ AUX)
    Blend: AUG-CC-PVTZ-JKFIT

    Orbital Energies [Eh]
    ---------------------

    Doubly Occupied:

       1A    -15.574379     2A    -11.281657     3A    -11.280524
       4A    -11.255056     5A    -11.233583     6A    -11.226599
       7A     -1.205804     8A     -1.120562     9A     -0.995930
      10A     -0.948809    11A     -0.809340    12A     -0.707896
      13A     -0.661974    14A     -0.624160    15A     -0.595774
      16A     -0.567141    17A     -0.553951    18A     -0.542638
      19A     -0.512621    20A     -0.495801    21A     -0.494052
      22A     -0.447924    23A     -0.443883

  @DF-RHF Final Energy:  -249.11413110062827

   => Energetics <=

    Nuclear Repulsion Energy =            220.2620460104642461
    One-Electron Energy =                -771.5922355394983470
    Two-Electron Energy =                 302.2160584284058586
    Total Energy =                       -249.1141311006282422
  Basis Set: (AUG-CC-PVTZ AUX)
    Blend: AUG-CC-PVTZ-RI
    Molecular point group: c1

    Geometry (in Angstrom), charge = 0, multiplicity = 1:

       Center              X                  Y                   Z               Mass
    ------------   -----------------  -----------------  -----------------  -----------------
         N           -2.635553850109     0.149547641991    -0.185377079123    14.003074004430
         C            0.880582149891     0.032021641991    -0.332742079123    12.000000000000
         C           -0.223911850109    -0.814092358009     0.324123920877    12.000000000000
         C            0.844573149891     1.471450641991     0.172927920877    12.000000000000
         C            2.238485149891    -0.616346358009    -0.073648079123    12.000000000000
         C           -1.565989850109    -0.291801358009     0.051574920877    12.000000000000
         H            0.697461249891     0.036037141991    -1.394527179123     1.007825032230
         H           -0.173832850109    -1.849431358009    -0.031993079123     1.007825032230
         H           -0.071846850109    -0.839491358009     1.410385920877     1.007825032230
         H            1.019032149891     1.501322641991     1.254306920877     1.007825032230
         H            1.624487149891     2.067354641991    -0.310082079123     1.007825032230
         H           -0.119993850109     1.944477641991    -0.031229079123     1.007825032230
         H            2.451906149891    -0.645188358009     1.000464920877     1.007825032230
         H            3.036255149891    -0.046860358009    -0.559087079123     1.007825032230
         H            2.273505149891    -1.641257358009    -0.456132079123     1.007825032230

  Basis Set: AUG-CC-PVTZ
    Blend: AUG-CC-PVTZ
  Basis Set: (AUG-CC-PVTZ AUX)
    Blend: AUG-CC-PVTZ-JKFIT
	 Reference Energy          =    -249.1141311006282706 [Eh]
	 Singles Energy            =      -0.0000000000000000 [Eh]
	 Same-Spin Energy          =      -0.2628602196859959 [Eh]
	 Opposite-Spin Energy      =      -0.9096702534333465 [Eh]
	 Correlation Energy        =      -1.1725304731193424 [Eh]
	 Total Energy              =    -250.2866615737476081 [Eh]

	 ================> DF-SCS-MP2 Energies <==================
	-----------------------------------------------------------
	 SCS Same-Spin Scale       =       0.3333333333333333 [-]
	 SCS Opposite-Spin Scale   =       1.2000000000000000 [-]
	 SCS Same-Spin Energy      =      -0.0876200732286653 [Eh]
	 SCS Opposite-Spin Energy  =      -1.0916043041200159 [Eh]
	 SCS Correlation Energy    =      -1.1792243773486812 [Eh]
	 SCS Total Energy          =    -250.2933554779769452 [Eh]
	-----------------------------------------------------------

  Dipole Moment: [D]
     X:     3.8746      Y:    -1.1176      Z:     0.5239     Total:     4.0665

*** Psi4 exiting successfully. Buy a developer a beer!
