                               Psi4 1.4a3.dev225

  ==> Input File <==

--------------------------------------------------------------------------
#psi4
#
memory 32 gb

molecule  {
0 1
  N       -2.7513610     0.1438680    -0.1944680
  C        0.7647750     0.0263420    -0.3418330
  C       -0.3397190    -0.8197720     0.3150330
  C        0.7287660     1.4657710     0.1638370
  C        2.1226780    -0.6220260    -0.0827390
  C       -1.6817970    -0.2974810     0.0424840
  H        0.5782550     0.0304320    -1.4233270
  H       -0.2896400    -1.8551110    -0.0410840
  H       -0.1876540    -0.8451710     1.4012950
  H        0.9032250     1.4956430     1.2452160
  H        1.5086800     2.0616750    -0.3191730
  H       -0.1916979     1.9171697    -0.0309853
  H        2.3360990    -0.6508680     0.9913740
  H        2.9204480    -0.0525400    -0.5681780
  H        2.1576980    -1.6469370    -0.4652230
units angstrom
no_reorient  #important for SAPT in psi4, default
symmetry c1  #important for SAPT in psi4, default
}

set PROPERTIES_ORIGIN ["COM"]
properties('MP2/aug-cc-pvtz', properties = ['dipole'])
--------------------------------------------------------------------------

    Molecular point group: c1
  Charge       = 0
  Multiplicity = 1
  Basis Set: AUG-CC-PVTZ
    Blend: AUG-CC-PVTZ
  Basis Set: (AUG-CC-PVTZ AUX)
    Blend: AUG-CC-PVTZ-JKFIT

    Orbital Energies [Eh]
    ---------------------

    Doubly Occupied:

       1A    -15.574606     2A    -11.281810     3A    -11.280661
       4A    -11.257123     5A    -11.233361     6A    -11.220899
       7A     -1.205962     8A     -1.120307     9A     -0.996485
      10A     -0.952533    11A     -0.807935    12A     -0.707312
      13A     -0.662244    14A     -0.627718    15A     -0.596959
      16A     -0.567329    17A     -0.554467    18A     -0.543531
      19A     -0.513229    20A     -0.498450    21A     -0.491744
      22A     -0.448201    23A     -0.444056

  @DF-RHF Final Energy:  -249.11313935965154

   => Energetics <=

    Nuclear Repulsion Energy =            220.3624935950691111
    One-Electron Energy =                -771.7774193605782784
    Two-Electron Energy =                 302.3017864058576833
    Total Energy =                       -249.1131393596515409
  Basis Set: (AUG-CC-PVTZ AUX)
    Blend: AUG-CC-PVTZ-RI
    Molecular point group: c1

    Geometry (in Angstrom), charge = 0, multiplicity = 1:

       Center              X                  Y                   Z               Mass
    ------------   -----------------  -----------------  -----------------  -----------------
         N           -2.636047659934     0.149809126813    -0.185251222159    14.003074004430
         C            0.880088340066     0.032283126813    -0.332616222159    12.000000000000
         C           -0.224405659934    -0.813830873187     0.324249777841    12.000000000000
         C            0.844079340066     1.471712126813     0.173053777841    12.000000000000
         C            2.237991340066    -0.616084873187    -0.073522222159    12.000000000000
         C           -1.566483659934    -0.291539873187     0.051700777841    12.000000000000
         H            0.693568340066     0.036373126813    -1.414110222159     1.007825032230
         H           -0.174326659934    -1.849169873187    -0.031867222159     1.007825032230
         H           -0.072340659934    -0.839229873187     1.410511777841     1.007825032230
         H            1.018538340066     1.501584126813     1.254432777841     1.007825032230
         H            1.623993340066     2.067616126813    -0.309956222159     1.007825032230
         H           -0.076384559934     1.923110826813    -0.021768522159     1.007825032230
         H            2.451412340066    -0.644926873187     1.000590777841     1.007825032230
         H            3.035761340066    -0.046598873187    -0.558961222159     1.007825032230
         H            2.273011340066    -1.640995873187    -0.456006222159     1.007825032230

  Basis Set: AUG-CC-PVTZ
    Blend: AUG-CC-PVTZ
  Basis Set: (AUG-CC-PVTZ AUX)
    Blend: AUG-CC-PVTZ-JKFIT
	 Reference Energy          =    -249.1131393596515409 [Eh]
	 Singles Energy            =      -0.0000000000000000 [Eh]
	 Same-Spin Energy          =      -0.2628313507974368 [Eh]
	 Opposite-Spin Energy      =      -0.9094689162868790 [Eh]
	 Correlation Energy        =      -1.1723002670843159 [Eh]
	 Total Energy              =    -250.2854396267358652 [Eh]

	 ================> DF-SCS-MP2 Energies <==================
	-----------------------------------------------------------
	 SCS Same-Spin Scale       =       0.3333333333333333 [-]
	 SCS Opposite-Spin Scale   =       1.2000000000000000 [-]
	 SCS Same-Spin Energy      =      -0.0876104502658123 [Eh]
	 SCS Opposite-Spin Energy  =      -1.0913626995442547 [Eh]
	 SCS Correlation Energy    =      -1.1789731498100668 [Eh]
	 SCS Total Energy          =    -250.2921125094616173 [Eh]
	-----------------------------------------------------------

  Dipole Moment: [D]
     X:     3.8596      Y:    -1.1013      Z:     0.5339     Total:     4.0490

*** Psi4 exiting successfully. Buy a developer a beer!
