                               Psi4 1.4a3.dev225

  ==> Input File <==

--------------------------------------------------------------------------
#psi4
#
memory 32 gb

molecule  {
0 1
  N       -2.7513610     0.1438680    -0.1944680
  C        0.7647750     0.0263420    -0.3418330
  C       -0.3397190    -0.8197720     0.3150330
  C        0.7287660     1.4657710     0.1638370
  C        2.1226780    -0.6220260    -0.0827390
  C       -1.6817970    -0.2974810     0.0424840
  H        0.5782550     0.0304320    -1.4233270
  H       -0.2896400    -1.8551110    -0.0410840
  H       -0.1876540    -0.8451710     1.4012950
  H        0.9032250     1.4956430     1.2452160
  H        1.5086800     2.0616750    -0.3191730
  H       -0.2358010     1.9387980    -0.0403200
  H        2.3360990    -0.6508680     0.9913740
  H        2.7745770    -0.1566697    -0.4794162
  H        2.1576980    -1.6469370    -0.4652230
units angstrom
no_reorient  #important for SAPT in psi4, default
symmetry c1  #important for SAPT in psi4, default
}

set PROPERTIES_ORIGIN ["COM"]
properties('MP2/aug-cc-pvtz', properties = ['dipole'])
--------------------------------------------------------------------------

    Molecular point group: c1
  Charge       = 0
  Multiplicity = 1
  Basis Set: AUG-CC-PVTZ
    Blend: AUG-CC-PVTZ
  Basis Set: (AUG-CC-PVTZ AUX)
    Blend: AUG-CC-PVTZ-JKFIT

    Orbital Energies [Eh]
    ---------------------

    Doubly Occupied:

       1A    -15.573527     2A    -11.280524     3A    -11.279577
       4A    -11.256173     5A    -11.226867     6A    -11.209022
       7A     -1.205009     8A     -1.122192     9A     -1.005128
      10A     -0.960495    11A     -0.814591    12A     -0.711949
      13A     -0.660633    14A     -0.629029    15A     -0.601669
      16A     -0.577364    17A     -0.559199    18A     -0.547600
      19A     -0.515407    20A     -0.494731    21A     -0.490925
      22A     -0.447130    23A     -0.443982

  @DF-RHF Final Energy:  -249.08008012369325

   => Energetics <=

    Nuclear Repulsion Energy =            221.1355654218946825
    One-Electron Energy =                -773.2058479780615698
    Two-Electron Energy =                 302.9902024324736090
    Total Energy =                       -249.0800801236932216
  Basis Set: (AUG-CC-PVTZ AUX)
    Blend: AUG-CC-PVTZ-RI
    Molecular point group: c1

    Geometry (in Angstrom), charge = 0, multiplicity = 1:

       Center              X                  Y                   Z               Mass
    ------------   -----------------  -----------------  -----------------  -----------------
         N           -2.633742945975     0.150810011293    -0.186214810069    14.003074004430
         C            0.882393054025     0.033284011293    -0.333579810069    12.000000000000
         C           -0.222100945975    -0.812829988707     0.323286189931    12.000000000000
         C            0.846384054025     1.472713011293     0.172090189931    12.000000000000
         C            2.240296054025    -0.615083988707    -0.074485810069    12.000000000000
         C           -1.564178945975    -0.290538988707     0.050737189931    12.000000000000
         H            0.695873054025     0.037374011293    -1.415073810069     1.007825032230
         H           -0.172021945975    -1.848168988707    -0.032830810069     1.007825032230
         H           -0.070035945975    -0.838228988707     1.409548189931     1.007825032230
         H            1.020843054025     1.502585011293     1.253469189931     1.007825032230
         H            1.626298054025     2.068617011293    -0.310919810069     1.007825032230
         H           -0.118182945975     1.945740011293    -0.032066810069     1.007825032230
         H            2.453717054025    -0.643925988707     0.999627189931     1.007825032230
         H            2.892195054025    -0.149727688707    -0.471163010069     1.007825032230
         H            2.275316054025    -1.639994988707    -0.456969810069     1.007825032230

  Basis Set: AUG-CC-PVTZ
    Blend: AUG-CC-PVTZ
  Basis Set: (AUG-CC-PVTZ AUX)
    Blend: AUG-CC-PVTZ-JKFIT
	 Reference Energy          =    -249.0800801236932500 [Eh]
	 Singles Energy            =      -0.0000000000000000 [Eh]
	 Same-Spin Energy          =      -0.2629807871288299 [Eh]
	 Opposite-Spin Energy      =      -0.9091598747897813 [Eh]
	 Correlation Energy        =      -1.1721406619186112 [Eh]
	 Total Energy              =    -250.2522207856118541 [Eh]

	 ================> DF-SCS-MP2 Energies <==================
	-----------------------------------------------------------
	 SCS Same-Spin Scale       =       0.3333333333333333 [-]
	 SCS Opposite-Spin Scale   =       1.2000000000000000 [-]
	 SCS Same-Spin Energy      =      -0.0876602623762766 [Eh]
	 SCS Opposite-Spin Energy  =      -1.0909918497477376 [Eh]
	 SCS Correlation Energy    =      -1.1786521121240141 [Eh]
	 SCS Total Energy          =    -250.2587322358172628 [Eh]
	-----------------------------------------------------------

  Dipole Moment: [D]
     X:     3.9645      Y:    -1.0903      Z:     0.5083     Total:     4.1430

*** Psi4 exiting successfully. Buy a developer a beer!
