                               Psi4 1.4a3.dev225

  ==> Input File <==

--------------------------------------------------------------------------
#psi4
#
memory 32 gb

molecule  {
0 1
  N       -2.7513610     0.1438680    -0.1944680
  C        0.7647750     0.0263420    -0.3418330
  C       -0.3397190    -0.8197720     0.3150330
  C        0.7287660     1.4657710     0.1638370
  C        2.1226780    -0.6220260    -0.0827390
  C       -1.6817970    -0.2974810     0.0424840
  H        0.5782550     0.0304320    -1.4233270
  H       -0.2896400    -1.8551110    -0.0410840
  H       -0.1876540    -0.8451710     1.4012950
  H        0.9032250     1.4956430     1.2452160
  H        1.5086800     2.0616750    -0.3191730
  H       -0.2181598     1.9301467    -0.0365861
  H        2.3360990    -0.6508680     0.9913740
  H        2.9204480    -0.0525400    -0.5681780
  H        2.1576980    -1.6469370    -0.4652230
units angstrom
no_reorient  #important for SAPT in psi4, default
symmetry c1  #important for SAPT in psi4, default
}

set PROPERTIES_ORIGIN ["COM"]
properties('MP2/aug-cc-pvtz', properties = ['dipole'])
--------------------------------------------------------------------------

    Molecular point group: c1
  Charge       = 0
  Multiplicity = 1
  Basis Set: AUG-CC-PVTZ
    Blend: AUG-CC-PVTZ
  Basis Set: (AUG-CC-PVTZ AUX)
    Blend: AUG-CC-PVTZ-JKFIT

    Orbital Energies [Eh]
    ---------------------

    Doubly Occupied:

       1A    -15.574481     2A    -11.281819     3A    -11.280602
       4A    -11.257357     5A    -11.233595     6A    -11.224452
       7A     -1.205862     8A     -1.120082     9A     -0.996134
      10A     -0.950319    11A     -0.807267    12A     -0.707339
      13A     -0.661879    14A     -0.625564    15A     -0.596125
      16A     -0.567254    17A     -0.554178    18A     -0.543058
      19A     -0.512823    20A     -0.497038    21A     -0.491825
      22A     -0.448044    23A     -0.443989

  @DF-RHF Final Energy:  -249.11412059121287

   => Energetics <=

    Nuclear Repulsion Energy =            220.2430848176338714
    One-Electron Energy =                -771.5522452276691183
    Two-Electron Energy =                 302.1950398188223517
    Total Energy =                       -249.1141205912128953
  Basis Set: (AUG-CC-PVTZ AUX)
    Blend: AUG-CC-PVTZ-RI
    Molecular point group: c1

    Geometry (in Angstrom), charge = 0, multiplicity = 1:

       Center              X                  Y                   Z               Mass
    ------------   -----------------  -----------------  -----------------  -----------------
         N           -2.635726631382     0.149651693389    -0.185183274781    14.003074004430
         C            0.880409368618     0.032125693389    -0.332548274781    12.000000000000
         C           -0.224084631382    -0.813988306611     0.324317725219    12.000000000000
         C            0.844400368618     1.471554693389     0.173121725219    12.000000000000
         C            2.238312368618    -0.616242306611    -0.073454274781    12.000000000000
         C           -1.566162631382    -0.291697306611     0.051768725219    12.000000000000
         H            0.693889368618     0.036215693389    -1.414042274781     1.007825032230
         H           -0.174005631382    -1.849327306611    -0.031799274781     1.007825032230
         H           -0.072019631382    -0.839387306611     1.410579725219     1.007825032230
         H            1.018859368618     1.501426693389     1.254500725219     1.007825032230
         H            1.624314368618     2.067458693389    -0.309888274781     1.007825032230
         H           -0.102525431382     1.935930393389    -0.027301374781     1.007825032230
         H            2.451733368618    -0.645084306611     1.000658725219     1.007825032230
         H            3.036082368618    -0.046756306611    -0.558893274781     1.007825032230
         H            2.273332368618    -1.641153306611    -0.455938274781     1.007825032230

  Basis Set: AUG-CC-PVTZ
    Blend: AUG-CC-PVTZ
  Basis Set: (AUG-CC-PVTZ AUX)
    Blend: AUG-CC-PVTZ-JKFIT
	 Reference Energy          =    -249.1141205912128669 [Eh]
	 Singles Energy            =      -0.0000000000000000 [Eh]
	 Same-Spin Energy          =      -0.2628527819718872 [Eh]
	 Opposite-Spin Energy      =      -0.9096576286427578 [Eh]
	 Correlation Energy        =      -1.1725104106146449 [Eh]
	 Total Energy              =    -250.2866310018275158 [Eh]

	 ================> DF-SCS-MP2 Energies <==================
	-----------------------------------------------------------
	 SCS Same-Spin Scale       =       0.3333333333333333 [-]
	 SCS Opposite-Spin Scale   =       1.2000000000000000 [-]
	 SCS Same-Spin Energy      =      -0.0876175939906291 [Eh]
	 SCS Opposite-Spin Energy  =      -1.0915891543713092 [Eh]
	 SCS Correlation Energy    =      -1.1792067483619382 [Eh]
	 SCS Total Energy          =    -250.2933273395748017 [Eh]
	-----------------------------------------------------------

  Dipole Moment: [D]
     X:     3.8695      Y:    -1.1104      Z:     0.5345     Total:     4.0609

*** Psi4 exiting successfully. Buy a developer a beer!
