                               Psi4 1.4a3.dev225

  ==> Input File <==

--------------------------------------------------------------------------
#psi4
#
memory 32 gb

molecule  {
0 1
  N       -2.7513610     0.1438680    -0.1944680
  C        0.7647750     0.0263420    -0.3418330
  C       -0.3397190    -0.8197720     0.3150330
  C        0.7287660     1.4657710     0.1638370
  C        2.1226780    -0.6220260    -0.0827390
  C       -1.6817970    -0.2974810     0.0424840
  H        0.5782550     0.0304320    -1.4233270
  H       -0.3019192    -1.8285644    -0.1117727
  H       -0.1876540    -0.8451710     1.4012950
  H        0.9032250     1.4956430     1.2452160
  H        1.5086800     2.0616750    -0.3191730
  H       -0.2358010     1.9387980    -0.0403200
  H        2.3360990    -0.6508680     0.9913740
  H        2.9204480    -0.0525400    -0.5681780
  H        2.1576980    -1.6469370    -0.4652230
units angstrom
no_reorient  #important for SAPT in psi4, default
symmetry c1  #important for SAPT in psi4, default
}

set PROPERTIES_ORIGIN ["COM"]
properties('MP2/aug-cc-pvtz', properties = ['dipole'])
--------------------------------------------------------------------------

    Molecular point group: c1
  Charge       = 0
  Multiplicity = 1
  Basis Set: AUG-CC-PVTZ
    Blend: AUG-CC-PVTZ
  Basis Set: (AUG-CC-PVTZ AUX)
    Blend: AUG-CC-PVTZ-JKFIT

    Orbital Energies [Eh]
    ---------------------

    Doubly Occupied:

       1A    -15.573970     2A    -11.282005     3A    -11.280111
       4A    -11.257335     5A    -11.233833     6A    -11.226577
       7A     -1.205622     8A     -1.120305     9A     -0.996155
      10A     -0.948924    11A     -0.806640    12A     -0.705403
      13A     -0.663395    14A     -0.623629    15A     -0.597935
      16A     -0.567715    17A     -0.553812    18A     -0.541959
      19A     -0.512062    20A     -0.495813    21A     -0.492120
      22A     -0.448501    23A     -0.442782

  @DF-RHF Final Energy:  -249.11361508615903

   => Energetics <=

    Nuclear Repulsion Energy =            220.2146060335154232
    One-Electron Energy =                -771.5032385266263191
    Two-Electron Energy =                 302.1750174069518380
    Total Energy =                       -249.1136150861590295
  Basis Set: (AUG-CC-PVTZ AUX)
    Blend: AUG-CC-PVTZ-RI
    Molecular point group: c1

    Geometry (in Angstrom), charge = 0, multiplicity = 1:

       Center              X                  Y                   Z               Mass
    ------------   -----------------  -----------------  -----------------  -----------------
         N           -2.635363645251     0.149224682068    -0.184280400099    14.003074004430
         C            0.880772354749     0.031698682068    -0.331645400099    12.000000000000
         C           -0.223721645251    -0.814415317932     0.325220599901    12.000000000000
         C            0.844763354749     1.471127682068     0.174024599901    12.000000000000
         C            2.238675354749    -0.616669317932    -0.072551400099    12.000000000000
         C           -1.565799645251    -0.292124317932     0.052671599901    12.000000000000
         H            0.694252354749     0.035788682068    -1.413139400099     1.007825032230
         H           -0.185921845251    -1.823207717932    -0.101585100099     1.007825032230
         H           -0.071656645251    -0.839814317932     1.411482599901     1.007825032230
         H            1.019222354749     1.500999682068     1.255403599901     1.007825032230
         H            1.624677354749     2.067031682068    -0.308985400099     1.007825032230
         H           -0.119803645251     1.944154682068    -0.030132400099     1.007825032230
         H            2.452096354749    -0.645511317932     1.001561599901     1.007825032230
         H            3.036445354749    -0.047183317932    -0.557990400099     1.007825032230
         H            2.273695354749    -1.641580317932    -0.455035400099     1.007825032230

  Basis Set: AUG-CC-PVTZ
    Blend: AUG-CC-PVTZ
  Basis Set: (AUG-CC-PVTZ AUX)
    Blend: AUG-CC-PVTZ-JKFIT
	 Reference Energy          =    -249.1136150861590295 [Eh]
	 Singles Energy            =      -0.0000000000000000 [Eh]
	 Same-Spin Energy          =      -0.2628881482074681 [Eh]
	 Opposite-Spin Energy      =      -0.9098504307764929 [Eh]
	 Correlation Energy        =      -1.1727385789839611 [Eh]
	 Total Energy              =    -250.2863536651429968 [Eh]

	 ================> DF-SCS-MP2 Energies <==================
	-----------------------------------------------------------
	 SCS Same-Spin Scale       =       0.3333333333333333 [-]
	 SCS Opposite-Spin Scale   =       1.2000000000000000 [-]
	 SCS Same-Spin Energy      =      -0.0876293827358227 [Eh]
	 SCS Opposite-Spin Energy  =      -1.0918205169317914 [Eh]
	 SCS Correlation Energy    =      -1.1794498996676142 [Eh]
	 SCS Total Energy          =    -250.2930649858266463 [Eh]
	-----------------------------------------------------------

  Dipole Moment: [D]
     X:     3.8802      Y:    -1.1059      Z:     0.5115     Total:     4.0670

*** Psi4 exiting successfully. Buy a developer a beer!
