                               Psi4 1.4a3.dev225

  ==> Input File <==

--------------------------------------------------------------------------
#psi4
#
memory 32 gb

molecule  {
0 1
  N       -2.7513610     0.1438680    -0.1944680
  C        0.7647750     0.0263420    -0.3418330
  C       -0.3397190    -0.8197720     0.3150330
  C        0.7287660     1.4657710     0.1638370
  C        2.1226780    -0.6220260    -0.0827390
  C       -1.6817970    -0.2974810     0.0424840
  H        0.5782550     0.0304320    -1.4233270
  H       -0.2896400    -1.8551110    -0.0410840
  H       -0.1876540    -0.8451710     1.4012950
  H        0.9032250     1.4956430     1.2452160
  H        1.5086800     2.0616750    -0.3191730
  H       -0.2358010     1.9387980    -0.0403200
  H        2.3458399    -0.6521844     1.0403983
  H        2.9204480    -0.0525400    -0.5681780
  H        2.1576980    -1.6469370    -0.4652230
units angstrom
no_reorient  #important for SAPT in psi4, default
symmetry c1  #important for SAPT in psi4, default
}

set PROPERTIES_ORIGIN ["COM"]
properties('MP2/aug-cc-pvtz', properties = ['dipole'])
--------------------------------------------------------------------------

    Molecular point group: c1
  Charge       = 0
  Multiplicity = 1
  Basis Set: AUG-CC-PVTZ
    Blend: AUG-CC-PVTZ
  Basis Set: (AUG-CC-PVTZ AUX)
    Blend: AUG-CC-PVTZ-JKFIT

    Orbital Energies [Eh]
    ---------------------

    Doubly Occupied:

       1A    -15.574478     2A    -11.281911     3A    -11.280634
       4A    -11.258175     5A    -11.239900     6A    -11.226877
       7A     -1.205875     8A     -1.119704     9A     -0.995192
      10A     -0.946761    11A     -0.805153    12A     -0.707475
      13A     -0.661113    14A     -0.624342    15A     -0.594657
      16A     -0.565819    17A     -0.549871    18A     -0.542542
      19A     -0.512700    20A     -0.496586    21A     -0.489988
      22A     -0.448012    23A     -0.444082

  @DF-RHF Final Energy:  -249.11204673567059

   => Energetics <=

    Nuclear Repulsion Energy =            219.9705639650616433
    One-Electron Energy =                -771.0215311827167852
    Two-Electron Energy =                 301.9389204819846100
    Total Energy =                       -249.1120467356705603
  Basis Set: (AUG-CC-PVTZ AUX)
    Blend: AUG-CC-PVTZ-RI
    Molecular point group: c1

    Geometry (in Angstrom), charge = 0, multiplicity = 1:

       Center              X                  Y                   Z               Mass
    ------------   -----------------  -----------------  -----------------  -----------------
         N           -2.635630787097     0.149562708383    -0.185732725559    14.003074004430
         C            0.880505212903     0.032036708383    -0.333097725559    12.000000000000
         C           -0.223988787097    -0.814077291617     0.323768274441    12.000000000000
         C            0.844496212903     1.471465708383     0.172572274441    12.000000000000
         C            2.238408212903    -0.616331291617    -0.074003725559    12.000000000000
         C           -1.566066787097    -0.291786291617     0.051219274441    12.000000000000
         H            0.693985212903     0.036126708383    -1.414591725559     1.007825032230
         H           -0.173909787097    -1.849416291617    -0.032348725559     1.007825032230
         H           -0.071923787097    -0.839476291617     1.410030274441     1.007825032230
         H            1.018955212903     1.501337708383     1.253951274441     1.007825032230
         H            1.624410212903     2.067369708383    -0.310437725559     1.007825032230
         H           -0.120070787097     1.944492708383    -0.031584725559     1.007825032230
         H            2.461570112903    -0.646489691617     1.049133574441     1.007825032230
         H            3.036178212903    -0.046845291617    -0.559442725559     1.007825032230
         H            2.273428212903    -1.641242291617    -0.456487725559     1.007825032230

  Basis Set: AUG-CC-PVTZ
    Blend: AUG-CC-PVTZ
  Basis Set: (AUG-CC-PVTZ AUX)
    Blend: AUG-CC-PVTZ-JKFIT
	 Reference Energy          =    -249.1120467356705888 [Eh]
	 Singles Energy            =      -0.0000000000000000 [Eh]
	 Same-Spin Energy          =      -0.2628662912795193 [Eh]
	 Opposite-Spin Energy      =      -0.9101135820627272 [Eh]
	 Correlation Energy        =      -1.1729798733422465 [Eh]
	 Total Energy              =    -250.2850266090128457 [Eh]

	 ================> DF-SCS-MP2 Energies <==================
	-----------------------------------------------------------
	 SCS Same-Spin Scale       =       0.3333333333333333 [-]
	 SCS Opposite-Spin Scale   =       1.2000000000000000 [-]
	 SCS Same-Spin Energy      =      -0.0876220970931731 [Eh]
	 SCS Opposite-Spin Energy  =      -1.0921362984752725 [Eh]
	 SCS Correlation Energy    =      -1.1797583955684456 [Eh]
	 SCS Total Energy          =    -250.2918051312390446 [Eh]
	-----------------------------------------------------------

  Dipole Moment: [D]
     X:     3.8645      Y:    -1.1125      Z:     0.5055     Total:     4.0531

*** Psi4 exiting successfully. Buy a developer a beer!
