                               Psi4 1.4a3.dev225

  ==> Input File <==

--------------------------------------------------------------------------
#psi4
#
memory 32 gb

molecule  {
0 1
  N       -2.7513610     0.1438680    -0.1944680
  C        0.7647750     0.0263420    -0.3418330
  C       -0.3397190    -0.8197720     0.3150330
  C        0.7287660     1.4657710     0.1638370
  C        2.1226780    -0.6220260    -0.0827390
  C       -1.6817970    -0.2974810     0.0424840
  H        0.5782550     0.0304320    -1.4233270
  H       -0.2896400    -1.8551110    -0.0410840
  H       -0.1876540    -0.8451710     1.4012950
  H        0.9032250     1.4956430     1.2452160
  H        1.5086800     2.0616750    -0.3191730
  H       -0.2799041     1.9604263    -0.0496547
  H        2.3360990    -0.6508680     0.9913740
  H        2.9204480    -0.0525400    -0.5681780
  H        2.1576980    -1.6469370    -0.4652230
units angstrom
no_reorient  #important for SAPT in psi4, default
symmetry c1  #important for SAPT in psi4, default
}

set PROPERTIES_ORIGIN ["COM"]
properties('MP2/aug-cc-pvtz', properties = ['dipole'])
--------------------------------------------------------------------------

    Molecular point group: c1
  Charge       = 0
  Multiplicity = 1
  Basis Set: AUG-CC-PVTZ
    Blend: AUG-CC-PVTZ
  Basis Set: (AUG-CC-PVTZ AUX)
    Blend: AUG-CC-PVTZ-JKFIT

    Orbital Energies [Eh]
    ---------------------

    Doubly Occupied:

       1A    -15.574165     2A    -11.281865     3A    -11.280450
       4A    -11.257979     5A    -11.234214     6A    -11.232504
       7A     -1.205609     8A     -1.119752     9A     -0.995641
      10A     -0.945914    11A     -0.805983    12A     -0.707426
      13A     -0.661387    14A     -0.621527    15A     -0.594017
      16A     -0.567089    17A     -0.553799    18A     -0.541762
      19A     -0.512208    20A     -0.493995    21A     -0.490679
      22A     -0.447604    23A     -0.443768

  @DF-RHF Final Energy:  -249.11190313631118

   => Energetics <=

    Nuclear Repulsion Energy =            219.9827645733465147
    One-Electron Energy =                -771.0506601889594549
    Two-Electron Energy =                 301.9559924793018126
    Total Energy =                       -249.1119031363111844
  Basis Set: (AUG-CC-PVTZ AUX)
    Blend: AUG-CC-PVTZ-RI
    Molecular point group: c1

    Geometry (in Angstrom), charge = 0, multiplicity = 1:

       Center              X                  Y                   Z               Mass
    ------------   -----------------  -----------------  -----------------  -----------------
         N           -2.634977566377     0.149284349542    -0.185024730091    14.003074004430
         C            0.881158433623     0.031758349542    -0.332389730091    12.000000000000
         C           -0.223335566377    -0.814355650458     0.324476269909    12.000000000000
         C            0.845149433623     1.471187349542     0.173280269909    12.000000000000
         C            2.239061433623    -0.616609650458    -0.073295730091    12.000000000000
         C           -1.565413566377    -0.292064650458     0.051927269909    12.000000000000
         H            0.694638433623     0.035848349542    -1.413883730091     1.007825032230
         H           -0.173256566377    -1.849694650458    -0.031640730091     1.007825032230
         H           -0.071270566377    -0.839754650458     1.410738269909     1.007825032230
         H            1.019608433623     1.501059349542     1.254659269909     1.007825032230
         H            1.625063433623     2.067091349542    -0.309729730091     1.007825032230
         H           -0.163520666377     1.965842649542    -0.040211430091     1.007825032230
         H            2.452482433623    -0.645451650458     1.000817269909     1.007825032230
         H            3.036831433623    -0.047123650458    -0.558734730091     1.007825032230
         H            2.274081433623    -1.641520650458    -0.455779730091     1.007825032230

  Basis Set: AUG-CC-PVTZ
    Blend: AUG-CC-PVTZ
  Basis Set: (AUG-CC-PVTZ AUX)
    Blend: AUG-CC-PVTZ-JKFIT
	 Reference Energy          =    -249.1119031363111844 [Eh]
	 Singles Energy            =      -0.0000000000000000 [Eh]
	 Same-Spin Energy          =      -0.2629178827996370 [Eh]
	 Opposite-Spin Energy      =      -0.9101913431838583 [Eh]
	 Correlation Energy        =      -1.1731092259834952 [Eh]
	 Total Energy              =    -250.2850123622946796 [Eh]

	 ================> DF-SCS-MP2 Energies <==================
	-----------------------------------------------------------
	 SCS Same-Spin Scale       =       0.3333333333333333 [-]
	 SCS Opposite-Spin Scale   =       1.2000000000000000 [-]
	 SCS Same-Spin Energy      =      -0.0876392942665457 [Eh]
	 SCS Opposite-Spin Energy  =      -1.0922296118206298 [Eh]
	 SCS Correlation Energy    =      -1.1798689060871754 [Eh]
	 SCS Total Energy          =    -250.2917720423983496 [Eh]
	-----------------------------------------------------------

  Dipole Moment: [D]
     X:     3.8958      Y:    -1.1345      Z:     0.5362     Total:     4.0929

*** Psi4 exiting successfully. Buy a developer a beer!
