                               Psi4 1.4a3.dev225

  ==> Input File <==

--------------------------------------------------------------------------
#psi4
#
memory 32 gb

molecule  {
0 1
  N       -2.7513610     0.1438680    -0.1944680
  C        0.7647750     0.0263420    -0.3418330
  C       -0.3397190    -0.8197720     0.3150330
  C        0.7287660     1.4657710     0.1638370
  C        2.1226780    -0.6220260    -0.0827390
  C       -1.6817970    -0.2974810     0.0424840
  H        0.5442640     0.0311774    -1.6204160
  H       -0.2896400    -1.8551110    -0.0410840
  H       -0.1876540    -0.8451710     1.4012950
  H        0.9032250     1.4956430     1.2452160
  H        1.5086800     2.0616750    -0.3191730
  H       -0.2358010     1.9387980    -0.0403200
  H        2.3360990    -0.6508680     0.9913740
  H        2.9204480    -0.0525400    -0.5681780
  H        2.1576980    -1.6469370    -0.4652230
units angstrom
no_reorient  #important for SAPT in psi4, default
symmetry c1  #important for SAPT in psi4, default
}

set PROPERTIES_ORIGIN ["COM"]
properties('MP2/aug-cc-pvtz', properties = ['dipole'])
--------------------------------------------------------------------------

    Molecular point group: c1
  Charge       = 0
  Multiplicity = 1
  Basis Set: AUG-CC-PVTZ
    Blend: AUG-CC-PVTZ
  Basis Set: (AUG-CC-PVTZ AUX)
    Blend: AUG-CC-PVTZ-JKFIT

    Orbital Energies [Eh]
    ---------------------

    Doubly Occupied:

       1A    -15.574683     2A    -11.284252     3A    -11.280973
       4A    -11.280480     5A    -11.236088     6A    -11.229257
       7A     -1.205871     8A     -1.116848     9A     -0.996955
      10A     -0.950913    11A     -0.790256    12A     -0.702825
      13A     -0.658920    14A     -0.625957    15A     -0.593803
      16A     -0.568262    17A     -0.555167    18A     -0.543744
      19A     -0.513872    20A     -0.498854    21A     -0.466285
      22A     -0.447836    23A     -0.444354

  @DF-RHF Final Energy:  -249.09446286216084

   => Energetics <=

    Nuclear Repulsion Energy =            219.3098062078325086
    One-Electron Energy =                -769.6756289531169841
    Two-Electron Energy =                 301.2713598831236368
    Total Energy =                       -249.0944628621608672
  Basis Set: (AUG-CC-PVTZ AUX)
    Blend: AUG-CC-PVTZ-RI
    Molecular point group: c1

    Geometry (in Angstrom), charge = 0, multiplicity = 1:

       Center              X                  Y                   Z               Mass
    ------------   -----------------  -----------------  -----------------  -----------------
         N           -2.635100243616     0.149537695188    -0.182746946139    14.003074004430
         C            0.881035756384     0.032011695188    -0.330111946139    12.000000000000
         C           -0.223458243616    -0.814102304812     0.326754053861    12.000000000000
         C            0.845026756384     1.471440695188     0.175558053861    12.000000000000
         C            2.238938756384    -0.616356304812    -0.071017946139    12.000000000000
         C           -1.565536243616    -0.291811304812     0.054205053861    12.000000000000
         H            0.660524756384     0.036847095188    -1.608694946139     1.007825032230
         H           -0.173379243616    -1.849441304812    -0.029362946139     1.007825032230
         H           -0.071393243616    -0.839501304812     1.413016053861     1.007825032230
         H            1.019485756384     1.501312695188     1.256937053861     1.007825032230
         H            1.624940756384     2.067344695188    -0.307451946139     1.007825032230
         H           -0.119540243616     1.944467695188    -0.028598946139     1.007825032230
         H            2.452359756384    -0.645198304812     1.003095053861     1.007825032230
         H            3.036708756384    -0.046870304812    -0.556456946139     1.007825032230
         H            2.273958756384    -1.641267304812    -0.453501946139     1.007825032230

  Basis Set: AUG-CC-PVTZ
    Blend: AUG-CC-PVTZ
  Basis Set: (AUG-CC-PVTZ AUX)
    Blend: AUG-CC-PVTZ-JKFIT
	 Reference Energy          =    -249.0944628621608388 [Eh]
	 Singles Energy            =      -0.0000000000000000 [Eh]
	 Same-Spin Energy          =      -0.2629828382084660 [Eh]
	 Opposite-Spin Energy      =      -0.9115122960519683 [Eh]
	 Correlation Energy        =      -1.1744951342604342 [Eh]
	 Total Energy              =    -250.2689579964212783 [Eh]

	 ================> DF-SCS-MP2 Energies <==================
	-----------------------------------------------------------
	 SCS Same-Spin Scale       =       0.3333333333333333 [-]
	 SCS Opposite-Spin Scale   =       1.2000000000000000 [-]
	 SCS Same-Spin Energy      =      -0.0876609460694887 [Eh]
	 SCS Opposite-Spin Energy  =      -1.0938147552623618 [Eh]
	 SCS Correlation Energy    =      -1.1814757013318504 [Eh]
	 SCS Total Energy          =    -250.2759385634927014 [Eh]
	-----------------------------------------------------------

  Dipole Moment: [D]
     X:     3.9009      Y:    -1.1086      Z:     0.6876     Total:     4.1133

*** Psi4 exiting successfully. Buy a developer a beer!
