                               Psi4 1.4a3.dev225

  ==> Input File <==

--------------------------------------------------------------------------
#psi4
#
memory 32 gb

molecule  {
0 1
  N       -2.7513610     0.1438680    -0.1944680
  C        0.7647750     0.0263420    -0.3418330
  C       -0.3397190    -0.8197720     0.3150330
  C        0.7287660     1.4657710     0.1638370
  C        2.1226780    -0.6220260    -0.0827390
  C       -1.6817970    -0.2974810     0.0424840
  H        0.6122460     0.0296866    -1.2262380
  H       -0.2896400    -1.8551110    -0.0410840
  H       -0.1876540    -0.8451710     1.4012950
  H        0.9032250     1.4956430     1.2452160
  H        1.5086800     2.0616750    -0.3191730
  H       -0.2358010     1.9387980    -0.0403200
  H        2.3360990    -0.6508680     0.9913740
  H        2.9204480    -0.0525400    -0.5681780
  H        2.1576980    -1.6469370    -0.4652230
units angstrom
no_reorient  #important for SAPT in psi4, default
symmetry c1  #important for SAPT in psi4, default
}

set PROPERTIES_ORIGIN ["COM"]
properties('MP2/aug-cc-pvtz', properties = ['dipole'])
--------------------------------------------------------------------------

    Molecular point group: c1
  Charge       = 0
  Multiplicity = 1
  Basis Set: AUG-CC-PVTZ
    Blend: AUG-CC-PVTZ
  Basis Set: (AUG-CC-PVTZ AUX)
    Blend: AUG-CC-PVTZ-JKFIT

    Orbital Energies [Eh]
    ---------------------

    Doubly Occupied:

       1A    -15.574331     2A    -11.280874     3A    -11.280024
       4A    -11.232742     5A    -11.232123     6A    -11.225345
       7A     -1.206094     8A     -1.129279     9A     -0.996481
      10A     -0.947897    11A     -0.839116    12A     -0.712558
      13A     -0.664242    14A     -0.623695    15A     -0.598178
      16A     -0.566849    17A     -0.553559    18A     -0.542193
      19A     -0.517721    20A     -0.507118    21A     -0.494472
      22A     -0.447905    23A     -0.443555

  @DF-RHF Final Energy:  -249.08139431316306

   => Energetics <=

    Nuclear Repulsion Energy =            221.2396886360287169
    One-Electron Energy =                -773.4094601238240330
    Two-Electron Energy =                 303.0883771746322282
    Total Energy =                       -249.0813943131630595
  Basis Set: (AUG-CC-PVTZ AUX)
    Blend: AUG-CC-PVTZ-RI
    Molecular point group: c1

    Geometry (in Angstrom), charge = 0, multiplicity = 1:

       Center              X                  Y                   Z               Mass
    ------------   -----------------  -----------------  -----------------  -----------------
         N           -2.635924982695     0.149555781167    -0.187529006110    14.003074004430
         C            0.880211017305     0.032029781167    -0.334894006110    12.000000000000
         C           -0.224282982695    -0.814084218833     0.321971993890    12.000000000000
         C            0.844202017305     1.471458781167     0.170775993890    12.000000000000
         C            2.238114017305    -0.616338218833    -0.075800006110    12.000000000000
         C           -1.566360982695    -0.291793218833     0.049422993890    12.000000000000
         H            0.727682017305     0.035374381167    -1.219299006110     1.007825032230
         H           -0.174203982695    -1.849423218833    -0.034145006110     1.007825032230
         H           -0.072217982695    -0.839483218833     1.408233993890     1.007825032230
         H            1.018661017305     1.501330781167     1.252154993890     1.007825032230
         H            1.624116017305     2.067362781167    -0.312234006110     1.007825032230
         H           -0.120364982695     1.944485781167    -0.033381006110     1.007825032230
         H            2.451535017305    -0.645180218833     0.998312993890     1.007825032230
         H            3.035884017305    -0.046852218833    -0.561239006110     1.007825032230
         H            2.273134017305    -1.641249218833    -0.458284006110     1.007825032230

  Basis Set: AUG-CC-PVTZ
    Blend: AUG-CC-PVTZ
  Basis Set: (AUG-CC-PVTZ AUX)
    Blend: AUG-CC-PVTZ-JKFIT
	 Reference Energy          =    -249.0813943131630595 [Eh]
	 Singles Energy            =      -0.0000000000000000 [Eh]
	 Same-Spin Energy          =      -0.2628638461235323 [Eh]
	 Opposite-Spin Energy      =      -0.9091672413176268 [Eh]
	 Correlation Energy        =      -1.1720310874411590 [Eh]
	 Total Energy              =    -250.2534254006042147 [Eh]

	 ================> DF-SCS-MP2 Energies <==================
	-----------------------------------------------------------
	 SCS Same-Spin Scale       =       0.3333333333333333 [-]
	 SCS Opposite-Spin Scale   =       1.2000000000000000 [-]
	 SCS Same-Spin Energy      =      -0.0876212820411774 [Eh]
	 SCS Opposite-Spin Energy  =      -1.0910006895811521 [Eh]
	 SCS Correlation Energy    =      -1.1786219716223296 [Eh]
	 SCS Total Energy          =    -250.2600162847853937 [Eh]
	-----------------------------------------------------------

  Dipole Moment: [D]
     X:     3.8619      Y:    -1.1239      Z:     0.4620     Total:     4.0485

*** Psi4 exiting successfully. Buy a developer a beer!
