                               Psi4 1.4a3.dev225

  ==> Input File <==

--------------------------------------------------------------------------
#psi4
#
memory 32 gb

molecule  {
0 1
  N       -2.7513610     0.1438680    -0.1944680
  C        0.7647750     0.0263420    -0.3418330
  C       -0.3397190    -0.8197720     0.3150330
  C        0.7287660     1.4657710     0.1638370
  C        2.1226780    -0.6220260    -0.0827390
  C       -1.6817970    -0.2974810     0.0424840
  H        0.5782550     0.0304320    -1.4233270
  H       -0.2896400    -1.8551110    -0.0410840
  H       -0.1876540    -0.8451710     1.4012950
  H        0.9032250     1.4956430     1.2452160
  H        1.5086800     2.0616750    -0.3191730
  H       -0.2358010     1.9387980    -0.0403200
  H        2.3166172    -0.6482352     0.8933254
  H        2.9204480    -0.0525400    -0.5681780
  H        2.1576980    -1.6469370    -0.4652230
units angstrom
no_reorient  #important for SAPT in psi4, default
symmetry c1  #important for SAPT in psi4, default
}

set PROPERTIES_ORIGIN ["COM"]
properties('MP2/aug-cc-pvtz', properties = ['dipole'])
--------------------------------------------------------------------------

    Molecular point group: c1
  Charge       = 0
  Multiplicity = 1
  Basis Set: AUG-CC-PVTZ
    Blend: AUG-CC-PVTZ
  Basis Set: (AUG-CC-PVTZ AUX)
    Blend: AUG-CC-PVTZ-JKFIT

    Orbital Energies [Eh]
    ---------------------

    Doubly Occupied:

       1A    -15.574272     2A    -11.281720     3A    -11.280459
       4A    -11.256433     5A    -11.226672     6A    -11.221096
       7A     -1.205677     8A     -1.120995     9A     -0.998569
      10A     -0.954555    11A     -0.811139    12A     -0.707188
      13A     -0.663384    14A     -0.624736    15A     -0.598706
      16A     -0.573515    17A     -0.558569    18A     -0.542506
      19A     -0.512452    20A     -0.495309    21A     -0.493974
      22A     -0.447807    23A     -0.443711

  @DF-RHF Final Energy:  -249.10799633529314

   => Energetics <=

    Nuclear Repulsion Energy =            220.5969176178013527
    One-Electron Energy =                -772.2229428134695581
    Two-Electron Energy =                 302.5180288603751251
    Total Energy =                       -249.1079963352931372
  Basis Set: (AUG-CC-PVTZ AUX)
    Blend: AUG-CC-PVTZ-RI
    Molecular point group: c1

    Geometry (in Angstrom), charge = 0, multiplicity = 1:

       Center              X                  Y                   Z               Mass
    ------------   -----------------  -----------------  -----------------  -----------------
         N           -2.635276265272     0.149514797766    -0.183948477256    14.003074004430
         C            0.880859734728     0.031988797766    -0.331313477256    12.000000000000
         C           -0.223634265272    -0.814125202234     0.325552522744    12.000000000000
         C            0.844850734728     1.471417797766     0.174356522744    12.000000000000
         C            2.238762734728    -0.616379202234    -0.072219477256    12.000000000000
         C           -1.565712265272    -0.291834202234     0.053003522744    12.000000000000
         H            0.694339734728     0.036078797766    -1.412807477256     1.007825032230
         H           -0.173555265272    -1.849464202234    -0.030564477256     1.007825032230
         H           -0.071569265272    -0.839524202234     1.411814522744     1.007825032230
         H            1.019309734728     1.501289797766     1.255735522744     1.007825032230
         H            1.624764734728     2.067321797766    -0.308653477256     1.007825032230
         H           -0.119716265272     1.944444797766    -0.029800477256     1.007825032230
         H            2.432701934728    -0.642588402234     0.903844922744     1.007825032230
         H            3.036532734728    -0.046893202234    -0.557658477256     1.007825032230
         H            2.273782734728    -1.641290202234    -0.454703477256     1.007825032230

  Basis Set: AUG-CC-PVTZ
    Blend: AUG-CC-PVTZ
  Basis Set: (AUG-CC-PVTZ AUX)
    Blend: AUG-CC-PVTZ-JKFIT
	 Reference Energy          =    -249.1079963352931372 [Eh]
	 Singles Energy            =      -0.0000000000000000 [Eh]
	 Same-Spin Energy          =      -0.2628948548085108 [Eh]
	 Opposite-Spin Energy      =      -0.9093552952300479 [Eh]
	 Correlation Energy        =      -1.1722501500385587 [Eh]
	 Total Energy              =    -250.2802464853317019 [Eh]

	 ================> DF-SCS-MP2 Energies <==================
	-----------------------------------------------------------
	 SCS Same-Spin Scale       =       0.3333333333333333 [-]
	 SCS Opposite-Spin Scale   =       1.2000000000000000 [-]
	 SCS Same-Spin Energy      =      -0.0876316182695036 [Eh]
	 SCS Opposite-Spin Energy  =      -1.0912263542760574 [Eh]
	 SCS Correlation Energy    =      -1.1788579725455610 [Eh]
	 SCS Total Energy          =    -250.2868543078386949 [Eh]
	-----------------------------------------------------------

  Dipole Moment: [D]
     X:     3.8962      Y:    -1.1241      Z:     0.5837     Total:     4.0969

*** Psi4 exiting successfully. Buy a developer a beer!
