                               Psi4 1.4a3.dev225

  ==> Input File <==

--------------------------------------------------------------------------
#psi4
#
memory 32 gb

molecule  {
0 1
  N       -2.7513610     0.1438680    -0.1944680
  C        0.7647750     0.0263420    -0.3418330
  C       -0.3397190    -0.8197720     0.3150330
  C        0.7287660     1.4657710     0.1638370
  C        2.1226780    -0.6220260    -0.0827390
  C       -1.6817970    -0.2974810     0.0424840
  H        0.5782550     0.0304320    -1.4233270
  H       -0.2896400    -1.8551110    -0.0410840
  H       -0.1876540    -0.8451710     1.4012950
  H        0.9032250     1.4956430     1.2452160
  H        1.5086800     2.0616750    -0.3191730
  H       -0.2358010     1.9387980    -0.0403200
  H        2.3360990    -0.6508680     0.9913740
  H        2.9204480    -0.0525400    -0.5681780
  H        2.1576980    -1.6469370    -0.4652230
units angstrom
no_reorient  #important for SAPT in psi4, default
symmetry c1  #important for SAPT in psi4, default
}

set PROPERTIES_ORIGIN ["COM"]
properties('MP2/aug-cc-pvtz', properties = ['dipole'])
--------------------------------------------------------------------------

    Molecular point group: c1
  Charge       = 0
  Multiplicity = 1
  Basis Set: AUG-CC-PVTZ
    Blend: AUG-CC-PVTZ
  Basis Set: (AUG-CC-PVTZ AUX)
    Blend: AUG-CC-PVTZ-JKFIT

    Orbital Energies [Eh]
    ---------------------

    Doubly Occupied:

       1A    -15.574393     2A    -11.281828     3A    -11.280560
       4A    -11.257524     5A    -11.233761     6A    -11.226789
       7A     -1.205792     8A     -1.119961     9A     -0.995952
      10A     -0.948952    11A     -0.806861    12A     -0.707360
      13A     -0.661692    14A     -0.624265    15A     -0.595539
      16A     -0.567205    17A     -0.554026    18A     -0.542712
      19A     -0.512598    20A     -0.496016    21A     -0.491807
      22A     -0.447929    23A     -0.443937

  @DF-RHF Final Energy:  -249.11407137801666

   => Energetics <=

    Nuclear Repulsion Energy =            220.1662075678788710
    One-Electron Energy =                -771.4056348857507146
    Two-Electron Energy =                 302.1253559398551261
    Total Energy =                       -249.1140713780166607
  Basis Set: (AUG-CC-PVTZ AUX)
    Blend: AUG-CC-PVTZ-RI
    Molecular point group: c1

    Geometry (in Angstrom), charge = 0, multiplicity = 1:

       Center              X                  Y                   Z               Mass
    ------------   -----------------  -----------------  -----------------  -----------------
         N           -2.635512613155     0.149546738177    -0.185137976125    14.003074004430
         C            0.880623386845     0.032020738177    -0.332502976125    12.000000000000
         C           -0.223870613155    -0.814093261823     0.324363023875    12.000000000000
         C            0.844614386845     1.471449738177     0.173167023875    12.000000000000
         C            2.238526386845    -0.616347261823    -0.073408976125    12.000000000000
         C           -1.565948613155    -0.291802261823     0.051814023875    12.000000000000
         H            0.694103386845     0.036110738177    -1.413996976125     1.007825032230
         H           -0.173791613155    -1.849432261823    -0.031753976125     1.007825032230
         H           -0.071805613155    -0.839492261823     1.410625023875     1.007825032230
         H            1.019073386845     1.501321738177     1.254546023875     1.007825032230
         H            1.624528386845     2.067353738177    -0.309842976125     1.007825032230
         H           -0.119952613155     1.944476738177    -0.030989976125     1.007825032230
         H            2.451947386845    -0.645189261823     1.000704023875     1.007825032230
         H            3.036296386845    -0.046861261823    -0.558847976125     1.007825032230
         H            2.273546386845    -1.641258261823    -0.455892976125     1.007825032230

  Basis Set: AUG-CC-PVTZ
    Blend: AUG-CC-PVTZ
  Basis Set: (AUG-CC-PVTZ AUX)
    Blend: AUG-CC-PVTZ-JKFIT
	 Reference Energy          =    -249.1140713780166607 [Eh]
	 Singles Energy            =      -0.0000000000000000 [Eh]
	 Same-Spin Energy          =      -0.2628695286656445 [Eh]
	 Opposite-Spin Energy      =      -0.9097978301530847 [Eh]
	 Correlation Energy        =      -1.1726673588187291 [Eh]
	 Total Energy              =    -250.2867387368353889 [Eh]

	 ================> DF-SCS-MP2 Energies <==================
	-----------------------------------------------------------
	 SCS Same-Spin Scale       =       0.3333333333333333 [-]
	 SCS Opposite-Spin Scale   =       1.2000000000000000 [-]
	 SCS Same-Spin Energy      =      -0.0876231762218815 [Eh]
	 SCS Opposite-Spin Energy  =      -1.0917573961837015 [Eh]
	 SCS Correlation Energy    =      -1.1793805724055830 [Eh]
	 SCS Total Energy          =    -250.2934519504222521 [Eh]
	-----------------------------------------------------------

  Dipole Moment: [D]
     X:     3.8765      Y:    -1.1169      Z:     0.5349     Total:     4.0695

*** Psi4 exiting successfully. Buy a developer a beer!
