                               Psi4 1.4a3.dev225

  ==> Input File <==

--------------------------------------------------------------------------
#psi4
#
memory 32 gb

molecule  {
0 1
  N       -2.7513610     0.1438680    -0.1944680
  C        0.7647750     0.0263420    -0.3418330
  C       -0.3397190    -0.8197720     0.3150330
  C        0.7287660     1.4657710     0.1638370
  C        2.1226780    -0.6220260    -0.0827390
  C       -1.6817970    -0.2974810     0.0424840
  H        0.5782550     0.0304320    -1.4233270
  H       -0.2957528    -1.8424607    -0.0766670
  H       -0.1876540    -0.8451710     1.4012950
  H        0.9032250     1.4956430     1.2452160
  H        1.5086800     2.0616750    -0.3191730
  H       -0.2358010     1.9387980    -0.0403200
  H        2.3360990    -0.6508680     0.9913740
  H        2.9204480    -0.0525400    -0.5681780
  H        2.1576980    -1.6469370    -0.4652230
units angstrom
no_reorient  #important for SAPT in psi4, default
symmetry c1  #important for SAPT in psi4, default
}

set PROPERTIES_ORIGIN ["COM"]
properties('MP2/aug-cc-pvtz', properties = ['dipole'])
--------------------------------------------------------------------------

    Molecular point group: c1
  Charge       = 0
  Multiplicity = 1
  Basis Set: AUG-CC-PVTZ
    Blend: AUG-CC-PVTZ
  Basis Set: (AUG-CC-PVTZ AUX)
    Blend: AUG-CC-PVTZ-JKFIT

    Orbital Energies [Eh]
    ---------------------

    Doubly Occupied:

       1A    -15.574189     2A    -11.281909     3A    -11.280339
       4A    -11.257422     5A    -11.233794     6A    -11.226686
       7A     -1.205708     8A     -1.120122     9A     -0.996037
      10A     -0.948938    11A     -0.806739    12A     -0.706305
      13A     -0.662565    14A     -0.623962    15A     -0.596749
      16A     -0.567482    17A     -0.553913    18A     -0.542356
      19A     -0.512339    20A     -0.495917    21A     -0.491964
      22A     -0.448237    23A     -0.443383

  @DF-RHF Final Energy:  -249.11398488252325

   => Energetics <=

    Nuclear Repulsion Energy =            220.1896742990028315
    One-Electron Energy =                -771.4532079071560702
    Two-Electron Energy =                 302.1495487256299839
    Total Energy =                       -249.1139848825232548
  Basis Set: (AUG-CC-PVTZ AUX)
    Blend: AUG-CC-PVTZ-RI
    Molecular point group: c1

    Geometry (in Angstrom), charge = 0, multiplicity = 1:

       Center              X                  Y                   Z               Mass
    ------------   -----------------  -----------------  -----------------  -----------------
         N           -2.635438454333     0.149393268189    -0.184706292875    14.003074004430
         C            0.880697545667     0.031867268189    -0.332071292875    12.000000000000
         C           -0.223796454333    -0.814246731811     0.324794707125    12.000000000000
         C            0.844688545667     1.471296268189     0.173598707125    12.000000000000
         C            2.238600545667    -0.616500731811    -0.072977292875    12.000000000000
         C           -1.565874454333    -0.291955731811     0.052245707125    12.000000000000
         H            0.694177545667     0.035957268189    -1.413565292875     1.007825032230
         H           -0.179830254333    -1.836935431811    -0.066905292875     1.007825032230
         H           -0.071731454333    -0.839645731811     1.411056707125     1.007825032230
         H            1.019147545667     1.501168268189     1.254977707125     1.007825032230
         H            1.624602545667     2.067200268189    -0.309411292875     1.007825032230
         H           -0.119878454333     1.944323268189    -0.030558292875     1.007825032230
         H            2.452021545667    -0.645342731811     1.001135707125     1.007825032230
         H            3.036370545667    -0.047014731811    -0.558416292875     1.007825032230
         H            2.273620545667    -1.641411731811    -0.455461292875     1.007825032230

  Basis Set: AUG-CC-PVTZ
    Blend: AUG-CC-PVTZ
  Basis Set: (AUG-CC-PVTZ AUX)
    Blend: AUG-CC-PVTZ-JKFIT
	 Reference Energy          =    -249.1139848825232548 [Eh]
	 Singles Energy            =      -0.0000000000000000 [Eh]
	 Same-Spin Energy          =      -0.2628719210031141 [Eh]
	 Opposite-Spin Energy      =      -0.9098132321894907 [Eh]
	 Correlation Energy        =      -1.1726851531926048 [Eh]
	 Total Energy              =    -250.2866700357158720 [Eh]

	 ================> DF-SCS-MP2 Energies <==================
	-----------------------------------------------------------
	 SCS Same-Spin Scale       =       0.3333333333333333 [-]
	 SCS Opposite-Spin Scale   =       1.2000000000000000 [-]
	 SCS Same-Spin Energy      =      -0.0876239736677047 [Eh]
	 SCS Opposite-Spin Energy  =      -1.0917758786273888 [Eh]
	 SCS Correlation Energy    =      -1.1793998522950935 [Eh]
	 SCS Total Energy          =    -250.2933847348183463 [Eh]
	-----------------------------------------------------------

  Dipole Moment: [D]
     X:     3.8781      Y:    -1.1115      Z:     0.5228     Total:     4.0679

*** Psi4 exiting successfully. Buy a developer a beer!
