                               Psi4 1.4a3.dev225

  ==> Input File <==

--------------------------------------------------------------------------
#psi4
#
memory 32 gb

molecule  {
0 1
  N       -2.7513610     0.1438680    -0.1944680
  C        0.7647750     0.0263420    -0.3418330
  C       -0.3397190    -0.8197720     0.3150330
  C        0.7292379     1.4469067     0.1572100
  C        2.1226780    -0.6220260    -0.0827390
  C       -1.6817970    -0.2974810     0.0424840
  H        0.5782550     0.0304320    -1.4233270
  H       -0.2896400    -1.8551110    -0.0410840
  H       -0.1876540    -0.8451710     1.4012950
  H        0.9032250     1.4956430     1.2452160
  H        1.5086800     2.0616750    -0.3191730
  H       -0.2358010     1.9387980    -0.0403200
  H        2.3360990    -0.6508680     0.9913740
  H        2.9204480    -0.0525400    -0.5681780
  H        2.1576980    -1.6469370    -0.4652230
units angstrom
no_reorient  #important for SAPT in psi4, default
symmetry c1  #important for SAPT in psi4, default
}

set PROPERTIES_ORIGIN ["COM"]
properties('MP2/aug-cc-pvtz', properties = ['dipole'])
--------------------------------------------------------------------------

    Molecular point group: c1
  Charge       = 0
  Multiplicity = 1
  Basis Set: AUG-CC-PVTZ
    Blend: AUG-CC-PVTZ
  Basis Set: (AUG-CC-PVTZ AUX)
    Blend: AUG-CC-PVTZ-JKFIT

    Orbital Energies [Eh]
    ---------------------

    Doubly Occupied:

       1A    -15.574408     2A    -11.281894     3A    -11.280582
       4A    -11.256743     5A    -11.233824     6A    -11.227651
       7A     -1.205864     8A     -1.122158     9A     -0.996629
      10A     -0.948882    11A     -0.806741    12A     -0.707712
      13A     -0.662656    14A     -0.624859    15A     -0.595336
      16A     -0.567484    17A     -0.552660    18A     -0.541631
      19A     -0.512235    20A     -0.498167    21A     -0.490515
      22A     -0.448067    23A     -0.443919

  @DF-RHF Final Energy:  -249.11342776471770

   => Energetics <=

    Nuclear Repulsion Energy =            220.4452614913485036
    One-Electron Energy =                -771.9561440241948276
    Two-Electron Energy =                 302.3974547681286822
    Total Energy =                       -249.1134277647176987
  Basis Set: (AUG-CC-PVTZ AUX)
    Blend: AUG-CC-PVTZ-RI
    Molecular point group: c1

    Geometry (in Angstrom), charge = 0, multiplicity = 1:

       Center              X                  Y                   Z               Mass
    ------------   -----------------  -----------------  -----------------  -----------------
         N           -2.635580779298     0.152271693812    -0.184180703340    14.003074004430
         C            0.880555220702     0.034745693812    -0.331545703340    12.000000000000
         C           -0.223938779298    -0.811368306188     0.325320296660    12.000000000000
         C            0.845018120702     1.455310393812     0.167497296660    12.000000000000
         C            2.238458220702    -0.613622306188    -0.072451703340    12.000000000000
         C           -1.566016779298    -0.289077306188     0.052771296660    12.000000000000
         H            0.694035220702     0.038835693812    -1.413039703340     1.007825032230
         H           -0.173859779298    -1.846707306188    -0.030796703340     1.007825032230
         H           -0.071873779298    -0.836767306188     1.411582296660     1.007825032230
         H            1.019005220702     1.504046693812     1.255503296660     1.007825032230
         H            1.624460220702     2.070078693812    -0.308885703340     1.007825032230
         H           -0.120020779298     1.947201693812    -0.030032703340     1.007825032230
         H            2.451879220702    -0.642464306188     1.001661296660     1.007825032230
         H            3.036228220702    -0.044136306188    -0.557890703340     1.007825032230
         H            2.273478220702    -1.638533306188    -0.454935703340     1.007825032230

  Basis Set: AUG-CC-PVTZ
    Blend: AUG-CC-PVTZ
  Basis Set: (AUG-CC-PVTZ AUX)
    Blend: AUG-CC-PVTZ-JKFIT
	 Reference Energy          =    -249.1134277647176987 [Eh]
	 Singles Energy            =      -0.0000000000000000 [Eh]
	 Same-Spin Energy          =      -0.2630423261942323 [Eh]
	 Opposite-Spin Energy      =      -0.9099677197492220 [Eh]
	 Correlation Energy        =      -1.1730100459434543 [Eh]
	 Total Energy              =    -250.2864378106611412 [Eh]

	 ================> DF-SCS-MP2 Energies <==================
	-----------------------------------------------------------
	 SCS Same-Spin Scale       =       0.3333333333333333 [-]
	 SCS Opposite-Spin Scale   =       1.2000000000000000 [-]
	 SCS Same-Spin Energy      =      -0.0876807753980774 [Eh]
	 SCS Opposite-Spin Energy  =      -1.0919612636990663 [Eh]
	 SCS Correlation Energy    =      -1.1796420390971438 [Eh]
	 SCS Total Energy          =    -250.2930698038148307 [Eh]
	-----------------------------------------------------------

  Dipole Moment: [D]
     X:     3.8749      Y:    -1.1142      Z:     0.5337     Total:     4.0671

*** Psi4 exiting successfully. Buy a developer a beer!
