                               Psi4 1.4a3.dev225

  ==> Input File <==

--------------------------------------------------------------------------
#psi4
#
memory 32 gb

molecule  {
0 1
  N       -2.7513610     0.1438680    -0.1944680
  C        0.7647750     0.0263420    -0.3418330
  C       -0.3397190    -0.8197720     0.3150330
  C        0.7287660     1.4657710     0.1638370
  C        2.1226780    -0.6220260    -0.0827390
  C       -1.6817970    -0.2974810     0.0424840
  H        0.5782550     0.0304320    -1.4233270
  H       -0.2896400    -1.8551110    -0.0410840
  H       -0.1876540    -0.8451710     1.4012950
  H        0.9032250     1.4956430     1.2452160
  H        1.5086800     2.0616750    -0.3191730
  H       -0.1475949     1.8955414    -0.0216506
  H        2.3360990    -0.6508680     0.9913740
  H        2.9204480    -0.0525400    -0.5681780
  H        2.1576980    -1.6469370    -0.4652230
units angstrom
no_reorient  #important for SAPT in psi4, default
symmetry c1  #important for SAPT in psi4, default
}

set PROPERTIES_ORIGIN ["COM"]
properties('MP2/aug-cc-pvtz', properties = ['dipole'])
--------------------------------------------------------------------------

    Molecular point group: c1
  Charge       = 0
  Multiplicity = 1
  Basis Set: AUG-CC-PVTZ
    Blend: AUG-CC-PVTZ
  Basis Set: (AUG-CC-PVTZ AUX)
    Blend: AUG-CC-PVTZ-JKFIT

    Orbital Energies [Eh]
    ---------------------

    Doubly Occupied:

       1A    -15.574800     2A    -11.281809     3A    -11.280750
       4A    -11.256776     5A    -11.233013     6A    -11.214892
       7A     -1.206120     8A     -1.120815     9A     -0.997338
      10A     -0.956639    11A     -0.809205    12A     -0.707280
      13A     -0.663146    14A     -0.631761    15A     -0.598202
      16A     -0.567462    17A     -0.555083    18A     -0.544190
      19A     -0.514060    20A     -0.500331    21A     -0.491534
      22A     -0.448428    23A     -0.444143

  @DF-RHF Final Energy:  -249.10810996608654

   => Energetics <=

    Nuclear Repulsion Energy =            220.5734684277353495
    One-Electron Energy =                -772.1676014619213220
    Two-Electron Energy =                 302.4860230680993709
    Total Energy =                       -249.1081099660865448
  Basis Set: (AUG-CC-PVTZ AUX)
    Blend: AUG-CC-PVTZ-RI
    Molecular point group: c1

    Geometry (in Angstrom), charge = 0, multiplicity = 1:

       Center              X                  Y                   Z               Mass
    ------------   -----------------  -----------------  -----------------  -----------------
         N           -2.636582705499     0.150071515449    -0.185364468193    14.003074004430
         C            0.879553294501     0.032545515449    -0.332729468193    12.000000000000
         C           -0.224940705499    -0.813568484551     0.324136531807    12.000000000000
         C            0.843544294501     1.471974515449     0.172940531807    12.000000000000
         C            2.237456294501    -0.615822484551    -0.073635468193    12.000000000000
         C           -1.567018705499    -0.291277484551     0.051587531807    12.000000000000
         H            0.693033294501     0.036635515449    -1.414223468193     1.007825032230
         H           -0.174861705499    -1.848907484551    -0.031980468193     1.007825032230
         H           -0.072875705499    -0.838967484551     1.410398531807     1.007825032230
         H            1.018003294501     1.501846515449     1.254319531807     1.007825032230
         H            1.623458294501     2.067878515449    -0.310069468193     1.007825032230
         H           -0.032816605499     1.901744915449    -0.012547068193     1.007825032230
         H            2.450877294501    -0.644664484551     1.000477531807     1.007825032230
         H            3.035226294501    -0.046336484551    -0.559074468193     1.007825032230
         H            2.272476294501    -1.640733484551    -0.456119468193     1.007825032230

  Basis Set: AUG-CC-PVTZ
    Blend: AUG-CC-PVTZ
  Basis Set: (AUG-CC-PVTZ AUX)
    Blend: AUG-CC-PVTZ-JKFIT
	 Reference Energy          =    -249.1081099660865448 [Eh]
	 Singles Energy            =      -0.0000000000000000 [Eh]
	 Same-Spin Energy          =      -0.2628079618913798 [Eh]
	 Opposite-Spin Energy      =      -0.9092207681761655 [Eh]
	 Correlation Energy        =      -1.1720287300675452 [Eh]
	 Total Energy              =    -250.2801386961540970 [Eh]

	 ================> DF-SCS-MP2 Energies <==================
	-----------------------------------------------------------
	 SCS Same-Spin Scale       =       0.3333333333333333 [-]
	 SCS Opposite-Spin Scale   =       1.2000000000000000 [-]
	 SCS Same-Spin Energy      =      -0.0876026539637933 [Eh]
	 SCS Opposite-Spin Energy  =      -1.0910649218113986 [Eh]
	 SCS Correlation Energy    =      -1.1786675757751919 [Eh]
	 SCS Total Energy          =    -250.2867775418617384 [Eh]
	-----------------------------------------------------------

  Dipole Moment: [D]
     X:     3.8451      Y:    -1.0880      Z:     0.5334     Total:     4.0316

*** Psi4 exiting successfully. Buy a developer a beer!
