                               Psi4 1.4a3.dev225

  ==> Input File <==

--------------------------------------------------------------------------
#psi4
#
memory 32 gb

molecule  {
0 1
  N       -2.7513610     0.1438680    -0.1944680
  C        0.7647750     0.0263420    -0.3418330
  C       -0.3397190    -0.8197720     0.3150330
  C        0.7287660     1.4657710     0.1638370
  C        2.1226780    -0.6220260    -0.0827390
  C       -1.6817970    -0.2974810     0.0424840
  H        0.5782550     0.0304320    -1.4233270
  H       -0.2896400    -1.8551110    -0.0410840
  H       -0.1876540    -0.8451710     1.4012950
  H        0.9032250     1.4956430     1.2452160
  H        1.5086800     2.0616750    -0.3191730
  H       -0.2358010     1.9387980    -0.0403200
  H        2.3750626    -0.6561336     1.1874712
  H        2.9204480    -0.0525400    -0.5681780
  H        2.1576980    -1.6469370    -0.4652230
units angstrom
no_reorient  #important for SAPT in psi4, default
symmetry c1  #important for SAPT in psi4, default
}

set PROPERTIES_ORIGIN ["COM"]
properties('MP2/aug-cc-pvtz', properties = ['dipole'])
--------------------------------------------------------------------------

    Molecular point group: c1
  Charge       = 0
  Multiplicity = 1
  Basis Set: AUG-CC-PVTZ
    Blend: AUG-CC-PVTZ
  Basis Set: (AUG-CC-PVTZ AUX)
    Blend: AUG-CC-PVTZ-JKFIT

    Orbital Energies [Eh]
    ---------------------

    Doubly Occupied:

       1A    -15.574843     2A    -11.282296     3A    -11.280961
       4A    -11.260549     5A    -11.257173     6A    -11.227280
       7A     -1.206238     8A     -1.119734     9A     -0.994214
      10A     -0.942566    11A     -0.801740    12A     -0.707972
      13A     -0.660177    14A     -0.625422    15A     -0.593559
      16A     -0.565505    17A     -0.545323    18A     -0.533479
      19A     -0.513115    20A     -0.498784    21A     -0.480134
      22A     -0.448357    23A     -0.444651

  @DF-RHF Final Energy:  -249.09447256577107

   => Energetics <=

    Nuclear Repulsion Energy =            219.4452869191197237
    One-Electron Energy =                -769.9513784809525987
    Two-Electron Energy =                 301.4116189960617476
    Total Energy =                       -249.0944725657710705
  Basis Set: (AUG-CC-PVTZ AUX)
    Blend: AUG-CC-PVTZ-RI
    Molecular point group: c1

    Geometry (in Angstrom), charge = 0, multiplicity = 1:

       Center              X                  Y                   Z               Mass
    ------------   -----------------  -----------------  -----------------  -----------------
         N           -2.635985308922     0.149610619000    -0.187516973863    14.003074004430
         C            0.880150691078     0.032084619000    -0.334881973863    12.000000000000
         C           -0.224343308922    -0.814029381000     0.321984026137    12.000000000000
         C            0.844141691078     1.471513619000     0.170788026137    12.000000000000
         C            2.238053691078    -0.616283381000    -0.075787973863    12.000000000000
         C           -1.566421308922    -0.291738381000     0.049435026137    12.000000000000
         H            0.693630691078     0.036174619000    -1.416375973863     1.007825032230
         H           -0.174264308922    -1.849368381000    -0.034132973863     1.007825032230
         H           -0.072278308922    -0.839428381000     1.408246026137     1.007825032230
         H            1.018600691078     1.501385619000     1.252167026137     1.007825032230
         H            1.624055691078     2.067417619000    -0.312221973863     1.007825032230
         H           -0.120425308922     1.944540619000    -0.033368973863     1.007825032230
         H            2.490438291078    -0.650390981000     1.194422226137     1.007825032230
         H            3.035823691078    -0.046797381000    -0.561226973863     1.007825032230
         H            2.273073691078    -1.641194381000    -0.458271973863     1.007825032230

  Basis Set: AUG-CC-PVTZ
    Blend: AUG-CC-PVTZ
  Basis Set: (AUG-CC-PVTZ AUX)
    Blend: AUG-CC-PVTZ-JKFIT
	 Reference Energy          =    -249.0944725657710705 [Eh]
	 Singles Energy            =      -0.0000000000000000 [Eh]
	 Same-Spin Energy          =      -0.2628506971690288 [Eh]
	 Opposite-Spin Energy      =      -0.9112910100812721 [Eh]
	 Correlation Energy        =      -1.1741417072503009 [Eh]
	 Total Energy              =    -250.2686142730213703 [Eh]

	 ================> DF-SCS-MP2 Energies <==================
	-----------------------------------------------------------
	 SCS Same-Spin Scale       =       0.3333333333333333 [-]
	 SCS Opposite-Spin Scale   =       1.2000000000000000 [-]
	 SCS Same-Spin Energy      =      -0.0876168990563429 [Eh]
	 SCS Opposite-Spin Energy  =      -1.0935492120975265 [Eh]
	 SCS Correlation Energy    =      -1.1811661111538694 [Eh]
	 SCS Total Energy          =    -250.2756386769249275 [Eh]
	-----------------------------------------------------------

  Dipole Moment: [D]
     X:     3.8196      Y:    -1.0966      Z:     0.3993     Total:     3.9940

*** Psi4 exiting successfully. Buy a developer a beer!
