                               Psi4 1.4a3.dev225

  ==> Input File <==

--------------------------------------------------------------------------
#psi4
#
memory 32 gb

molecule  {
0 1
  N       -2.7513610     0.1438680    -0.1944680
  C        0.7647750     0.0263420    -0.3418330
  C       -0.3397190    -0.8197720     0.3150330
  C        0.7287660     1.4657710     0.1638370
  C        2.1226780    -0.6220260    -0.0827390
  C       -1.6817970    -0.2974810     0.0424840
  H        0.5782550     0.0304320    -1.4233270
  H       -0.2776047    -1.8766135     0.0313396
  H       -0.1876540    -0.8451710     1.4012950
  H        0.9032250     1.4956430     1.2452160
  H        1.5086800     2.0616750    -0.3191730
  H       -0.2358010     1.9387980    -0.0403200
  H        2.3360990    -0.6508680     0.9913740
  H        2.9204480    -0.0525400    -0.5681780
  H        2.1576980    -1.6469370    -0.4652230
units angstrom
no_reorient  #important for SAPT in psi4, default
symmetry c1  #important for SAPT in psi4, default
}

set PROPERTIES_ORIGIN ["COM"]
properties('MP2/aug-cc-pvtz', properties = ['dipole'])
--------------------------------------------------------------------------

    Molecular point group: c1
  Charge       = 0
  Multiplicity = 1
  Basis Set: AUG-CC-PVTZ
    Blend: AUG-CC-PVTZ
  Basis Set: (AUG-CC-PVTZ AUX)
    Blend: AUG-CC-PVTZ-JKFIT

    Orbital Energies [Eh]
    ---------------------

    Doubly Occupied:

       1A    -15.574753     2A    -11.281760     3A    -11.280935
       4A    -11.257769     5A    -11.233714     6A    -11.226975
       7A     -1.205946     8A     -1.119699     9A     -0.995879
      10A     -0.948983    11A     -0.807172    12A     -0.709861
      13A     -0.659898    14A     -0.624791    15A     -0.593095
      16A     -0.566492    17A     -0.554288    18A     -0.543269
      19A     -0.513061    20A     -0.496200    21A     -0.491492
      22A     -0.447215    23A     -0.444859

  @DF-RHF Final Energy:  -249.11339809032671

   => Energetics <=

    Nuclear Repulsion Energy =            220.1236508202731557
    One-Electron Energy =                -771.3178860576947500
    Two-Electron Energy =                 302.0808371470948828
    Total Energy =                       -249.1133980903267116
  Basis Set: (AUG-CC-PVTZ AUX)
    Blend: AUG-CC-PVTZ-RI
    Molecular point group: c1

    Geometry (in Angstrom), charge = 0, multiplicity = 1:

       Center              X                  Y                   Z               Mass
    ------------   -----------------  -----------------  -----------------  -----------------
         N           -2.635658622132     0.149807600642    -0.186016599484    14.003074004430
         C            0.880477377868     0.032281600642    -0.333381599484    12.000000000000
         C           -0.224016622132    -0.813832399358     0.323484400516    12.000000000000
         C            0.844468377868     1.471710600642     0.172288400516    12.000000000000
         C            2.238380377868    -0.616086399358    -0.074287599484    12.000000000000
         C           -1.566094622132    -0.291541399358     0.050935400516    12.000000000000
         H            0.693957377868     0.036371600642    -1.414875599484     1.007825032230
         H           -0.161902322132    -1.870673899358     0.039791000516     1.007825032230
         H           -0.071951622132    -0.839231399358     1.409746400516     1.007825032230
         H            1.018927377868     1.501582600642     1.253667400516     1.007825032230
         H            1.624382377868     2.067614600642    -0.310721599484     1.007825032230
         H           -0.120098622132     1.944737600642    -0.031868599484     1.007825032230
         H            2.451801377868    -0.644928399358     0.999825400516     1.007825032230
         H            3.036150377868    -0.046600399358    -0.559726599484     1.007825032230
         H            2.273400377868    -1.640997399358    -0.456771599484     1.007825032230

  Basis Set: AUG-CC-PVTZ
    Blend: AUG-CC-PVTZ
  Basis Set: (AUG-CC-PVTZ AUX)
    Blend: AUG-CC-PVTZ-JKFIT
	 Reference Energy          =    -249.1133980903267116 [Eh]
	 Singles Energy            =      -0.0000000000000000 [Eh]
	 Same-Spin Energy          =      -0.2629064715339401 [Eh]
	 Opposite-Spin Energy      =      -0.9098355463159861 [Eh]
	 Correlation Energy        =      -1.1727420178499262 [Eh]
	 Total Energy              =    -250.2861401081766246 [Eh]

	 ================> DF-SCS-MP2 Energies <==================
	-----------------------------------------------------------
	 SCS Same-Spin Scale       =       0.3333333333333333 [-]
	 SCS Opposite-Spin Scale   =       1.2000000000000000 [-]
	 SCS Same-Spin Energy      =      -0.0876354905113134 [Eh]
	 SCS Opposite-Spin Energy  =      -1.0918026555791833 [Eh]
	 SCS Correlation Energy    =      -1.1794381460904966 [Eh]
	 SCS Total Energy          =    -250.2928362364172017 [Eh]
	-----------------------------------------------------------

  Dipole Moment: [D]
     X:     3.8752      Y:    -1.1269      Z:     0.5616     Total:     4.0747

*** Psi4 exiting successfully. Buy a developer a beer!
