                               Psi4 1.4a3.dev225

  ==> Input File <==

--------------------------------------------------------------------------
#psi4
#
memory 32 gb

molecule  {
0 1
  N       -2.7513610     0.1438680    -0.1944680
  C        0.7647750     0.0263420    -0.3418330
  C       -0.3397190    -0.8197720     0.3150330
  C        0.7287660     1.4657710     0.1638370
  C        2.1226780    -0.6220260    -0.0827390
  C       -1.6817970    -0.2974810     0.0424840
  H        0.5782550     0.0304320    -1.4233270
  H       -0.2896400    -1.8551110    -0.0410840
  H       -0.1876540    -0.8451710     1.4012950
  H        0.9032250     1.4956430     1.2452160
  H        1.5086800     2.0616750    -0.3191730
  H       -0.0593887     1.8522848    -0.0029812
  H        2.3360990    -0.6508680     0.9913740
  H        2.9204480    -0.0525400    -0.5681780
  H        2.1576980    -1.6469370    -0.4652230
units angstrom
no_reorient  #important for SAPT in psi4, default
symmetry c1  #important for SAPT in psi4, default
}

set PROPERTIES_ORIGIN ["COM"]
properties('MP2/aug-cc-pvtz', properties = ['dipole'])
--------------------------------------------------------------------------

    Molecular point group: c1
  Charge       = 0
  Multiplicity = 1
  Basis Set: AUG-CC-PVTZ
    Blend: AUG-CC-PVTZ
  Basis Set: (AUG-CC-PVTZ AUX)
    Blend: AUG-CC-PVTZ-JKFIT

    Orbital Energies [Eh]
    ---------------------

    Doubly Occupied:

       1A    -15.575126     2A    -11.281839     3A    -11.280895
       4A    -11.256251     5A    -11.232476     6A    -11.202979
       7A     -1.206391     8A     -1.122440     9A     -1.000716
      10A     -0.965951    11A     -0.812297    12A     -0.707264
      13A     -0.666694    14A     -0.640335    15A     -0.600099
      16A     -0.567759    17A     -0.556562    18A     -0.545104
      19A     -0.515984    20A     -0.502606    21A     -0.491168
      22A     -0.448772    23A     -0.444251

  @DF-RHF Final Energy:  -249.08014891175162

   => Energetics <=

    Nuclear Repulsion Energy =            221.0488954350565223
    One-Electron Energy =                -773.0101719158753895
    Two-Electron Energy =                 302.8811275690673028
    Total Energy =                       -249.0801489117516212
  Basis Set: (AUG-CC-PVTZ AUX)
    Blend: AUG-CC-PVTZ-RI
    Molecular point group: c1

    Geometry (in Angstrom), charge = 0, multiplicity = 1:

       Center              X                  Y                   Z               Mass
    ------------   -----------------  -----------------  -----------------  -----------------
         N           -2.637652799056     0.150596292720    -0.185590960261    14.003074004430
         C            0.878483200944     0.033070292720    -0.332955960261    12.000000000000
         C           -0.226010799056    -0.813043707280     0.323910039739    12.000000000000
         C            0.842474200944     1.472499292720     0.172714039739    12.000000000000
         C            2.236386200944    -0.615297707280    -0.073861960261    12.000000000000
         C           -1.568088799056    -0.290752707280     0.051361039739    12.000000000000
         H            0.691963200944     0.037160292720    -1.414449960261     1.007825032230
         H           -0.175931799056    -1.848382707280    -0.032206960261     1.007825032230
         H           -0.073945799056    -0.838442707280     1.410172039739     1.007825032230
         H            1.016933200944     1.502371292720     1.254093039739     1.007825032230
         H            1.622388200944     2.068403292720    -0.310295960261     1.007825032230
         H            0.054319500944     1.859013092720     0.005895839739     1.007825032230
         H            2.449807200944    -0.644139707280     1.000251039739     1.007825032230
         H            3.034156200944    -0.045811707280    -0.559300960261     1.007825032230
         H            2.271406200944    -1.640208707280    -0.456345960261     1.007825032230

  Basis Set: AUG-CC-PVTZ
    Blend: AUG-CC-PVTZ
  Basis Set: (AUG-CC-PVTZ AUX)
    Blend: AUG-CC-PVTZ-JKFIT
	 Reference Energy          =    -249.0801489117516212 [Eh]
	 Singles Energy            =      -0.0000000000000000 [Eh]
	 Same-Spin Energy          =      -0.2628219458943315 [Eh]
	 Opposite-Spin Energy      =      -0.9090242928868686 [Eh]
	 Correlation Energy        =      -1.1718462387812001 [Eh]
	 Total Energy              =    -250.2519951505328208 [Eh]

	 ================> DF-SCS-MP2 Energies <==================
	-----------------------------------------------------------
	 SCS Same-Spin Scale       =       0.3333333333333333 [-]
	 SCS Opposite-Spin Scale   =       1.2000000000000000 [-]
	 SCS Same-Spin Energy      =      -0.0876073152981105 [Eh]
	 SCS Opposite-Spin Energy  =      -1.0908291514642423 [Eh]
	 SCS Correlation Energy    =      -1.1784364667623528 [Eh]
	 SCS Total Energy          =    -250.2585853785139705 [Eh]
	-----------------------------------------------------------

  Dipole Moment: [D]
     X:     3.8245      Y:    -1.0678      Z:     0.5336     Total:     4.0064

*** Psi4 exiting successfully. Buy a developer a beer!
