                               Psi4 1.4a3.dev225

  ==> Input File <==

--------------------------------------------------------------------------
#psi4
#
memory 32 gb

molecule  {
0 1
  N       -2.7513610     0.1438680    -0.1944680
  C        0.7647750     0.0263420    -0.3418330
  C       -0.3397190    -0.8197720     0.3150330
  C        0.7287660     1.4657710     0.1638370
  C        2.1226780    -0.6220260    -0.0827390
  C       -1.6817970    -0.2974810     0.0424840
  H        0.5782550     0.0304320    -1.4233270
  H       -0.2896400    -1.8551110    -0.0410840
  H       -0.1876540    -0.8451710     1.4012950
  H        0.9032250     1.4956430     1.2452160
  H        1.5086800     2.0616750    -0.3191730
  H       -0.2358010     1.9387980    -0.0403200
  H        2.3360990    -0.6508680     0.9913740
  H        3.0663190     0.0515897    -0.6569398
  H        2.1576980    -1.6469370    -0.4652230
units angstrom
no_reorient  #important for SAPT in psi4, default
symmetry c1  #important for SAPT in psi4, default
}

set PROPERTIES_ORIGIN ["COM"]
properties('MP2/aug-cc-pvtz', properties = ['dipole'])
--------------------------------------------------------------------------

    Molecular point group: c1
  Charge       = 0
  Multiplicity = 1
  Basis Set: AUG-CC-PVTZ
    Blend: AUG-CC-PVTZ
  Basis Set: (AUG-CC-PVTZ AUX)
    Blend: AUG-CC-PVTZ-JKFIT

    Orbital Energies [Eh]
    ---------------------

    Doubly Occupied:

       1A    -15.575837     2A    -11.284070     3A    -11.282085
       4A    -11.259853     5A    -11.256656     6A    -11.226956
       7A     -1.207126     8A     -1.120421     9A     -0.993799
      10A     -0.942467    11A     -0.803240    12A     -0.705641
      13A     -0.663557    14A     -0.623412    15A     -0.594881
      16A     -0.566737    17A     -0.552467    18A     -0.528034
      19A     -0.498903    20A     -0.498369    21A     -0.493180
      22A     -0.449264    23A     -0.443384

  @DF-RHF Final Energy:  -249.09397485614602

   => Energetics <=

    Nuclear Repulsion Energy =            219.4162926115268135
    One-Electron Energy =                -769.8798586967244546
    Two-Electron Energy =                 301.3695912290515935
    Total Energy =                       -249.0939748561460192
  Basis Set: (AUG-CC-PVTZ AUX)
    Blend: AUG-CC-PVTZ-RI
    Molecular point group: c1

    Geometry (in Angstrom), charge = 0, multiplicity = 1:

       Center              X                  Y                   Z               Mass
    ------------   -----------------  -----------------  -----------------  -----------------
         N           -2.637282280336     0.148283465062    -0.184061142180    14.003074004430
         C            0.878853719664     0.030757465062    -0.331426142180    12.000000000000
         C           -0.225640280336    -0.815356534938     0.325439857820    12.000000000000
         C            0.842844719664     1.470186465062     0.174243857820    12.000000000000
         C            2.236756719664    -0.617610534938    -0.072332142180    12.000000000000
         C           -1.567718280336    -0.293065534938     0.052890857820    12.000000000000
         H            0.692333719664     0.034847465062    -1.412920142180     1.007825032230
         H           -0.175561280336    -1.850695534938    -0.030677142180     1.007825032230
         H           -0.073575280336    -0.840755534938     1.411701857820     1.007825032230
         H            1.017303719664     1.500058465062     1.255622857820     1.007825032230
         H            1.622758719664     2.066090465062    -0.308766142180     1.007825032230
         H           -0.121722280336     1.943213465062    -0.029913142180     1.007825032230
         H            2.450177719664    -0.646452534938     1.001780857820     1.007825032230
         H            3.180397719664     0.056005165062    -0.646532942180     1.007825032230
         H            2.271776719664    -1.642521534938    -0.454816142180     1.007825032230

  Basis Set: AUG-CC-PVTZ
    Blend: AUG-CC-PVTZ
  Basis Set: (AUG-CC-PVTZ AUX)
    Blend: AUG-CC-PVTZ-JKFIT
	 Reference Energy          =    -249.0939748561460192 [Eh]
	 Singles Energy            =      -0.0000000000000000 [Eh]
	 Same-Spin Energy          =      -0.2628623355289010 [Eh]
	 Opposite-Spin Energy      =      -0.9114245426423502 [Eh]
	 Correlation Energy        =      -1.1742868781712512 [Eh]
	 Total Energy              =    -250.2682617343172637 [Eh]

	 ================> DF-SCS-MP2 Energies <==================
	-----------------------------------------------------------
	 SCS Same-Spin Scale       =       0.3333333333333333 [-]
	 SCS Opposite-Spin Scale   =       1.2000000000000000 [-]
	 SCS Same-Spin Energy      =      -0.0876207785096337 [Eh]
	 SCS Opposite-Spin Energy  =      -1.0937094511708201 [Eh]
	 SCS Correlation Energy    =      -1.1813302296804538 [Eh]
	 SCS Total Energy          =    -250.2753050858264601 [Eh]
	-----------------------------------------------------------

  Dipole Moment: [D]
     X:     3.7305      Y:    -1.1650      Z:     0.5854     Total:     3.9518

*** Psi4 exiting successfully. Buy a developer a beer!
