                               Psi4 1.4a3.dev225

  ==> Input File <==

--------------------------------------------------------------------------
#psi4
#
memory 32 gb

molecule  {
0 1
  N       -2.7513610     0.1438680    -0.1944680
  C        0.7647750     0.0263420    -0.3418330
  C       -0.3397190    -0.8197720     0.3150330
  C        0.7287660     1.4657710     0.1638370
  C        2.1226780    -0.6220260    -0.0827390
  C       -1.6817970    -0.2974810     0.0424840
  H        0.5782550     0.0304320    -1.4233270
  H       -0.2896400    -1.8551110    -0.0410840
  H       -0.1876540    -0.8451710     1.4012950
  H        0.9032250     1.4956430     1.2452160
  H        1.5086800     2.0616750    -0.3191730
  H       -0.2358010     1.9387980    -0.0403200
  H        2.3399954    -0.6513946     1.0109837
  H        2.9204480    -0.0525400    -0.5681780
  H        2.1576980    -1.6469370    -0.4652230
units angstrom
no_reorient  #important for SAPT in psi4, default
symmetry c1  #important for SAPT in psi4, default
}

set PROPERTIES_ORIGIN ["COM"]
properties('MP2/aug-cc-pvtz', properties = ['dipole'])
--------------------------------------------------------------------------

    Molecular point group: c1
  Charge       = 0
  Multiplicity = 1
  Basis Set: AUG-CC-PVTZ
    Blend: AUG-CC-PVTZ
  Basis Set: (AUG-CC-PVTZ AUX)
    Blend: AUG-CC-PVTZ-JKFIT

    Orbital Energies [Eh]
    ---------------------

    Doubly Occupied:

       1A    -15.574425     2A    -11.281859     3A    -11.280588
       4A    -11.257776     5A    -11.236237     6A    -11.226822
       7A     -1.205823     8A     -1.119839     9A     -0.995613
      10A     -0.948025    11A     -0.806142    12A     -0.707404
      13A     -0.661442    14A     -0.624275    15A     -0.595143
      16A     -0.566510    17A     -0.552440    18A     -0.542698
      19A     -0.512637    20A     -0.496233    21A     -0.491147
      22A     -0.447960    23A     -0.443992

  @DF-RHF Final Energy:  -249.11358003916584

   => Energetics <=

    Nuclear Repulsion Energy =            220.0865330356950267
    One-Electron Energy =                -771.2501693118501862
    Two-Electron Energy =                 302.0500562369892918
    Total Energy =                       -249.1135800391658108
  Basis Set: (AUG-CC-PVTZ AUX)
    Blend: AUG-CC-PVTZ-RI
    Molecular point group: c1

    Geometry (in Angstrom), charge = 0, multiplicity = 1:

       Center              X                  Y                   Z               Mass
    ------------   -----------------  -----------------  -----------------  -----------------
         N           -2.635559883217     0.149553126745    -0.185375875656    14.003074004430
         C            0.880576116783     0.032027126745    -0.332740875656    12.000000000000
         C           -0.223917883217    -0.814086873255     0.324125124344    12.000000000000
         C            0.844567116783     1.471456126745     0.172929124344    12.000000000000
         C            2.238479116783    -0.616340873255    -0.073646875656    12.000000000000
         C           -1.565995883217    -0.291795873255     0.051576124344    12.000000000000
         H            0.694056116783     0.036117126745    -1.414234875656     1.007825032230
         H           -0.173838883217    -1.849425873255    -0.031991875656     1.007825032230
         H           -0.071852883217    -0.839485873255     1.410387124344     1.007825032230
         H            1.019026116783     1.501328126745     1.254308124344     1.007825032230
         H            1.624481116783     2.067360126745    -0.310080875656     1.007825032230
         H           -0.119999883217     1.944483126745    -0.031227875656     1.007825032230
         H            2.455796516783    -0.645709473255     1.020075824344     1.007825032230
         H            3.036249116783    -0.046854873255    -0.559085875656     1.007825032230
         H            2.273499116783    -1.641251873255    -0.456130875656     1.007825032230

  Basis Set: AUG-CC-PVTZ
    Blend: AUG-CC-PVTZ
  Basis Set: (AUG-CC-PVTZ AUX)
    Blend: AUG-CC-PVTZ-JKFIT
	 Reference Energy          =    -249.1135800391658393 [Eh]
	 Singles Energy            =      -0.0000000000000000 [Eh]
	 Same-Spin Energy          =      -0.2628679225316065 [Eh]
	 Opposite-Spin Energy      =      -0.9099180473657523 [Eh]
	 Correlation Energy        =      -1.1727859698973588 [Eh]
	 Total Energy              =    -250.2863660090631868 [Eh]

	 ================> DF-SCS-MP2 Energies <==================
	-----------------------------------------------------------
	 SCS Same-Spin Scale       =       0.3333333333333333 [-]
	 SCS Opposite-Spin Scale   =       1.2000000000000000 [-]
	 SCS Same-Spin Energy      =      -0.0876226408438688 [Eh]
	 SCS Opposite-Spin Energy  =      -1.0919016568389028 [Eh]
	 SCS Correlation Energy    =      -1.1795242976827716 [Eh]
	 SCS Total Energy          =    -250.2931043368486144 [Eh]
	-----------------------------------------------------------

  Dipole Moment: [D]
     X:     3.8719      Y:    -1.1152      Z:     0.5235     Total:     4.0631

*** Psi4 exiting successfully. Buy a developer a beer!
