                               Psi4 1.4a3.dev225

  ==> Input File <==

--------------------------------------------------------------------------
#psi4
#
memory 32 gb

molecule  {
0 1
  N       -2.7513610     0.1438680    -0.1944680
  C        0.7647750     0.0263420    -0.3418330
  C       -0.3397190    -0.8197720     0.3150330
  C        0.7287660     1.4657710     0.1638370
  C        2.1226780    -0.6220260    -0.0827390
  C       -1.6817970    -0.2974810     0.0424840
  H        0.5782550     0.0304320    -1.4233270
  H       -0.2896400    -1.8551110    -0.0410840
  H       -0.1876540    -0.8451710     1.4012950
  H        0.9032250     1.4956430     1.2452160
  H        1.4373848     2.0072009    -0.2750190
  H       -0.2358010     1.9387980    -0.0403200
  H        2.3360990    -0.6508680     0.9913740
  H        2.9204480    -0.0525400    -0.5681780
  H        2.1576980    -1.6469370    -0.4652230
units angstrom
no_reorient  #important for SAPT in psi4, default
symmetry c1  #important for SAPT in psi4, default
}

set PROPERTIES_ORIGIN ["COM"]
properties('MP2/aug-cc-pvtz', properties = ['dipole'])
--------------------------------------------------------------------------

    Molecular point group: c1
  Charge       = 0
  Multiplicity = 1
  Basis Set: AUG-CC-PVTZ
    Blend: AUG-CC-PVTZ
  Basis Set: (AUG-CC-PVTZ AUX)
    Blend: AUG-CC-PVTZ-JKFIT

    Orbital Energies [Eh]
    ---------------------

    Doubly Occupied:

       1A    -15.573806     2A    -11.281041     3A    -11.279991
       4A    -11.256706     5A    -11.233783     6A    -11.214287
       7A     -1.205232     8A     -1.120507     9A     -0.998207
      10A     -0.955360    11A     -0.809792    12A     -0.706750
      13A     -0.666139    14A     -0.626364    15A     -0.594880
      16A     -0.567813    17A     -0.557582    18A     -0.547465
      19A     -0.517199    20A     -0.495223    21A     -0.491181
      22A     -0.447353    23A     -0.443679

  @DF-RHF Final Energy:  -249.10802217864486

   => Energetics <=

    Nuclear Repulsion Energy =            220.6278641808361272
    One-Electron Energy =                -772.2910911058821739
    Two-Electron Energy =                 302.5552047464011594
    Total Energy =                       -249.1080221786448874
  Basis Set: (AUG-CC-PVTZ AUX)
    Blend: AUG-CC-PVTZ-RI
    Molecular point group: c1

    Geometry (in Angstrom), charge = 0, multiplicity = 1:

       Center              X                  Y                   Z               Mass
    ------------   -----------------  -----------------  -----------------  -----------------
         N           -2.634647679237     0.150207603099    -0.185673640408    14.003074004430
         C            0.881488320763     0.032681603099    -0.333038640408    12.000000000000
         C           -0.223005679237    -0.813432396901     0.323827359592    12.000000000000
         C            0.845479320763     1.472110603099     0.172631359592    12.000000000000
         C            2.239391320763    -0.615686396901    -0.073944640408    12.000000000000
         C           -1.565083679237    -0.291141396901     0.051278359592    12.000000000000
         H            0.694968320763     0.036771603099    -1.414532640408     1.007825032230
         H           -0.172926679237    -1.848771396901    -0.032289640408     1.007825032230
         H           -0.070940679237    -0.838831396901     1.410089359592     1.007825032230
         H            1.019938320763     1.501982603099     1.254010359592     1.007825032230
         H            1.554098120763     2.013540503099    -0.266224640408     1.007825032230
         H           -0.119087679237     1.945137603099    -0.031525640408     1.007825032230
         H            2.452812320763    -0.644528396901     1.000168359592     1.007825032230
         H            3.037161320763    -0.046200396901    -0.559383640408     1.007825032230
         H            2.274411320763    -1.640597396901    -0.456428640408     1.007825032230

  Basis Set: AUG-CC-PVTZ
    Blend: AUG-CC-PVTZ
  Basis Set: (AUG-CC-PVTZ AUX)
    Blend: AUG-CC-PVTZ-JKFIT
	 Reference Energy          =    -249.1080221786448590 [Eh]
	 Singles Energy            =      -0.0000000000000000 [Eh]
	 Same-Spin Energy          =      -0.2628983187501865 [Eh]
	 Opposite-Spin Energy      =      -0.9093133691202108 [Eh]
	 Correlation Energy        =      -1.1722116878703974 [Eh]
	 Total Energy              =    -250.2802338665152604 [Eh]

	 ================> DF-SCS-MP2 Energies <==================
	-----------------------------------------------------------
	 SCS Same-Spin Scale       =       0.3333333333333333 [-]
	 SCS Opposite-Spin Scale   =       1.2000000000000000 [-]
	 SCS Same-Spin Energy      =      -0.0876327729167288 [Eh]
	 SCS Opposite-Spin Energy  =      -1.0911760429442530 [Eh]
	 SCS Correlation Energy    =      -1.1788088158609817 [Eh]
	 SCS Total Energy          =    -250.2868309945058343 [Eh]
	-----------------------------------------------------------

  Dipole Moment: [D]
     X:     3.9169      Y:    -1.0771      Z:     0.5199     Total:     4.0955

*** Psi4 exiting successfully. Buy a developer a beer!
