                               Psi4 1.4a3.dev225

  ==> Input File <==

--------------------------------------------------------------------------
#psi4
#
memory 32 gb

molecule  {
0 1
  N       -2.7513610     0.1438680    -0.1944680
  C        0.7647750     0.0263420    -0.3418330
  C       -0.3397190    -0.8197720     0.3150330
  C        0.7287660     1.4657710     0.1638370
  C        2.1226780    -0.6220260    -0.0827390
  C       -1.6817970    -0.2974810     0.0424840
  H        0.5782550     0.0304320    -1.4233270
  H       -0.2896400    -1.8551110    -0.0410840
  H       -0.1876540    -0.8451710     1.4012950
  H        0.9032250     1.4956430     1.2452160
  H        1.5086800     2.0616750    -0.3191730
  H       -0.4122133     2.0253112    -0.0776588
  H        2.3360990    -0.6508680     0.9913740
  H        2.9204480    -0.0525400    -0.5681780
  H        2.1576980    -1.6469370    -0.4652230
units angstrom
no_reorient  #important for SAPT in psi4, default
symmetry c1  #important for SAPT in psi4, default
}

set PROPERTIES_ORIGIN ["COM"]
properties('MP2/aug-cc-pvtz', properties = ['dipole'])
--------------------------------------------------------------------------

    Molecular point group: c1
  Charge       = 0
  Multiplicity = 1
  Basis Set: AUG-CC-PVTZ
    Blend: AUG-CC-PVTZ
  Basis Set: (AUG-CC-PVTZ AUX)
    Blend: AUG-CC-PVTZ-JKFIT

    Orbital Energies [Eh]
    ---------------------

    Doubly Occupied:

       1A    -15.573404     2A    -11.282105     3A    -11.280063
       4A    -11.259654     5A    -11.248346     6A    -11.235873
       7A     -1.205007     8A     -1.119787     9A     -0.995540
      10A     -0.939754    11A     -0.804444    12A     -0.707745
      13A     -0.661389    14A     -0.617090    15A     -0.589888
      16A     -0.566804    17A     -0.554357    18A     -0.538826
      19A     -0.512300    20A     -0.494641    21A     -0.476733
      22A     -0.446281    23A     -0.442474

  @DF-RHF Final Energy:  -249.09363848549128

   => Energetics <=

    Nuclear Repulsion Energy =            219.4952259019543988
    One-Electron Energy =                -770.0727197621199593
    Two-Electron Energy =                 301.4838553746742491
    Total Energy =                       -249.0936384854912831
  Basis Set: (AUG-CC-PVTZ AUX)
    Blend: AUG-CC-PVTZ-RI
    Molecular point group: c1

    Geometry (in Angstrom), charge = 0, multiplicity = 1:

       Center              X                  Y                   Z               Mass
    ------------   -----------------  -----------------  -----------------  -----------------
         N           -2.633372427254     0.148497183634    -0.184684991988    14.003074004430
         C            0.882763572746     0.030971183634    -0.332049991988    12.000000000000
         C           -0.221730427254    -0.815142816366     0.324816008012    12.000000000000
         C            0.846754572746     1.470400183634     0.173620008012    12.000000000000
         C            2.240666572746    -0.617396816366    -0.072955991988    12.000000000000
         C           -1.563808427254    -0.292851816366     0.052267008012    12.000000000000
         H            0.696243572746     0.035061183634    -1.413543991988     1.007825032230
         H           -0.171651427254    -1.850481816366    -0.031300991988     1.007825032230
         H           -0.069665427254    -0.840541816366     1.411078008012     1.007825032230
         H            1.021213572746     1.500272183634     1.254999008012     1.007825032230
         H            1.626668572746     2.066304183634    -0.309389991988     1.007825032230
         H           -0.294224727254     2.029940383634    -0.067875791988     1.007825032230
         H            2.454087572746    -0.646238816366     1.001157008012     1.007825032230
         H            3.038436572746    -0.047910816366    -0.558394991988     1.007825032230
         H            2.275686572746    -1.642307816366    -0.455439991988     1.007825032230

  Basis Set: AUG-CC-PVTZ
    Blend: AUG-CC-PVTZ
  Basis Set: (AUG-CC-PVTZ AUX)
    Blend: AUG-CC-PVTZ-JKFIT
	 Reference Energy          =    -249.0936384854912831 [Eh]
	 Singles Energy            =      -0.0000000000000000 [Eh]
	 Same-Spin Energy          =      -0.2630902643245973 [Eh]
	 Opposite-Spin Energy      =      -0.9116464315102528 [Eh]
	 Correlation Energy        =      -1.1747366958348500 [Eh]
	 Total Energy              =    -250.2683751813261210 [Eh]

	 ================> DF-SCS-MP2 Energies <==================
	-----------------------------------------------------------
	 SCS Same-Spin Scale       =       0.3333333333333333 [-]
	 SCS Opposite-Spin Scale   =       1.2000000000000000 [-]
	 SCS Same-Spin Energy      =      -0.0876967547748657 [Eh]
	 SCS Opposite-Spin Energy  =      -1.0939757178123033 [Eh]
	 SCS Correlation Energy    =      -1.1816724725871690 [Eh]
	 SCS Total Energy          =    -250.2753109580784496 [Eh]
	-----------------------------------------------------------

  Dipole Moment: [D]
     X:     3.9653      Y:    -1.1997      Z:     0.5419     Total:     4.1781

*** Psi4 exiting successfully. Buy a developer a beer!
