                               Psi4 1.4a3.dev225

  ==> Input File <==

--------------------------------------------------------------------------
#psi4
#
memory 32 gb

molecule  {
0 1
  N       -2.7513610     0.1438680    -0.1944680
  C        0.7647750     0.0263420    -0.3418330
  C       -0.3397190    -0.8197720     0.3150330
  C        0.7287660     1.4657710     0.1638370
  C        2.1226780    -0.6220260    -0.0827390
  C       -1.6817970    -0.2974810     0.0424840
  H        0.5782550     0.0304320    -1.4233270
  H       -0.2835882    -1.8664999    -0.0050672
  H       -0.1876540    -0.8451710     1.4012950
  H        0.9032250     1.4956430     1.2452160
  H        1.5086800     2.0616750    -0.3191730
  H       -0.2358010     1.9387980    -0.0403200
  H        2.3360990    -0.6508680     0.9913740
  H        2.9204480    -0.0525400    -0.5681780
  H        2.1576980    -1.6469370    -0.4652230
units angstrom
no_reorient  #important for SAPT in psi4, default
symmetry c1  #important for SAPT in psi4, default
}

set PROPERTIES_ORIGIN ["COM"]
properties('MP2/aug-cc-pvtz', properties = ['dipole'])
--------------------------------------------------------------------------

    Molecular point group: c1
  Charge       = 0
  Multiplicity = 1
  Basis Set: AUG-CC-PVTZ
    Blend: AUG-CC-PVTZ
  Basis Set: (AUG-CC-PVTZ AUX)
    Blend: AUG-CC-PVTZ-JKFIT

    Orbital Energies [Eh]
    ---------------------

    Doubly Occupied:

       1A    -15.574582     2A    -11.281773     3A    -11.280765
       4A    -11.257640     5A    -11.233735     6A    -11.226886
       7A     -1.205871     8A     -1.119820     9A     -0.995898
      10A     -0.948968    11A     -0.807005    12A     -0.708550
      13A     -0.660797    14A     -0.624542    15A     -0.594317
      16A     -0.566877    17A     -0.554151    18A     -0.543018
      19A     -0.512839    20A     -0.496110    21A     -0.491651
      22A     -0.447582    23A     -0.444436

  @DF-RHF Final Energy:  -249.11387547918389

   => Energetics <=

    Nuclear Repulsion Energy =            220.1442008307986384
    One-Electron Energy =                -771.3605250650925882
    Two-Electron Energy =                 302.1024487551101174
    Total Energy =                       -249.1138754791838892
  Basis Set: (AUG-CC-PVTZ AUX)
    Blend: AUG-CC-PVTZ-RI
    Molecular point group: c1

    Geometry (in Angstrom), charge = 0, multiplicity = 1:

       Center              X                  Y                   Z               Mass
    ------------   -----------------  -----------------  -----------------  -----------------
         N           -2.635586031942     0.149684905205    -0.185574922117    14.003074004430
         C            0.880549968058     0.032158905205    -0.332939922117    12.000000000000
         C           -0.223944031942    -0.813955094795     0.323926077883    12.000000000000
         C            0.844540968058     1.471587905205     0.172730077883    12.000000000000
         C            2.238452968058    -0.616209094795    -0.073845922117    12.000000000000
         C           -1.566022031942    -0.291664094795     0.051377077883    12.000000000000
         H            0.694029968058     0.036248905205    -1.414433922117     1.007825032230
         H           -0.167813231942    -1.860682994795     0.003825877883     1.007825032230
         H           -0.071879031942    -0.839354094795     1.410188077883     1.007825032230
         H            1.018999968058     1.501459905205     1.254109077883     1.007825032230
         H            1.624454968058     2.067491905205    -0.310279922117     1.007825032230
         H           -0.120026031942     1.944614905205    -0.031426922117     1.007825032230
         H            2.451873968058    -0.645051094795     1.000267077883     1.007825032230
         H            3.036222968058    -0.046723094795    -0.559284922117     1.007825032230
         H            2.273472968058    -1.641120094795    -0.456329922117     1.007825032230

  Basis Set: AUG-CC-PVTZ
    Blend: AUG-CC-PVTZ
  Basis Set: (AUG-CC-PVTZ AUX)
    Blend: AUG-CC-PVTZ-JKFIT
	 Reference Energy          =    -249.1138754791838892 [Eh]
	 Singles Energy            =      -0.0000000000000000 [Eh]
	 Same-Spin Energy          =      -0.2628810191640265 [Eh]
	 Opposite-Spin Energy      =      -0.9098050195257864 [Eh]
	 Correlation Energy        =      -1.1726860386898128 [Eh]
	 Total Energy              =    -250.2865615178737073 [Eh]

	 ================> DF-SCS-MP2 Energies <==================
	-----------------------------------------------------------
	 SCS Same-Spin Scale       =       0.3333333333333333 [-]
	 SCS Opposite-Spin Scale   =       1.2000000000000000 [-]
	 SCS Same-Spin Energy      =      -0.0876270063880088 [Eh]
	 SCS Opposite-Spin Energy  =      -1.0917660234309436 [Eh]
	 SCS Correlation Energy    =      -1.1793930298189526 [Eh]
	 SCS Total Energy          =    -250.2932685090028428 [Eh]
	-----------------------------------------------------------

  Dipole Moment: [D]
     X:     3.8756      Y:    -1.1220      Z:     0.5478     Total:     4.0717

*** Psi4 exiting successfully. Buy a developer a beer!
