                               Psi4 1.4a3.dev225

  ==> Input File <==

--------------------------------------------------------------------------
#psi4
#
memory 32 gb

molecule  {
0 1
  N       -2.7513610     0.1438680    -0.1944680
  C        0.7647750     0.0263420    -0.3418330
  C       -0.3397190    -0.8197720     0.3150330
  C        0.7287660     1.4657710     0.1638370
  C        2.1226780    -0.6220260    -0.0827390
  C       -1.6817970    -0.2974810     0.0424840
  H        0.5782550     0.0304320    -1.4233270
  H       -0.2896400    -1.8551110    -0.0410840
  H       -0.1876540    -0.8451710     1.4012950
  H        0.9032250     1.4956430     1.2452160
  H        1.4730324     2.0344380    -0.2970960
  H       -0.2358010     1.9387980    -0.0403200
  H        2.3360990    -0.6508680     0.9913740
  H        2.9204480    -0.0525400    -0.5681780
  H        2.1576980    -1.6469370    -0.4652230
units angstrom
no_reorient  #important for SAPT in psi4, default
symmetry c1  #important for SAPT in psi4, default
}

set PROPERTIES_ORIGIN ["COM"]
properties('MP2/aug-cc-pvtz', properties = ['dipole'])
--------------------------------------------------------------------------

    Molecular point group: c1
  Charge       = 0
  Multiplicity = 1
  Basis Set: AUG-CC-PVTZ
    Blend: AUG-CC-PVTZ
  Basis Set: (AUG-CC-PVTZ AUX)
    Blend: AUG-CC-PVTZ-JKFIT

    Orbital Energies [Eh]
    ---------------------

    Doubly Occupied:

       1A    -15.574079     2A    -11.281404     3A    -11.280258
       4A    -11.257085     5A    -11.233766     6A    -11.220583
       7A     -1.205492     8A     -1.120146     9A     -0.996865
      10A     -0.951945    11A     -0.808208    12A     -0.707031
      13A     -0.663661    14A     -0.625290    15A     -0.595179
      16A     -0.567335    17A     -0.555268    18A     -0.545594
      19A     -0.515313    20A     -0.495586    21A     -0.491467
      22A     -0.447621    23A     -0.443802

  @DF-RHF Final Energy:  -249.11308453772398

   => Energetics <=

    Nuclear Repulsion Energy =            220.3893718698154203
    One-Electron Energy =                -771.8389604264907575
    Two-Electron Energy =                 302.3365040189513024
    Total Energy =                       -249.1130845377239780
  Basis Set: (AUG-CC-PVTZ AUX)
    Blend: AUG-CC-PVTZ-RI
    Molecular point group: c1

    Geometry (in Angstrom), charge = 0, multiplicity = 1:

       Center              X                  Y                   Z               Mass
    ------------   -----------------  -----------------  -----------------  -----------------
         N           -2.635080146196     0.149877170031    -0.185405808266    14.003074004430
         C            0.881055853804     0.032351170031    -0.332770808266    12.000000000000
         C           -0.223438146196    -0.813762829969     0.324095191734    12.000000000000
         C            0.845046853804     1.471780170031     0.172899191734    12.000000000000
         C            2.238958853804    -0.616016829969    -0.073676808266    12.000000000000
         C           -1.565516146196    -0.291471829969     0.051546191734    12.000000000000
         H            0.694535853804     0.036441170031    -1.414264808266     1.007825032230
         H           -0.173359146196    -1.849101829969    -0.032021808266     1.007825032230
         H           -0.071373146196    -0.839161829969     1.410357191734     1.007825032230
         H            1.019505853804     1.501652170031     1.254278191734     1.007825032230
         H            1.589313253804     2.040447170031    -0.288033808266     1.007825032230
         H           -0.119520146196     1.944807170031    -0.031257808266     1.007825032230
         H            2.452379853804    -0.644858829969     1.000436191734     1.007825032230
         H            3.036728853804    -0.046530829969    -0.559115808266     1.007825032230
         H            2.273978853804    -1.640927829969    -0.456160808266     1.007825032230

  Basis Set: AUG-CC-PVTZ
    Blend: AUG-CC-PVTZ
  Basis Set: (AUG-CC-PVTZ AUX)
    Blend: AUG-CC-PVTZ-JKFIT
	 Reference Energy          =    -249.1130845377239780 [Eh]
	 Singles Energy            =      -0.0000000000000000 [Eh]
	 Same-Spin Energy          =      -0.2628788342325359 [Eh]
	 Opposite-Spin Energy      =      -0.9095177674273580 [Eh]
	 Correlation Energy        =      -1.1723966016598939 [Eh]
	 Total Energy              =    -250.2854811393838759 [Eh]

	 ================> DF-SCS-MP2 Energies <==================
	-----------------------------------------------------------
	 SCS Same-Spin Scale       =       0.3333333333333333 [-]
	 SCS Opposite-Spin Scale   =       1.2000000000000000 [-]
	 SCS Same-Spin Energy      =      -0.0876262780775120 [Eh]
	 SCS Opposite-Spin Energy  =      -1.0914213209128296 [Eh]
	 SCS Correlation Energy    =      -1.1790475989903415 [Eh]
	 SCS Total Energy          =    -250.2921321367143150 [Eh]
	-----------------------------------------------------------

  Dipole Moment: [D]
     X:     3.8982      Y:    -1.0955      Z:     0.5267     Total:     4.0833

*** Psi4 exiting successfully. Buy a developer a beer!
