                               Psi4 1.4a3.dev225

  ==> Input File <==

--------------------------------------------------------------------------
#psi4
#
memory 32 gb

molecule  {
0 1
  N       -2.7513610     0.1438680    -0.1944680
  C        0.7647750     0.0263420    -0.3418330
  C       -0.3397190    -0.8197720     0.3150330
  C        0.7287660     1.4657710     0.1638370
  C        2.1226780    -0.6220260    -0.0827390
  C       -1.6817970    -0.2974810     0.0424840
  H        0.5782550     0.0304320    -1.4233270
  H       -0.2896400    -1.8551110    -0.0410840
  H       -0.1876540    -0.8451710     1.4012950
  H        0.9032250     1.4956430     1.2452160
  H        1.6512704     2.1706231    -0.4074809
  H       -0.2358010     1.9387980    -0.0403200
  H        2.3360990    -0.6508680     0.9913740
  H        2.9204480    -0.0525400    -0.5681780
  H        2.1576980    -1.6469370    -0.4652230
units angstrom
no_reorient  #important for SAPT in psi4, default
symmetry c1  #important for SAPT in psi4, default
}

set PROPERTIES_ORIGIN ["COM"]
properties('MP2/aug-cc-pvtz', properties = ['dipole'])
--------------------------------------------------------------------------

    Molecular point group: c1
  Charge       = 0
  Multiplicity = 1
  Basis Set: AUG-CC-PVTZ
    Blend: AUG-CC-PVTZ
  Basis Set: (AUG-CC-PVTZ AUX)
    Blend: AUG-CC-PVTZ-JKFIT

    Orbital Energies [Eh]
    ---------------------

    Doubly Occupied:

       1A    -15.576050     2A    -11.284139     3A    -11.282113
       4A    -11.259899     5A    -11.249920     6A    -11.233927
       7A     -1.207389     8A     -1.120583     9A     -0.994793
      10A     -0.941429    11A     -0.803781    12A     -0.709158
      13A     -0.657981    14A     -0.621240    15A     -0.597617
      16A     -0.568079    17A     -0.554333    18A     -0.533638
      19A     -0.498931    20A     -0.494003    21A     -0.490121
      22A     -0.449565    23A     -0.444263

  @DF-RHF Final Energy:  -249.09406683307603

   => Energetics <=

    Nuclear Repulsion Energy =            219.3944895942549635
    One-Electron Energy =                -769.8312093816070956
    Two-Electron Energy =                 301.3426529542761045
    Total Energy =                       -249.0940668330759991
  Basis Set: (AUG-CC-PVTZ AUX)
    Blend: AUG-CC-PVTZ-RI
    Molecular point group: c1

    Geometry (in Angstrom), charge = 0, multiplicity = 1:

       Center              X                  Y                   Z               Mass
    ------------   -----------------  -----------------  -----------------  -----------------
         N           -2.637242480992     0.148225009548    -0.184066648771    14.003074004430
         C            0.878893519008     0.030699009548    -0.331431648771    12.000000000000
         C           -0.225600480992    -0.815414990452     0.325434351229    12.000000000000
         C            0.842884519008     1.470128009548     0.174238351229    12.000000000000
         C            2.236796519008    -0.617668990452    -0.072337648771    12.000000000000
         C           -1.567678480992    -0.293123990452     0.052885351229    12.000000000000
         H            0.692373519008     0.034789009548    -1.412925648771     1.007825032230
         H           -0.175521480992    -1.850753990452    -0.030682648771     1.007825032230
         H           -0.073535480992    -0.840813990452     1.411696351229     1.007825032230
         H            1.017343519008     1.500000009548     1.255617351229     1.007825032230
         H            1.765388919008     2.174980109548    -0.397079548771     1.007825032230
         H           -0.121682480992     1.943155009548    -0.029918648771     1.007825032230
         H            2.450217519008    -0.646510990452     1.001775351229     1.007825032230
         H            3.034566519008    -0.048182990452    -0.557776648771     1.007825032230
         H            2.271816519008    -1.642579990452    -0.454821648771     1.007825032230

  Basis Set: AUG-CC-PVTZ
    Blend: AUG-CC-PVTZ
  Basis Set: (AUG-CC-PVTZ AUX)
    Blend: AUG-CC-PVTZ-JKFIT
	 Reference Energy          =    -249.0940668330760275 [Eh]
	 Singles Energy            =      -0.0000000000000000 [Eh]
	 Same-Spin Energy          =      -0.2628503004742998 [Eh]
	 Opposite-Spin Energy      =      -0.9113950049543823 [Eh]
	 Correlation Energy        =      -1.1742453054286821 [Eh]
	 Total Energy              =    -250.2683121385047116 [Eh]

	 ================> DF-SCS-MP2 Energies <==================
	-----------------------------------------------------------
	 SCS Same-Spin Scale       =       0.3333333333333333 [-]
	 SCS Opposite-Spin Scale   =       1.2000000000000000 [-]
	 SCS Same-Spin Energy      =      -0.0876167668247666 [Eh]
	 SCS Opposite-Spin Energy  =      -1.0936740059452588 [Eh]
	 SCS Correlation Energy    =      -1.1812907727700253 [Eh]
	 SCS Total Energy          =    -250.2753576058460396 [Eh]
	-----------------------------------------------------------

  Dipole Moment: [D]
     X:     3.7638      Y:    -1.2297      Z:     0.5809     Total:     4.0020

*** Psi4 exiting successfully. Buy a developer a beer!
