                               Psi4 1.4a3.dev225

  ==> Input File <==

--------------------------------------------------------------------------
#psi4
#
memory 32 gb

molecule  {
0 1
  N       -2.7513610     0.1438680    -0.1944680
  C        0.7647750     0.0263420    -0.3418330
  C       -0.3397190    -0.8197720     0.3150330
  C        0.7287660     1.4657710     0.1638370
  C        2.1226780    -0.6220260    -0.0827390
  C       -1.6817970    -0.2974810     0.0424840
  H        0.5782550     0.0304320    -1.4233270
  H       -0.2896400    -1.8551110    -0.0410840
  H       -0.1876540    -0.8451710     1.4012950
  H        0.9032250     1.4956430     1.2452160
  H        1.5443276     2.0889120    -0.3412500
  H       -0.2358010     1.9387980    -0.0403200
  H        2.3360990    -0.6508680     0.9913740
  H        2.9204480    -0.0525400    -0.5681780
  H        2.1576980    -1.6469370    -0.4652230
units angstrom
no_reorient  #important for SAPT in psi4, default
symmetry c1  #important for SAPT in psi4, default
}

set PROPERTIES_ORIGIN ["COM"]
properties('MP2/aug-cc-pvtz', properties = ['dipole'])
--------------------------------------------------------------------------

    Molecular point group: c1
  Charge       = 0
  Multiplicity = 1
  Basis Set: AUG-CC-PVTZ
    Blend: AUG-CC-PVTZ
  Basis Set: (AUG-CC-PVTZ AUX)
    Blend: AUG-CC-PVTZ-JKFIT

    Orbital Energies [Eh]
    ---------------------

    Doubly Occupied:

       1A    -15.574748     2A    -11.282314     3A    -11.280898
       4A    -11.258025     5A    -11.233773     6A    -11.232850
       7A     -1.206132     8A     -1.119928     9A     -0.995353
      10A     -0.946418    11A     -0.805752    12A     -0.707737
      13A     -0.660195    14A     -0.623326    15A     -0.595963
      16A     -0.567267    17A     -0.553615    18A     -0.539594
      19A     -0.508810    20A     -0.496499    21A     -0.492199
      22A     -0.448278    23A     -0.444072

  @DF-RHF Final Energy:  -249.11197905116100

   => Energetics <=

    Nuclear Repulsion Energy =            219.9565451523859281
    One-Electron Energy =                -770.9895509188827418
    Two-Electron Energy =                 301.9210267153358132
    Total Energy =                       -249.1119790511609722
  Basis Set: (AUG-CC-PVTZ AUX)
    Blend: AUG-CC-PVTZ-RI
    Molecular point group: c1

    Geometry (in Angstrom), charge = 0, multiplicity = 1:

       Center              X                  Y                   Z               Mass
    ------------   -----------------  -----------------  -----------------  -----------------
         N           -2.635945080114     0.149216306323    -0.184870143983    14.003074004430
         C            0.880190919886     0.031690306323    -0.332235143983    12.000000000000
         C           -0.224303080114    -0.814423693677     0.324630856017    12.000000000000
         C            0.844181919886     1.471119306323     0.173434856017    12.000000000000
         C            2.238093919886    -0.616677693677    -0.073141143983    12.000000000000
         C           -1.566381080114    -0.292132693677     0.052081856017    12.000000000000
         H            0.693670919886     0.035780306323    -1.413729143983     1.007825032230
         H           -0.174224080114    -1.849762693677    -0.031486143983     1.007825032230
         H           -0.072238080114    -0.839822693677     1.410892856017     1.007825032230
         H            1.018640919886     1.500991306323     1.254813856017     1.007825032230
         H            1.659743519886     2.094260306323    -0.331652143983     1.007825032230
         H           -0.120385080114     1.944146306323    -0.030722143983     1.007825032230
         H            2.451514919886    -0.645519693677     1.000971856017     1.007825032230
         H            3.035863919886    -0.047191693677    -0.558580143983     1.007825032230
         H            2.273113919886    -1.641588693677    -0.455625143983     1.007825032230

  Basis Set: AUG-CC-PVTZ
    Blend: AUG-CC-PVTZ
  Basis Set: (AUG-CC-PVTZ AUX)
    Blend: AUG-CC-PVTZ-JKFIT
	 Reference Energy          =    -249.1119790511610006 [Eh]
	 Singles Energy            =      -0.0000000000000000 [Eh]
	 Same-Spin Energy          =      -0.2628655941933739 [Eh]
	 Opposite-Spin Energy      =      -0.9101373036640086 [Eh]
	 Correlation Energy        =      -1.1730028978573825 [Eh]
	 Total Energy              =    -250.2849819490183734 [Eh]

	 ================> DF-SCS-MP2 Energies <==================
	-----------------------------------------------------------
	 SCS Same-Spin Scale       =       0.3333333333333333 [-]
	 SCS Opposite-Spin Scale   =       1.2000000000000000 [-]
	 SCS Same-Spin Energy      =      -0.0876218647311246 [Eh]
	 SCS Opposite-Spin Energy  =      -1.0921647643968102 [Eh]
	 SCS Correlation Energy    =      -1.1797866291279349 [Eh]
	 SCS Total Energy          =    -250.2917656802889326 [Eh]
	-----------------------------------------------------------

  Dipole Moment: [D]
     X:     3.8521      Y:    -1.1410      Z:     0.5445     Total:     4.0543

*** Psi4 exiting successfully. Buy a developer a beer!
