                               Psi4 1.4a3.dev225

  ==> Input File <==

--------------------------------------------------------------------------
#psi4
#
memory 32 gb

molecule  {
0 1
  N       -2.7513610     0.1438680    -0.1944680
  C        0.7647750     0.0263420    -0.3418330
  C       -0.3397190    -0.8197720     0.3150330
  C        0.7299458     1.4186104     0.1472695
  C        2.1226780    -0.6220260    -0.0827390
  C       -1.6817970    -0.2974810     0.0424840
  H        0.5782550     0.0304320    -1.4233270
  H       -0.2896400    -1.8551110    -0.0410840
  H       -0.1876540    -0.8451710     1.4012950
  H        0.9032250     1.4956430     1.2452160
  H        1.5086800     2.0616750    -0.3191730
  H       -0.2358010     1.9387980    -0.0403200
  H        2.3360990    -0.6508680     0.9913740
  H        2.9204480    -0.0525400    -0.5681780
  H        2.1576980    -1.6469370    -0.4652230
units angstrom
no_reorient  #important for SAPT in psi4, default
symmetry c1  #important for SAPT in psi4, default
}

set PROPERTIES_ORIGIN ["COM"]
properties('MP2/aug-cc-pvtz', properties = ['dipole'])
--------------------------------------------------------------------------

    Molecular point group: c1
  Charge       = 0
  Multiplicity = 1
  Basis Set: AUG-CC-PVTZ
    Blend: AUG-CC-PVTZ
  Basis Set: (AUG-CC-PVTZ AUX)
    Blend: AUG-CC-PVTZ-JKFIT

    Orbital Energies [Eh]
    ---------------------

    Doubly Occupied:

       1A    -15.574440     2A    -11.282021     3A    -11.280623
       4A    -11.255495     5A    -11.233948     6A    -11.229151
       7A     -1.205996     8A     -1.125774     9A     -0.997726
      10A     -0.948898    11A     -0.806463    12A     -0.708293
      13A     -0.664241    14A     -0.625975    15A     -0.595199
      16A     -0.568045    17A     -0.551021    18A     -0.540239
      19A     -0.514373    20A     -0.498838    21A     -0.487081
      22A     -0.448223    23A     -0.443801

  @DF-RHF Final Energy:  -249.11092053330088

   => Energetics <=

    Nuclear Repulsion Energy =            220.8713114397782817
    One-Electron Energy =                -772.7927346191705738
    Two-Electron Energy =                 302.8105026460913791
    Total Energy =                       -249.1109205333008845
  Basis Set: (AUG-CC-PVTZ AUX)
    Blend: AUG-CC-PVTZ-RI
    Molecular point group: c1

    Geometry (in Angstrom), charge = 0, multiplicity = 1:

       Center              X                  Y                   Z               Mass
    ------------   -----------------  -----------------  -----------------  -----------------
         N           -2.635683035734     0.156359105597    -0.182744794163    14.003074004430
         C            0.880452964266     0.038833105597    -0.330109794163    12.000000000000
         C           -0.224041035734    -0.807280894403     0.326756205837    12.000000000000
         C            0.845623764266     1.431101505597     0.158992705837    12.000000000000
         C            2.238355964266    -0.609534894403    -0.071015794163    12.000000000000
         C           -1.566119035734    -0.284989894403     0.054207205837    12.000000000000
         H            0.693932964266     0.042923105597    -1.411603794163     1.007825032230
         H           -0.173962035734    -1.842619894403    -0.029360794163     1.007825032230
         H           -0.071976035734    -0.832679894403     1.413018205837     1.007825032230
         H            1.018902964266     1.508134105597     1.256939205837     1.007825032230
         H            1.624357964266     2.074166105597    -0.307449794163     1.007825032230
         H           -0.120123035734     1.951289105597    -0.028596794163     1.007825032230
         H            2.451776964266    -0.638376894403     1.003097205837     1.007825032230
         H            3.036125964266    -0.040048894403    -0.556454794163     1.007825032230
         H            2.273375964266    -1.634445894403    -0.453499794163     1.007825032230

  Basis Set: AUG-CC-PVTZ
    Blend: AUG-CC-PVTZ
  Basis Set: (AUG-CC-PVTZ AUX)
    Blend: AUG-CC-PVTZ-JKFIT
	 Reference Energy          =    -249.1109205333008845 [Eh]
	 Singles Energy            =      -0.0000000000000000 [Eh]
	 Same-Spin Energy          =      -0.2633607301781566 [Eh]
	 Opposite-Spin Energy      =      -0.9103263541290834 [Eh]
	 Correlation Energy        =      -1.1736870843072400 [Eh]
	 Total Energy              =    -250.2846076176081169 [Eh]

	 ================> DF-SCS-MP2 Energies <==================
	-----------------------------------------------------------
	 SCS Same-Spin Scale       =       0.3333333333333333 [-]
	 SCS Opposite-Spin Scale   =       1.2000000000000000 [-]
	 SCS Same-Spin Energy      =      -0.0877869100593855 [Eh]
	 SCS Opposite-Spin Energy  =      -1.0923916249548999 [Eh]
	 SCS Correlation Energy    =      -1.1801785350142855 [Eh]
	 SCS Total Energy          =    -250.2910990683151624 [Eh]
	-----------------------------------------------------------

  Dipole Moment: [D]
     X:     3.8722      Y:    -1.1121      Z:     0.5312     Total:     4.0636

*** Psi4 exiting successfully. Buy a developer a beer!
