                               Psi4 1.4a3.dev225

  ==> Input File <==

--------------------------------------------------------------------------
#psi4
#
memory 32 gb

molecule  {
0 1
  N       -2.7513610     0.1438680    -0.1944680
  C        0.7647750     0.0263420    -0.3418330
  C       -0.3397190    -0.8197720     0.3150330
  C        0.7287660     1.4657710     0.1638370
  C        2.1226780    -0.6220260    -0.0827390
  C       -1.6817970    -0.2974810     0.0424840
  H        0.5782550     0.0304320    -1.4233270
  H       -0.2896400    -1.8551110    -0.0410840
  H       -0.1876540    -0.8451710     1.4012950
  H        0.9032250     1.4956430     1.2452160
  H        1.5086800     2.0616750    -0.3191730
  H       -0.2358010     1.9387980    -0.0403200
  H        2.3263581    -0.6495516     0.9423497
  H        2.9204480    -0.0525400    -0.5681780
  H        2.1576980    -1.6469370    -0.4652230
units angstrom
no_reorient  #important for SAPT in psi4, default
symmetry c1  #important for SAPT in psi4, default
}

set PROPERTIES_ORIGIN ["COM"]
properties('MP2/aug-cc-pvtz', properties = ['dipole'])
--------------------------------------------------------------------------

    Molecular point group: c1
  Charge       = 0
  Multiplicity = 1
  Basis Set: AUG-CC-PVTZ
    Blend: AUG-CC-PVTZ
  Basis Set: (AUG-CC-PVTZ AUX)
    Blend: AUG-CC-PVTZ-JKFIT

    Orbital Energies [Eh]
    ---------------------

    Doubly Occupied:

       1A    -15.574325     2A    -11.281765     3A    -11.280503
       4A    -11.256944     5A    -11.227475     6A    -11.226721
       7A     -1.205726     8A     -1.120382     9A     -0.997040
      10A     -0.951561    11A     -0.808861    12A     -0.707265
      13A     -0.662440    14A     -0.624380    15A     -0.596848
      16A     -0.569903    17A     -0.557005    18A     -0.542632
      19A     -0.512515    20A     -0.495559    21A     -0.493123
      22A     -0.447861    23A     -0.443813

  @DF-RHF Final Energy:  -249.11305028335670

   => Energetics <=

    Nuclear Repulsion Energy =            220.3743996208277736
    One-Electron Energy =                -771.8056036930829578
    Two-Electron Energy =                 302.3181537888985417
    Total Energy =                       -249.1130502833566993
  Basis Set: (AUG-CC-PVTZ AUX)
    Blend: AUG-CC-PVTZ-RI
    Molecular point group: c1

    Geometry (in Angstrom), charge = 0, multiplicity = 1:

       Center              X                  Y                   Z               Mass
    ------------   -----------------  -----------------  -----------------  -----------------
         N           -2.635394439214     0.149530767972    -0.184543226690    14.003074004430
         C            0.880741560786     0.032004767972    -0.331908226690    12.000000000000
         C           -0.223752439214    -0.814109232028     0.324957773310    12.000000000000
         C            0.844732560786     1.471433767972     0.173761773310    12.000000000000
         C            2.238644560786    -0.616363232028    -0.072814226690    12.000000000000
         C           -1.565830439214    -0.291818232028     0.052408773310    12.000000000000
         H            0.694221560786     0.036094767972    -1.413402226690     1.007825032230
         H           -0.173673439214    -1.849448232028    -0.031159226690     1.007825032230
         H           -0.071687439214    -0.839508232028     1.411219773310     1.007825032230
         H            1.019191560786     1.501305767972     1.255140773310     1.007825032230
         H            1.624646560786     2.067337767972    -0.309248226690     1.007825032230
         H           -0.119834439214     1.944460767972    -0.030395226690     1.007825032230
         H            2.442324660786    -0.643888832028     0.952274473310     1.007825032230
         H            3.036414560786    -0.046877232028    -0.558253226690     1.007825032230
         H            2.273664560786    -1.641274232028    -0.455298226690     1.007825032230

  Basis Set: AUG-CC-PVTZ
    Blend: AUG-CC-PVTZ
  Basis Set: (AUG-CC-PVTZ AUX)
    Blend: AUG-CC-PVTZ-JKFIT
	 Reference Energy          =    -249.1130502833566993 [Eh]
	 Singles Energy            =      -0.0000000000000000 [Eh]
	 Same-Spin Energy          =      -0.2628774614137946 [Eh]
	 Opposite-Spin Energy      =      -0.9095398580153069 [Eh]
	 Correlation Energy        =      -1.1724173194291014 [Eh]
	 Total Energy              =    -250.2854676027858147 [Eh]

	 ================> DF-SCS-MP2 Energies <==================
	-----------------------------------------------------------
	 SCS Same-Spin Scale       =       0.3333333333333333 [-]
	 SCS Opposite-Spin Scale   =       1.2000000000000000 [-]
	 SCS Same-Spin Energy      =      -0.0876258204712649 [Eh]
	 SCS Opposite-Spin Energy  =      -1.0914478296183683 [Eh]
	 SCS Correlation Energy    =      -1.1790736500896331 [Eh]
	 SCS Total Energy          =    -250.2921239334463337 [Eh]
	-----------------------------------------------------------

  Dipole Moment: [D]
     X:     3.8871      Y:    -1.1207      Z:     0.5610     Total:     4.0841

*** Psi4 exiting successfully. Buy a developer a beer!
