                               Psi4 1.4a3.dev225

  ==> Input File <==

--------------------------------------------------------------------------
#psi4
#
memory 32 gb

molecule  {
0 1
  N       -2.7513610     0.1438680    -0.1944680
  C        0.7647750     0.0263420    -0.3418330
  C       -0.3397190    -0.8197720     0.3150330
  C        0.7287660     1.4657710     0.1638370
  C        2.1226780    -0.6220260    -0.0827390
  C       -1.6817970    -0.2974810     0.0424840
  H        0.5782550     0.0304320    -1.4233270
  H       -0.2896400    -1.8551110    -0.0410840
  H       -0.1876540    -0.8451710     1.4012950
  H        0.9032250     1.4956430     1.2452160
  H        1.5086800     2.0616750    -0.3191730
  H       -0.2358010     1.9387980    -0.0403200
  H        2.3360990    -0.6508680     0.9913740
  H        2.9569158    -0.0265076    -0.5903684
  H        2.1576980    -1.6469370    -0.4652230
units angstrom
no_reorient  #important for SAPT in psi4, default
symmetry c1  #important for SAPT in psi4, default
}

set PROPERTIES_ORIGIN ["COM"]
properties('MP2/aug-cc-pvtz', properties = ['dipole'])
--------------------------------------------------------------------------

    Molecular point group: c1
  Charge       = 0
  Multiplicity = 1
  Basis Set: AUG-CC-PVTZ
    Blend: AUG-CC-PVTZ
  Basis Set: (AUG-CC-PVTZ AUX)
    Blend: AUG-CC-PVTZ-JKFIT

    Orbital Energies [Eh]
    ---------------------

    Doubly Occupied:

       1A    -15.574700     2A    -11.282300     3A    -11.280893
       4A    -11.258012     5A    -11.239772     6A    -11.226802
       7A     -1.206074     8A     -1.119880     9A     -0.995013
      10A     -0.946786    11A     -0.805580    12A     -0.706674
      13A     -0.662082    14A     -0.623803    15A     -0.595025
      16A     -0.566448    17A     -0.552934    18A     -0.538776
      19A     -0.510830    20A     -0.496525    21A     -0.492145
      22A     -0.448212    23A     -0.443898

  @DF-RHF Final Energy:  -249.11196163431072

   => Energetics <=

    Nuclear Repulsion Energy =            219.9622436686579761
    One-Electron Energy =                -771.0020814243101768
    Two-Electron Energy =                 301.9278761213415123
    Total Energy =                       -249.1119616343107168
  Basis Set: (AUG-CC-PVTZ AUX)
    Blend: AUG-CC-PVTZ-RI
    Molecular point group: c1

    Geometry (in Angstrom), charge = 0, multiplicity = 1:

       Center              X                  Y                   Z               Mass
    ------------   -----------------  -----------------  -----------------  -----------------
         N           -2.635955030557     0.149230920202    -0.184868768245    14.003074004430
         C            0.880180969443     0.031704920202    -0.332233768245    12.000000000000
         C           -0.224313030557    -0.814409079798     0.324632231755    12.000000000000
         C            0.844171969443     1.471133920202     0.173436231755    12.000000000000
         C            2.238083969443    -0.616663079798    -0.073139768245    12.000000000000
         C           -1.566391030557    -0.292118079798     0.052083231755    12.000000000000
         H            0.693660969443     0.035794920202    -1.413727768245     1.007825032230
         H           -0.174234030557    -1.849748079798    -0.031484768245     1.007825032230
         H           -0.072248030557    -0.839808079798     1.410894231755     1.007825032230
         H            1.018630969443     1.501005920202     1.254815231755     1.007825032230
         H            1.624085969443     2.067037920202    -0.309573768245     1.007825032230
         H           -0.120395030557     1.944160920202    -0.030720768245     1.007825032230
         H            2.451504969443    -0.645505079798     1.000973231755     1.007825032230
         H            3.072321769443    -0.021144679798    -0.580769168245     1.007825032230
         H            2.273103969443    -1.641574079798    -0.455623768245     1.007825032230

  Basis Set: AUG-CC-PVTZ
    Blend: AUG-CC-PVTZ
  Basis Set: (AUG-CC-PVTZ AUX)
    Blend: AUG-CC-PVTZ-JKFIT
	 Reference Energy          =    -249.1119616343107168 [Eh]
	 Singles Energy            =      -0.0000000000000000 [Eh]
	 Same-Spin Energy          =      -0.2628678945680124 [Eh]
	 Opposite-Spin Energy      =      -0.9101451515302734 [Eh]
	 Correlation Energy        =      -1.1730130460982857 [Eh]
	 Total Energy              =    -250.2849746804089932 [Eh]

	 ================> DF-SCS-MP2 Energies <==================
	-----------------------------------------------------------
	 SCS Same-Spin Scale       =       0.3333333333333333 [-]
	 SCS Opposite-Spin Scale   =       1.2000000000000000 [-]
	 SCS Same-Spin Energy      =      -0.0876226315226708 [Eh]
	 SCS Opposite-Spin Energy  =      -1.0921741818363280 [Eh]
	 SCS Correlation Energy    =      -1.1797968133589987 [Eh]
	 SCS Total Energy          =    -250.2917584476697073 [Eh]
	-----------------------------------------------------------

  Dipole Moment: [D]
     X:     3.8452      Y:    -1.1271      Z:     0.5454     Total:     4.0439

*** Psi4 exiting successfully. Buy a developer a beer!
