                               Psi4 1.4a3.dev225

  ==> Input File <==

--------------------------------------------------------------------------
#psi4
#
memory 32 gb

molecule  {
0 1
  N       -2.7513610     0.1438680    -0.1944680
  C        0.7647750     0.0263420    -0.3418330
  C       -0.3397190    -0.8197720     0.3150330
  C        0.7287660     1.4657710     0.1638370
  C        2.1226780    -0.6220260    -0.0827390
  C       -1.6817970    -0.2974810     0.0424840
  H        0.5782550     0.0304320    -1.4233270
  H       -0.2896400    -1.8551110    -0.0410840
  H       -0.1876540    -0.8451710     1.4012950
  H        0.9032250     1.4956430     1.2452160
  H        1.5086800     2.0616750    -0.3191730
  H       -0.2358010     1.9387980    -0.0403200
  H        2.3360990    -0.6508680     0.9913740
  H        2.8475125    -0.1046048    -0.5237971
  H        2.1576980    -1.6469370    -0.4652230
units angstrom
no_reorient  #important for SAPT in psi4, default
symmetry c1  #important for SAPT in psi4, default
}

set PROPERTIES_ORIGIN ["COM"]
properties('MP2/aug-cc-pvtz', properties = ['dipole'])
--------------------------------------------------------------------------

    Molecular point group: c1
  Charge       = 0
  Multiplicity = 1
  Basis Set: AUG-CC-PVTZ
    Blend: AUG-CC-PVTZ
  Basis Set: (AUG-CC-PVTZ AUX)
    Blend: AUG-CC-PVTZ-JKFIT

    Orbital Energies [Eh]
    ---------------------

    Doubly Occupied:

       1A    -15.573889     2A    -11.281062     3A    -11.279998
       4A    -11.256729     5A    -11.226808     6A    -11.221352
       7A     -1.205332     8A     -1.120631     9A     -0.999154
      10A     -0.954319    11A     -0.810226    12A     -0.709290
      13A     -0.661065    14A     -0.625932    15A     -0.597701
      16A     -0.571419    17A     -0.557402    18A     -0.546648
      19A     -0.514492    20A     -0.495222    21A     -0.491268
      22A     -0.447463    23A     -0.443959

  @DF-RHF Final Energy:  -249.10804190576144

   => Energetics <=

    Nuclear Repulsion Energy =            220.6159391661697100
    One-Electron Energy =                -772.2652362169384332
    Two-Electron Energy =                 302.5412551450073124
    Total Energy =                       -249.1080419057614108
  Basis Set: (AUG-CC-PVTZ AUX)
    Blend: AUG-CC-PVTZ-RI
    Molecular point group: c1

    Geometry (in Angstrom), charge = 0, multiplicity = 1:

       Center              X                  Y                   Z               Mass
    ------------   -----------------  -----------------  -----------------  -----------------
         N           -2.634627779565     0.150178374128    -0.185676393097    14.003074004430
         C            0.881508220435     0.032652374128    -0.333041393097    12.000000000000
         C           -0.222985779565    -0.813461625872     0.323824606903    12.000000000000
         C            0.845499220435     1.472081374128     0.172628606903    12.000000000000
         C            2.239411220435    -0.615715625872    -0.073947393097    12.000000000000
         C           -1.565063779565    -0.291170625872     0.051275606903    12.000000000000
         H            0.694988220435     0.036742374128    -1.414535393097     1.007825032230
         H           -0.172906779565    -1.848800625872    -0.032292393097     1.007825032230
         H           -0.070920779565    -0.838860625872     1.410086606903     1.007825032230
         H            1.019958220435     1.501953374128     1.254007606903     1.007825032230
         H            1.625413220435     2.067985374128    -0.310381393097     1.007825032230
         H           -0.119067779565     1.945108374128    -0.031528393097     1.007825032230
         H            2.452832220435    -0.644557625872     1.000165606903     1.007825032230
         H            2.964245720435    -0.098294425872    -0.515005493097     1.007825032230
         H            2.274431220435    -1.640626625872    -0.456431393097     1.007825032230

  Basis Set: AUG-CC-PVTZ
    Blend: AUG-CC-PVTZ
  Basis Set: (AUG-CC-PVTZ AUX)
    Blend: AUG-CC-PVTZ-JKFIT
	 Reference Energy          =    -249.1080419057614392 [Eh]
	 Singles Energy            =      -0.0000000000000000 [Eh]
	 Same-Spin Energy          =      -0.2628951743282348 [Eh]
	 Opposite-Spin Energy      =      -0.9092972404641950 [Eh]
	 Correlation Energy        =      -1.1721924147924299 [Eh]
	 Total Energy              =    -250.2802343205538591 [Eh]

	 ================> DF-SCS-MP2 Energies <==================
	-----------------------------------------------------------
	 SCS Same-Spin Scale       =       0.3333333333333333 [-]
	 SCS Opposite-Spin Scale   =       1.2000000000000000 [-]
	 SCS Same-Spin Energy      =      -0.0876317247760783 [Eh]
	 SCS Opposite-Spin Energy  =      -1.0911566885570341 [Eh]
	 SCS Correlation Energy    =      -1.1787884133331124 [Eh]
	 SCS Total Energy          =    -250.2868303190945483 [Eh]
	-----------------------------------------------------------

  Dipole Moment: [D]
     X:     3.9281      Y:    -1.1006      Z:     0.5184     Total:     4.1122

*** Psi4 exiting successfully. Buy a developer a beer!
