                               Psi4 1.4a3.dev225

  ==> Input File <==

--------------------------------------------------------------------------
#psi4
#
memory 32 gb

molecule  {
0 1
  N       -2.7513610     0.1438680    -0.1944680
  C        0.7647750     0.0263420    -0.3418330
  C       -0.3397190    -0.8197720     0.3150330
  C        0.7287660     1.4657710     0.1638370
  C        2.1226780    -0.6220260    -0.0827390
  C       -1.6817970    -0.2974810     0.0424840
  H        0.5697573     0.0306183    -1.4725992
  H       -0.2896400    -1.8551110    -0.0410840
  H       -0.1876540    -0.8451710     1.4012950
  H        0.9032250     1.4956430     1.2452160
  H        1.5086800     2.0616750    -0.3191730
  H       -0.2358010     1.9387980    -0.0403200
  H        2.3360990    -0.6508680     0.9913740
  H        2.9204480    -0.0525400    -0.5681780
  H        2.1576980    -1.6469370    -0.4652230
units angstrom
no_reorient  #important for SAPT in psi4, default
symmetry c1  #important for SAPT in psi4, default
}

set PROPERTIES_ORIGIN ["COM"]
properties('MP2/aug-cc-pvtz', properties = ['dipole'])
--------------------------------------------------------------------------

    Molecular point group: c1
  Charge       = 0
  Multiplicity = 1
  Basis Set: AUG-CC-PVTZ
    Blend: AUG-CC-PVTZ
  Basis Set: (AUG-CC-PVTZ AUX)
    Blend: AUG-CC-PVTZ-JKFIT

    Orbital Energies [Eh]
    ---------------------

    Doubly Occupied:

       1A    -15.574440     2A    -11.282318     3A    -11.280649
       4A    -11.263573     5A    -11.234250     6A    -11.227310
       7A     -1.205777     8A     -1.118717     9A     -0.996071
      10A     -0.949352    11A     -0.801372    12A     -0.706056
      13A     -0.660976    14A     -0.624579    15A     -0.594994
      16A     -0.567397    17A     -0.554242    18A     -0.542919
      19A     -0.512707    20A     -0.496611    21A     -0.485849
      22A     -0.447941    23A     -0.444078

  @DF-RHF Final Energy:  -249.11196105354901

   => Energetics <=

    Nuclear Repulsion Energy =            219.9356255504290800
    One-Electron Energy =                -770.9508186592290713
    Two-Electron Energy =                 301.9032320552509532
    Total Energy =                       -249.1119610535490096
  Basis Set: (AUG-CC-PVTZ AUX)
    Blend: AUG-CC-PVTZ-RI
    Molecular point group: c1

    Geometry (in Angstrom), charge = 0, multiplicity = 1:

       Center              X                  Y                   Z               Mass
    ------------   -----------------  -----------------  -----------------  -----------------
         N           -2.635409521377     0.149544478037    -0.184540219235    14.003074004430
         C            0.880726478623     0.032018478037    -0.331905219235    12.000000000000
         C           -0.223767521377    -0.814095521963     0.324960780765    12.000000000000
         C            0.844717478623     1.471447478037     0.173764780765    12.000000000000
         C            2.238629478623    -0.616349521963    -0.072811219235    12.000000000000
         C           -1.565845521377    -0.291804521963     0.052411780765    12.000000000000
         H            0.685708778623     0.036294778037    -1.462671419235     1.007825032230
         H           -0.173688521377    -1.849434521963    -0.031156219235     1.007825032230
         H           -0.071702521377    -0.839494521963     1.411222780765     1.007825032230
         H            1.019176478623     1.501319478037     1.255143780765     1.007825032230
         H            1.624631478623     2.067351478037    -0.309245219235     1.007825032230
         H           -0.119849521377     1.944474478037    -0.030392219235     1.007825032230
         H            2.452050478623    -0.645191521963     1.001301780765     1.007825032230
         H            3.036399478623    -0.046863521963    -0.558250219235     1.007825032230
         H            2.273649478623    -1.641260521963    -0.455295219235     1.007825032230

  Basis Set: AUG-CC-PVTZ
    Blend: AUG-CC-PVTZ
  Basis Set: (AUG-CC-PVTZ AUX)
    Blend: AUG-CC-PVTZ-JKFIT
	 Reference Energy          =    -249.1119610535490096 [Eh]
	 Singles Energy            =      -0.0000000000000000 [Eh]
	 Same-Spin Energy          =      -0.2628964758819430 [Eh]
	 Opposite-Spin Energy      =      -0.9101606788704621 [Eh]
	 Correlation Energy        =      -1.1730571547524051 [Eh]
	 Total Energy              =    -250.2850182083014090 [Eh]

	 ================> DF-SCS-MP2 Energies <==================
	-----------------------------------------------------------
	 SCS Same-Spin Scale       =       0.3333333333333333 [-]
	 SCS Opposite-Spin Scale   =       1.2000000000000000 [-]
	 SCS Same-Spin Energy      =      -0.0876321586273143 [Eh]
	 SCS Opposite-Spin Energy  =      -1.0921928146445545 [Eh]
	 SCS Correlation Energy    =      -1.1798249732718689 [Eh]
	 SCS Total Energy          =    -250.2917860268208869 [Eh]
	-----------------------------------------------------------

  Dipole Moment: [D]
     X:     3.8818      Y:    -1.1149      Z:     0.5658     Total:     4.0781

*** Psi4 exiting successfully. Buy a developer a beer!
