                               Psi4 1.4a3.dev225

  ==> Input File <==

--------------------------------------------------------------------------
#psi4
#
memory 32 gb

molecule  {
0 1
  N       -2.7513610     0.1438680    -0.1944680
  C        0.7647750     0.0263420    -0.3418330
  C       -0.3397190    -0.8197720     0.3150330
  C        0.7287660     1.4657710     0.1638370
  C        2.1226780    -0.6220260    -0.0827390
  C       -1.6817970    -0.2974810     0.0424840
  H        0.5782550     0.0304320    -1.4233270
  H       -0.2896400    -1.8551110    -0.0410840
  H       -0.1876540    -0.8451710     1.4012950
  H        0.9032250     1.4956430     1.2452160
  H        1.5086800     2.0616750    -0.3191730
  H       -0.2358010     1.9387980    -0.0403200
  H        2.3360990    -0.6508680     0.9913740
  H        2.9933835    -0.0004752    -0.6125589
  H        2.1576980    -1.6469370    -0.4652230
units angstrom
no_reorient  #important for SAPT in psi4, default
symmetry c1  #important for SAPT in psi4, default
}

set PROPERTIES_ORIGIN ["COM"]
properties('MP2/aug-cc-pvtz', properties = ['dipole'])
--------------------------------------------------------------------------

    Molecular point group: c1
  Charge       = 0
  Multiplicity = 1
  Basis Set: AUG-CC-PVTZ
    Blend: AUG-CC-PVTZ
  Basis Set: (AUG-CC-PVTZ AUX)
    Blend: AUG-CC-PVTZ-JKFIT

    Orbital Energies [Eh]
    ---------------------

    Doubly Occupied:

       1A    -15.575044     2A    -11.282832     3A    -11.281258
       4A    -11.258560     5A    -11.245602     6A    -11.226832
       7A     -1.206391     8A     -1.119940     9A     -0.994383
      10A     -0.944993    11A     -0.804559    12A     -0.706166
      13A     -0.662522    14A     -0.623526    15A     -0.594780
      16A     -0.566247    17A     -0.552462    18A     -0.534437
      19A     -0.508071    20A     -0.497107    21A     -0.492521
      22A     -0.448530    23A     -0.443816

  @DF-RHF Final Energy:  -249.10753553482169

   => Energetics <=

    Nuclear Repulsion Energy =            219.7700893379571880
    One-Electron Energy =                -770.6140949472600141
    Two-Electron Energy =                 301.7364700744811330
    Total Energy =                       -249.1075355348216931
  Basis Set: (AUG-CC-PVTZ AUX)
    Blend: AUG-CC-PVTZ-RI
    Molecular point group: c1

    Geometry (in Angstrom), charge = 0, multiplicity = 1:

       Center              X                  Y                   Z               Mass
    ------------   -----------------  -----------------  -----------------  -----------------
         N           -2.636397446746     0.148915102226    -0.184599559152    14.003074004430
         C            0.879738553254     0.031389102226    -0.331964559152    12.000000000000
         C           -0.224755446746    -0.814724897774     0.324901440848    12.000000000000
         C            0.843729553254     1.470818102226     0.173705440848    12.000000000000
         C            2.237641553254    -0.616978897774    -0.072870559152    12.000000000000
         C           -1.566833446746    -0.292433897774     0.052352440848    12.000000000000
         H            0.693218553254     0.035479102226    -1.413458559152     1.007825032230
         H           -0.174676446746    -1.850063897774    -0.031215559152     1.007825032230
         H           -0.072690446746    -0.840123897774     1.411163440848     1.007825032230
         H            1.018188553254     1.500690102226     1.255084440848     1.007825032230
         H            1.623643553254     2.066722102226    -0.309304559152     1.007825032230
         H           -0.120837446746     1.943845102226    -0.030451559152     1.007825032230
         H            2.451062553254    -0.645820897774     1.001242440848     1.007825032230
         H            3.108347053254     0.004571902226    -0.602690459152     1.007825032230
         H            2.272661553254    -1.641889897774    -0.455354559152     1.007825032230

  Basis Set: AUG-CC-PVTZ
    Blend: AUG-CC-PVTZ
  Basis Set: (AUG-CC-PVTZ AUX)
    Blend: AUG-CC-PVTZ-JKFIT
	 Reference Energy          =    -249.1075355348216931 [Eh]
	 Singles Energy            =      -0.0000000000000000 [Eh]
	 Same-Spin Energy          =      -0.2628678986305473 [Eh]
	 Opposite-Spin Energy      =      -0.9105375076017540 [Eh]
	 Correlation Energy        =      -1.1734054062323014 [Eh]
	 Total Energy              =    -250.2809409410539843 [Eh]

	 ================> DF-SCS-MP2 Energies <==================
	-----------------------------------------------------------
	 SCS Same-Spin Scale       =       0.3333333333333333 [-]
	 SCS Opposite-Spin Scale   =       1.2000000000000000 [-]
	 SCS Same-Spin Energy      =      -0.0876226328768491 [Eh]
	 SCS Opposite-Spin Energy  =      -1.0926450091221047 [Eh]
	 SCS Correlation Energy    =      -1.1802676419989537 [Eh]
	 SCS Total Energy          =    -250.2878031768206597 [Eh]
	-----------------------------------------------------------

  Dipole Moment: [D]
     X:     3.8102      Y:    -1.1386      Z:     0.5574     Total:     4.0156

*** Psi4 exiting successfully. Buy a developer a beer!
