                               Psi4 1.4a3.dev225

  ==> Input File <==

--------------------------------------------------------------------------
#psi4
#
memory 32 gb

molecule  {
0 1
  N       -2.7513610     0.1438680    -0.1944680
  C        0.7647750     0.0263420    -0.3418330
  C       -0.3397190    -0.8197720     0.3150330
  C        0.7282941     1.4846353     0.1704640
  C        2.1226780    -0.6220260    -0.0827390
  C       -1.6817970    -0.2974810     0.0424840
  H        0.5782550     0.0304320    -1.4233270
  H       -0.2896400    -1.8551110    -0.0410840
  H       -0.1876540    -0.8451710     1.4012950
  H        0.9032250     1.4956430     1.2452160
  H        1.5086800     2.0616750    -0.3191730
  H       -0.2358010     1.9387980    -0.0403200
  H        2.3360990    -0.6508680     0.9913740
  H        2.9204480    -0.0525400    -0.5681780
  H        2.1576980    -1.6469370    -0.4652230
units angstrom
no_reorient  #important for SAPT in psi4, default
symmetry c1  #important for SAPT in psi4, default
}

set PROPERTIES_ORIGIN ["COM"]
properties('MP2/aug-cc-pvtz', properties = ['dipole'])
--------------------------------------------------------------------------

    Molecular point group: c1
  Charge       = 0
  Multiplicity = 1
  Basis Set: AUG-CC-PVTZ
    Blend: AUG-CC-PVTZ
  Basis Set: (AUG-CC-PVTZ AUX)
    Blend: AUG-CC-PVTZ-JKFIT

    Orbital Energies [Eh]
    ---------------------

    Doubly Occupied:

       1A    -15.574383     2A    -11.281776     3A    -11.280544
       4A    -11.258266     5A    -11.233714     6A    -11.226044
       7A     -1.205730     8A     -1.117919     9A     -0.995315
      10A     -0.949081    11A     -0.806937    12A     -0.707034
      13A     -0.660803    14A     -0.623791    15A     -0.595836
      16A     -0.566998    17A     -0.555571    18A     -0.543897
      19A     -0.513653    20A     -0.495735    21A     -0.489874
      22A     -0.447759    23A     -0.443901

  @DF-RHF Final Energy:  -249.11395933155674

   => Energetics <=

    Nuclear Repulsion Energy =            219.8907775882265128
    One-Electron Energy =                -770.8603517378835477
    Two-Electron Energy =                 301.8556148181003778
    Total Energy =                       -249.1139593315567140
  Basis Set: (AUG-CC-PVTZ AUX)
    Blend: AUG-CC-PVTZ-RI
    Molecular point group: c1

    Geometry (in Angstrom), charge = 0, multiplicity = 1:

       Center              X                  Y                   Z               Mass
    ------------   -----------------  -----------------  -----------------  -----------------
         N           -2.635444447013     0.146821782543    -0.186095248909    14.003074004430
         C            0.880691552987     0.029295782543    -0.333460248909    12.000000000000
         C           -0.223802447013    -0.816818217457     0.323405751091    12.000000000000
         C            0.844210652987     1.487589082543     0.178836751091    12.000000000000
         C            2.238594552987    -0.619072217457    -0.074366248909    12.000000000000
         C           -1.565880447013    -0.294527217457     0.050856751091    12.000000000000
         H            0.694171552987     0.033385782543    -1.414954248909     1.007825032230
         H           -0.173723447013    -1.852157217457    -0.032711248909     1.007825032230
         H           -0.071737447013    -0.842217217457     1.409667751091     1.007825032230
         H            1.019141552987     1.498596782543     1.253588751091     1.007825032230
         H            1.624596552987     2.064628782543    -0.310800248909     1.007825032230
         H           -0.119884447013     1.941751782543    -0.031947248909     1.007825032230
         H            2.452015552987    -0.647914217457     0.999746751091     1.007825032230
         H            3.036364552987    -0.049586217457    -0.559805248909     1.007825032230
         H            2.273614552987    -1.643983217457    -0.456850248909     1.007825032230

  Basis Set: AUG-CC-PVTZ
    Blend: AUG-CC-PVTZ
  Basis Set: (AUG-CC-PVTZ AUX)
    Blend: AUG-CC-PVTZ-JKFIT
	 Reference Energy          =    -249.1139593315567424 [Eh]
	 Singles Energy            =      -0.0000000000000000 [Eh]
	 Same-Spin Energy          =      -0.2627270673799754 [Eh]
	 Opposite-Spin Energy      =      -0.9096815102586814 [Eh]
	 Correlation Energy        =      -1.1724085776386568 [Eh]
	 Total Energy              =    -250.2863679091954054 [Eh]

	 ================> DF-SCS-MP2 Energies <==================
	-----------------------------------------------------------
	 SCS Same-Spin Scale       =       0.3333333333333333 [-]
	 SCS Opposite-Spin Scale   =       1.2000000000000000 [-]
	 SCS Same-Spin Energy      =      -0.0875756891266585 [Eh]
	 SCS Opposite-Spin Energy  =      -1.0916178123104177 [Eh]
	 SCS Correlation Energy    =      -1.1791935014370760 [Eh]
	 SCS Total Energy          =    -250.2931528329938260 [Eh]
	-----------------------------------------------------------

  Dipole Moment: [D]
     X:     3.8781      Y:    -1.1204      Z:     0.5357     Total:     4.0720

*** Psi4 exiting successfully. Buy a developer a beer!
