                               Psi4 1.3.2 release

  ==> Input File <==

--------------------------------------------------------------------------
#psi4
#
memory 32 gb

molecule  {
0 1
  S        1.8142300     0.7226310    -0.3411240
  O       -1.9068810    -0.9392130    -0.8060415
  O        0.4941690    -1.0618130     1.1146640
  C       -0.8273310     0.8335030     0.4756360
  C       -3.4145829     0.5371433     0.1939195
  C       -2.0096370     0.0521440    -0.0950140
  C        0.4326040    -0.0039200     0.5084100
  C       -4.5116740    -0.2794210    -0.2844450
  C        3.0576300    -0.5565920    -0.0082180
  C        4.4432860    -0.0468870    -0.3740170
  H       -0.6942050     1.7459430    -0.1201930
  H       -1.0474180     1.1506300     1.5016930
  H       -3.4528060     0.7235440     1.3254800
  H       -3.4442640     1.6111560    -0.1826160
  H       -5.4818800     0.1657790    -0.0500790
  H       -4.4326880    -0.4035450    -1.3660960
  H       -4.4661600    -1.2732880     0.1669010
  H        2.9964590    -0.8086780     1.0500210
  H        2.8025100    -1.4530070    -0.5759610
  H        4.5013120     0.2245390    -1.4310650
  H        4.7086350     0.8297180     0.2214350
  H        5.1861620    -0.8265290    -0.1846820
units angstrom
no_reorient  #important for SAPT in psi4, default
symmetry c1  #important for SAPT in psi4, default
}

set PROPERTIES_ORIGIN ["COM"]
properties('MP2/aug-cc-pvtz', properties = ['dipole'])
--------------------------------------------------------------------------

    Molecular point group: c1
  Charge       = 0
  Multiplicity = 1
  Basis Set: AUG-CC-PVTZ
    Blend: AUG-CC-PVTZ
  Basis Set: (AUG-CC-PVTZ AUX)
    Blend: AUG-CC-PVTZ-JKFIT

    Orbital Energies [Eh]
    ---------------------

    Doubly Occupied:

       1A    -91.974014     2A    -20.557555     3A    -20.552554
       4A    -11.370055     5A    -11.345215     6A    -11.271903
       7A    -11.264016     8A    -11.251443     9A    -11.232686
      10A    -11.217078    11A     -8.975606    12A     -6.656757
      13A     -6.655628    14A     -6.655014    15A     -1.398442
      16A     -1.384713    17A     -1.095539    18A     -1.079277
      19A     -1.050480    20A     -0.974410    21A     -0.894953
      22A     -0.838227    23A     -0.756834    24A     -0.727101
      25A     -0.679142    26A     -0.669128    27A     -0.650570
      28A     -0.637041    29A     -0.631704    30A     -0.608358
      31A     -0.597292    32A     -0.561361    33A     -0.559487
      34A     -0.537762    35A     -0.528107    36A     -0.517239
      37A     -0.511305    38A     -0.502198    39A     -0.474551
      40A     -0.466852    41A     -0.428776    42A     -0.407750
      43A     -0.372864

  @DF-RHF Final Energy:  -819.48551121255548

   => Energetics <=

    Nuclear Repulsion Energy =            603.3715636325061951
    One-Electron Energy =               -2322.6721765895640601
    Two-Electron Energy =                 899.8151017445023854
    Total Energy =                       -819.4855112125554797
  Basis Set: (AUG-CC-PVTZ AUX)
    Blend: AUG-CC-PVTZ-RI
    Molecular point group: c1

    Geometry (in Angstrom), charge = 0, multiplicity = 1:

       Center              X                  Y                   Z               Mass
    ------------   -----------------  -----------------  -----------------  -----------------
         S            1.822942083557     0.727448879754    -0.337267984484    31.972071174400
         O           -1.898168916443    -0.934395120246    -0.802185484484    15.994914619570
         O            0.502881083557    -1.056995120246     1.118520015516    15.994914619570
         C           -0.818618916443     0.838320879754     0.479492015516    12.000000000000
         C           -3.405870816443     0.541961179754     0.197775515516    12.000000000000
         C           -2.000924916443     0.056961879754    -0.091157984484    12.000000000000
         C            0.441316083557     0.000897879754     0.512266015516    12.000000000000
         C           -4.502961916443    -0.274603120246    -0.280588984484    12.000000000000
         C            3.066342083557    -0.551774120246    -0.004361984484    12.000000000000
         C            4.451998083557    -0.042069120246    -0.370160984484    12.000000000000
         H           -0.685492916443     1.750760879754    -0.116336984484     1.007825032230
         H           -1.038705916443     1.155447879754     1.505549015516     1.007825032230
         H           -3.444093916443     0.728361879754     1.329336015516     1.007825032230
         H           -3.435551916443     1.615973879754    -0.178759984484     1.007825032230
         H           -5.473167916443     0.170596879754    -0.046222984484     1.007825032230
         H           -4.423975916443    -0.398727120246    -1.362239984484     1.007825032230
         H           -4.457447916443    -1.268470120246     0.170757015516     1.007825032230
         H            3.005171083557    -0.803860120246     1.053877015516     1.007825032230
         H            2.811222083557    -1.448189120246    -0.572104984484     1.007825032230
         H            4.510024083557     0.229356879754    -1.427208984484     1.007825032230
         H            4.717347083557     0.834535879754     0.225291015516     1.007825032230
         H            5.194874083557    -0.821711120246    -0.180825984484     1.007825032230

  Basis Set: AUG-CC-PVTZ
    Blend: AUG-CC-PVTZ
  Basis Set: (AUG-CC-PVTZ AUX)
    Blend: AUG-CC-PVTZ-JKFIT
	 Reference Energy          =    -819.4855112125554797 [Eh]
	 Singles Energy            =      -0.0000000000000000 [Eh]
	 Same-Spin Energy          =      -0.4849502608554476 [Eh]
	 Opposite-Spin Energy      =      -1.5719149269736405 [Eh]
	 Correlation Energy        =      -2.0568651878290880 [Eh]
	 Total Energy              =    -821.5423764003845690 [Eh]

	 ================> DF-SCS-MP2 Energies <==================
	-----------------------------------------------------------
	 SCS Same-Spin Scale       =       0.3333333333333333 [-]
	 SCS Opposite-Spin Scale   =       1.2000000000000000 [-]
	 SCS Same-Spin Energy      =      -0.1616500869518158 [Eh]
	 SCS Opposite-Spin Energy  =      -1.8862979123683685 [Eh]
	 SCS Correlation Energy    =      -2.0479479993201846 [Eh]
	 SCS Total Energy          =    -821.5334592118756518 [Eh]
	-----------------------------------------------------------

  Dipole Moment: [D]
     X:     0.2157      Y:     2.8297      Z:     0.6879     Total:     2.9201

*** Psi4 exiting successfully. Buy a developer a beer!
