                               Psi4 1.4a3.dev225

  ==> Input File <==

--------------------------------------------------------------------------
#psi4
#
memory 32 gb

molecule  {
0 1
  S        1.5586770    -0.2994370    -0.7152220
  O       -1.5255240    -0.4876820     1.0921970
  O        0.7924220     1.7006740     0.8461850
  C       -0.8878030     0.9736540    -0.7120840
  C       -3.2304390    -0.0998550    -0.5631210
  C       -1.8542380     0.0638590     0.0480780
  C        0.4971904     0.9481694    -0.0568522
  C       -4.1634610    -0.9398430     0.2972900
  C        2.9497330    -0.0790050     0.4324980
  C        4.0540790    -1.0751370     0.1033520
  H       -0.8484610     0.6756560    -1.7668750
  H       -1.2645150     2.0025910    -0.6674260
  H       -3.6447290     0.9013370    -0.7419330
  H       -3.1015980    -0.5455960    -1.5588690
  H       -5.1413450    -1.0357370    -0.1813640
  H       -3.7504260    -1.9381500     0.4523140
  H       -4.2995020    -0.4825820     1.2793320
  H        3.3022180     0.9509290     0.3487650
  H        2.5726230    -0.2199470     1.4475820
  H        3.7004310    -2.1050230     0.1947960
  H        4.4320470    -0.9299840    -0.9117720
  H        4.8873260    -0.9394890     0.7982930
units angstrom
no_reorient  #important for SAPT in psi4, default
symmetry c1  #important for SAPT in psi4, default
}

set PROPERTIES_ORIGIN ["COM"]
properties('MP2/aug-cc-pvtz', properties = ['dipole'])
--------------------------------------------------------------------------

    Molecular point group: c1
  Charge       = 0
  Multiplicity = 1
  Basis Set: AUG-CC-PVTZ
    Blend: AUG-CC-PVTZ
  Basis Set: (AUG-CC-PVTZ AUX)
    Blend: AUG-CC-PVTZ-JKFIT

    Orbital Energies [Eh]
    ---------------------

    Doubly Occupied:

       1A    -91.968804     2A    -20.558126     3A    -20.555494
       4A    -11.364244     5A    -11.348576     6A    -11.265530
       7A    -11.261959     8A    -11.251568     9A    -11.230292
      10A    -11.223980    11A     -8.970783    12A     -6.651990
      13A     -6.650806    14A     -6.650168    15A     -1.400541
      16A     -1.387848    17A     -1.092624    18A     -1.076425
      19A     -1.040482    20A     -0.971015    21A     -0.896167
      22A     -0.836498    23A     -0.759109    24A     -0.726041
      25A     -0.677108    26A     -0.669068    27A     -0.649387
      28A     -0.637238    29A     -0.633026    30A     -0.610067
      31A     -0.590935    32A     -0.560846    33A     -0.547338
      34A     -0.532079    35A     -0.526582    36A     -0.521927
      37A     -0.512818    38A     -0.506127    39A     -0.493126
      40A     -0.462471    41A     -0.431673    42A     -0.405435
      43A     -0.369253

  @DF-RHF Final Energy:  -819.49652563905465

   => Energetics <=

    Nuclear Repulsion Energy =            610.3080527097412187
    One-Electron Energy =               -2336.6580135930998949
    Two-Electron Energy =                 906.8534352443039097
    Total Energy =                       -819.4965256390546529
  Basis Set: (AUG-CC-PVTZ AUX)
    Blend: AUG-CC-PVTZ-RI
    Molecular point group: c1

    Geometry (in Angstrom), charge = 0, multiplicity = 1:

       Center              X                  Y                   Z               Mass
    ------------   -----------------  -----------------  -----------------  -----------------
         S            1.538007092342    -0.322151013805    -0.724029365606    31.972071174400
         O           -1.546193907658    -0.510396013805     1.083389634394    15.994914619570
         O            0.771752092342     1.677959986195     0.837377634394    15.994914619570
         C           -0.908472907658     0.950939986195    -0.720891365606    12.000000000000
         C           -3.251108907658    -0.122569013805    -0.571928365606    12.000000000000
         C           -1.874907907658     0.041144986195     0.039270634394    12.000000000000
         C            0.476520492342     0.925455386195    -0.065659565606    12.000000000000
         C           -4.184130907658    -0.962557013805     0.288482634394    12.000000000000
         C            2.929063092342    -0.101719013805     0.423690634394    12.000000000000
         C            4.033409092342    -1.097851013805     0.094544634394    12.000000000000
         H           -0.869130907658     0.652941986195    -1.775682365606     1.007825032230
         H           -1.285184907658     1.979876986195    -0.676233365606     1.007825032230
         H           -3.665398907658     0.878622986195    -0.750740365606     1.007825032230
         H           -3.122267907658    -0.568310013805    -1.567676365606     1.007825032230
         H           -5.162014907658    -1.058451013805    -0.190171365606     1.007825032230
         H           -3.771095907658    -1.960864013805     0.443506634394     1.007825032230
         H           -4.320171907658    -0.505296013805     1.270524634394     1.007825032230
         H            3.281548092342     0.928214986195     0.339957634394     1.007825032230
         H            2.551953092342    -0.242661013805     1.438774634394     1.007825032230
         H            3.679761092342    -2.127737013805     0.185988634394     1.007825032230
         H            4.411377092342    -0.952698013805    -0.920579365606     1.007825032230
         H            4.866656092342    -0.962203013805     0.789485634394     1.007825032230

  Basis Set: AUG-CC-PVTZ
    Blend: AUG-CC-PVTZ
  Basis Set: (AUG-CC-PVTZ AUX)
    Blend: AUG-CC-PVTZ-JKFIT
	 Reference Energy          =    -819.4965256390546529 [Eh]
	 Singles Energy            =      -0.0000000000000000 [Eh]
	 Same-Spin Energy          =      -0.4841975046497226 [Eh]
	 Opposite-Spin Energy      =      -1.5706930260320551 [Eh]
	 Correlation Energy        =      -2.0548905306817775 [Eh]
	 Total Energy              =    -821.5514161697363988 [Eh]

	 ================> DF-SCS-MP2 Energies <==================
	-----------------------------------------------------------
	 SCS Same-Spin Scale       =       0.3333333333333333 [-]
	 SCS Opposite-Spin Scale   =       1.2000000000000000 [-]
	 SCS Same-Spin Energy      =      -0.1613991682165742 [Eh]
	 SCS Opposite-Spin Energy  =      -1.8848316312384661 [Eh]
	 SCS Correlation Energy    =      -2.0462307994550404 [Eh]
	 SCS Total Energy          =    -821.5427564385097412 [Eh]
	-----------------------------------------------------------

  Dipole Moment: [D]
     X:    -0.6523      Y:    -0.2176      Z:    -2.6746     Total:     2.7616

*** Psi4 exiting successfully. Buy a developer a beer!
