                               Psi4 1.4a3.dev225

  ==> Input File <==

--------------------------------------------------------------------------
#psi4
#
memory 32 gb

molecule  {
0 1
  S        1.5586770    -0.2994370    -0.7152220
  O       -1.5255240    -0.4876820     1.0921970
  O        0.7924220     1.7006740     0.8461850
  C       -0.8878030     0.9736540    -0.7120840
  C       -3.2304390    -0.0998550    -0.5631210
  C       -1.8542380     0.0638590     0.0480780
  C        0.4842390     0.9608058    -0.0504925
  C       -4.1634610    -0.9398430     0.2972900
  C        2.9497330    -0.0790050     0.4324980
  C        4.0540790    -1.0751370     0.1033520
  H       -0.8484610     0.6756560    -1.7668750
  H       -1.2645150     2.0025910    -0.6674260
  H       -3.6447290     0.9013370    -0.7419330
  H       -3.1015980    -0.5455960    -1.5588690
  H       -5.1413450    -1.0357370    -0.1813640
  H       -3.7504260    -1.9381500     0.4523140
  H       -4.2995020    -0.4825820     1.2793320
  H        3.3022180     0.9509290     0.3487650
  H        2.5726230    -0.2199470     1.4475820
  H        3.7004310    -2.1050230     0.1947960
  H        4.4320470    -0.9299840    -0.9117720
  H        4.8873260    -0.9394890     0.7982930
units angstrom
no_reorient  #important for SAPT in psi4, default
symmetry c1  #important for SAPT in psi4, default
}

set PROPERTIES_ORIGIN ["COM"]
properties('MP2/aug-cc-pvtz', properties = ['dipole'])
--------------------------------------------------------------------------

    Molecular point group: c1
  Charge       = 0
  Multiplicity = 1
  Basis Set: AUG-CC-PVTZ
    Blend: AUG-CC-PVTZ
  Basis Set: (AUG-CC-PVTZ AUX)
    Blend: AUG-CC-PVTZ-JKFIT

    Orbital Energies [Eh]
    ---------------------

    Doubly Occupied:

       1A    -91.966180     2A    -20.558953     3A    -20.558023
       4A    -11.364639     5A    -11.349510     6A    -11.266138
       7A    -11.260695     8A    -11.252138     9A    -11.229303
      10A    -11.224393    11A     -8.967914    12A     -6.649088
      13A     -6.647956    14A     -6.647303    15A     -1.407346
      16A     -1.389840    17A     -1.091421    18A     -1.076145
      19A     -1.041882    20A     -0.967560    21A     -0.897054
      22A     -0.834598    23A     -0.760353    24A     -0.727150
      25A     -0.678265    26A     -0.670548    27A     -0.652144
      28A     -0.638127    29A     -0.631942    30A     -0.611495
      31A     -0.591097    32A     -0.561321    33A     -0.548912
      34A     -0.533009    35A     -0.526366    36A     -0.522328
      37A     -0.513273    38A     -0.506893    39A     -0.493766
      40A     -0.461420    41A     -0.431899    42A     -0.404064
      43A     -0.367136

  @DF-RHF Final Energy:  -819.49731114184408

   => Energetics <=

    Nuclear Repulsion Energy =            610.2355114759849357
    One-Electron Energy =               -2336.5064662743193367
    Two-Electron Energy =                 906.7736436564904352
    Total Energy =                       -819.4973111418440794
  Basis Set: (AUG-CC-PVTZ AUX)
    Blend: AUG-CC-PVTZ-RI
    Molecular point group: c1

    Geometry (in Angstrom), charge = 0, multiplicity = 1:

       Center              X                  Y                   Z               Mass
    ------------   -----------------  -----------------  -----------------  -----------------
         S            1.538978108695    -0.323098413395    -0.724506176815    31.972071174400
         O           -1.545222891305    -0.511343413395     1.082912823185    15.994914619570
         O            0.772723108695     1.677012586605     0.836900823185    15.994914619570
         C           -0.907501891305     0.949992586605    -0.721368176815    12.000000000000
         C           -3.250137891305    -0.123516413395    -0.572405176815    12.000000000000
         C           -1.873936891305     0.040197586605     0.038793823185    12.000000000000
         C            0.464540108695     0.937144386605    -0.059776676815    12.000000000000
         C           -4.183159891305    -0.963504413395     0.288005823185    12.000000000000
         C            2.930034108695    -0.102666413395     0.423213823185    12.000000000000
         C            4.034380108695    -1.098798413395     0.094067823185    12.000000000000
         H           -0.868159891305     0.651994586605    -1.776159176815     1.007825032230
         H           -1.284213891305     1.978929586605    -0.676710176815     1.007825032230
         H           -3.664427891305     0.877675586605    -0.751217176815     1.007825032230
         H           -3.121296891305    -0.569257413395    -1.568153176815     1.007825032230
         H           -5.161043891305    -1.059398413395    -0.190648176815     1.007825032230
         H           -3.770124891305    -1.961811413395     0.443029823185     1.007825032230
         H           -4.319200891305    -0.506243413395     1.270047823185     1.007825032230
         H            3.282519108695     0.927267586605     0.339480823185     1.007825032230
         H            2.552924108695    -0.243608413395     1.438297823185     1.007825032230
         H            3.680732108695    -2.128684413395     0.185511823185     1.007825032230
         H            4.412348108695    -0.953645413395    -0.921056176815     1.007825032230
         H            4.867627108695    -0.963150413395     0.789008823185     1.007825032230

  Basis Set: AUG-CC-PVTZ
    Blend: AUG-CC-PVTZ
  Basis Set: (AUG-CC-PVTZ AUX)
    Blend: AUG-CC-PVTZ-JKFIT
	 Reference Energy          =    -819.4973111418440794 [Eh]
	 Singles Energy            =      -0.0000000000000000 [Eh]
	 Same-Spin Energy          =      -0.4839516975907305 [Eh]
	 Opposite-Spin Energy      =      -1.5702290391750555 [Eh]
	 Correlation Energy        =      -2.0541807367657858 [Eh]
	 Total Energy              =    -821.5514918786099088 [Eh]

	 ================> DF-SCS-MP2 Energies <==================
	-----------------------------------------------------------
	 SCS Same-Spin Scale       =       0.3333333333333333 [-]
	 SCS Opposite-Spin Scale   =       1.2000000000000000 [-]
	 SCS Same-Spin Energy      =      -0.1613172325302435 [Eh]
	 SCS Opposite-Spin Energy  =      -1.8842748470100665 [Eh]
	 SCS Correlation Energy    =      -2.0455920795403100 [Eh]
	 SCS Total Energy          =    -821.5429032213843357 [Eh]
	-----------------------------------------------------------

  Dipole Moment: [D]
     X:    -0.7902      Y:    -0.1128      Z:    -2.6220     Total:     2.7408

*** Psi4 exiting successfully. Buy a developer a beer!
