                               Psi4 1.3.2 release

  ==> Input File <==

--------------------------------------------------------------------------
#psi4
#
memory 32 gb

molecule  {
0 1
  S        1.8231059     0.7106831    -0.3367655
  O       -1.8432130    -0.9348080    -0.8000930
  O        0.5044588    -1.0626657     1.1120375
  C       -0.8273310     0.8335030     0.4756360
  C       -3.3832440     0.5955310     0.2374230
  C       -2.0096370     0.0521440    -0.0950140
  C        0.4326040    -0.0039200     0.5084100
  C       -4.5116740    -0.2794210    -0.2844450
  C        3.0576300    -0.5565920    -0.0082180
  C        4.4432860    -0.0468870    -0.3740170
  H       -0.6942050     1.7459430    -0.1201930
  H       -1.0474180     1.1506300     1.5016930
  H       -3.4528060     0.7235440     1.3254800
  H       -3.4442640     1.6111560    -0.1826160
  H       -5.4818800     0.1657790    -0.0500790
  H       -4.4326880    -0.4035450    -1.3660960
  H       -4.4661600    -1.2732880     0.1669010
  H        2.9964590    -0.8086780     1.0500210
  H        2.8025100    -1.4530070    -0.5759610
  H        4.5013120     0.2245390    -1.4310650
  H        4.7086350     0.8297180     0.2214350
  H        5.1861620    -0.8265290    -0.1846820
units angstrom
no_reorient  #important for SAPT in psi4, default
symmetry c1  #important for SAPT in psi4, default
}

set PROPERTIES_ORIGIN ["COM"]
properties('MP2/aug-cc-pvtz', properties = ['dipole'])
--------------------------------------------------------------------------

    Molecular point group: c1
  Charge       = 0
  Multiplicity = 1
  Basis Set: AUG-CC-PVTZ
    Blend: AUG-CC-PVTZ
  Basis Set: (AUG-CC-PVTZ AUX)
    Blend: AUG-CC-PVTZ-JKFIT

    Orbital Energies [Eh]
    ---------------------

    Doubly Occupied:

       1A    -91.970812     2A    -20.556004     3A    -20.554947
       4A    -11.367565     5A    -11.346575     6A    -11.267749
       7A    -11.260953     8A    -11.250236     9A    -11.231496
      10A    -11.222556    11A     -8.972711    12A     -6.653877
      13A     -6.652775    14A     -6.652135    15A     -1.397581
      16A     -1.384373    17A     -1.095188    18A     -1.078236
      19A     -1.043081    20A     -0.971885    21A     -0.896698
      22A     -0.837750    23A     -0.760123    24A     -0.727161
      25A     -0.678650    26A     -0.668980    27A     -0.648566
      28A     -0.638091    29A     -0.634377    30A     -0.608974
      31A     -0.595563    32A     -0.559351    33A     -0.546375
      34A     -0.533487    35A     -0.527152    36A     -0.521114
      37A     -0.512019    38A     -0.504721    39A     -0.489036
      40A     -0.466611    41A     -0.429900    42A     -0.406185
      43A     -0.369866

  @DF-RHF Final Energy:  -819.49476071811841

   => Energetics <=

    Nuclear Repulsion Energy =            603.7603115190826202
    One-Electron Energy =               -2323.5271692177384466
    Two-Electron Energy =                 900.2720969805372988
    Total Energy =                       -819.4947607181184139
  Basis Set: (AUG-CC-PVTZ AUX)
    Blend: AUG-CC-PVTZ-RI
    Molecular point group: c1

    Geometry (in Angstrom), charge = 0, multiplicity = 1:

       Center              X                  Y                   Z               Mass
    ------------   -----------------  -----------------  -----------------  -----------------
         S            1.820304521416     0.713155097730    -0.337373723674    31.972071174400
         O           -1.846014378584    -0.932336002270    -0.800701223674    15.994914619570
         O            0.501657421416    -1.060193702270     1.111429276326    15.994914619570
         C           -0.830132378584     0.835974997730     0.475027776326    12.000000000000
         C           -3.386045378584     0.598002997730     0.236814776326    12.000000000000
         C           -2.012438378584     0.054615997730    -0.095622223674    12.000000000000
         C            0.429802621416    -0.001448002270     0.507801776326    12.000000000000
         C           -4.514475378584    -0.276949002270    -0.285053223674    12.000000000000
         C            3.054828621416    -0.554120002270    -0.008826223674    12.000000000000
         C            4.440484621416    -0.044415002270    -0.374625223674    12.000000000000
         H           -0.697006378584     1.748414997730    -0.120801223674     1.007825032230
         H           -1.050219378584     1.153101997730     1.501084776326     1.007825032230
         H           -3.455607378584     0.726015997730     1.324871776326     1.007825032230
         H           -3.447065378584     1.613627997730    -0.183224223674     1.007825032230
         H           -5.484681378584     0.168250997730    -0.050687223674     1.007825032230
         H           -4.435489378584    -0.401073002270    -1.366704223674     1.007825032230
         H           -4.468961378584    -1.270816002270     0.166292776326     1.007825032230
         H            2.993657621416    -0.806206002270     1.049412776326     1.007825032230
         H            2.799708621416    -1.450535002270    -0.576569223674     1.007825032230
         H            4.498510621416     0.227010997730    -1.431673223674     1.007825032230
         H            4.705833621416     0.832189997730     0.220826776326     1.007825032230
         H            5.183360621416    -0.824057002270    -0.185290223674     1.007825032230

  Basis Set: AUG-CC-PVTZ
    Blend: AUG-CC-PVTZ
  Basis Set: (AUG-CC-PVTZ AUX)
    Blend: AUG-CC-PVTZ-JKFIT
	 Reference Energy          =    -819.4947607181184139 [Eh]
	 Singles Energy            =      -0.0000000000000000 [Eh]
	 Same-Spin Energy          =      -0.4843014516656202 [Eh]
	 Opposite-Spin Energy      =      -1.5709543242980877 [Eh]
	 Correlation Energy        =      -2.0552557759637078 [Eh]
	 Total Energy              =    -821.5500164940821151 [Eh]

	 ================> DF-SCS-MP2 Energies <==================
	-----------------------------------------------------------
	 SCS Same-Spin Scale       =       0.3333333333333333 [-]
	 SCS Opposite-Spin Scale   =       1.2000000000000000 [-]
	 SCS Same-Spin Energy      =      -0.1614338172218734 [Eh]
	 SCS Opposite-Spin Energy  =      -1.8851451891577051 [Eh]
	 SCS Correlation Energy    =      -2.0465790063795786 [Eh]
	 SCS Total Energy          =    -821.5413397244980160 [Eh]
	-----------------------------------------------------------

  Dipole Moment: [D]
     X:    -0.0440      Y:     2.8338      Z:     0.6930     Total:     2.9177

*** Psi4 exiting successfully. Buy a developer a beer!
