                               Psi4 1.4a3.dev225

  ==> Input File <==

--------------------------------------------------------------------------
#psi4
#
memory 32 gb

molecule  {
0 1
  S        1.5586770    -0.2994370    -0.7152220
  O       -1.5255240    -0.4876820     1.0921970
  O        0.7924220     1.7006740     0.8461850
  C       -0.8878030     0.9736540    -0.7120840
  C       -3.2304390    -0.0998550    -0.5631210
  C       -1.8724093     0.0616973     0.0400077
  C        0.4791140     0.9485020    -0.0654040
  C       -4.1634610    -0.9398430     0.2972900
  C        2.9497330    -0.0790050     0.4324980
  C        4.0540790    -1.0751370     0.1033520
  H       -0.8484610     0.6756560    -1.7668750
  H       -1.2645150     2.0025910    -0.6674260
  H       -3.6447290     0.9013370    -0.7419330
  H       -3.1015980    -0.5455960    -1.5588690
  H       -5.1413450    -1.0357370    -0.1813640
  H       -3.7504260    -1.9381500     0.4523140
  H       -4.2995020    -0.4825820     1.2793320
  H        3.3022180     0.9509290     0.3487650
  H        2.5726230    -0.2199470     1.4475820
  H        3.7004310    -2.1050230     0.1947960
  H        4.4320470    -0.9299840    -0.9117720
  H        4.8873260    -0.9394890     0.7982930
units angstrom
no_reorient  #important for SAPT in psi4, default
symmetry c1  #important for SAPT in psi4, default
}

set PROPERTIES_ORIGIN ["COM"]
properties('MP2/aug-cc-pvtz', properties = ['dipole'])
--------------------------------------------------------------------------

    Molecular point group: c1
  Charge       = 0
  Multiplicity = 1
  Basis Set: AUG-CC-PVTZ
    Blend: AUG-CC-PVTZ
  Basis Set: (AUG-CC-PVTZ AUX)
    Blend: AUG-CC-PVTZ-JKFIT

    Orbital Energies [Eh]
    ---------------------

    Doubly Occupied:

       1A    -91.968004     2A    -20.558413     3A    -20.554598
       4A    -11.365158     5A    -11.350985     6A    -11.266474
       7A    -11.261235     8A    -11.253234     9A    -11.229799
      10A    -11.225527    11A     -8.969786    12A     -6.650979
      13A     -6.649837    14A     -6.649199    15A     -1.393514
      16A     -1.381210    17A     -1.093204    18A     -1.078882
      19A     -1.043713    20A     -0.969280    21A     -0.901007
      22A     -0.835885    23A     -0.760624    24A     -0.725936
      25A     -0.677694    26A     -0.669642    27A     -0.648783
      28A     -0.637632    29A     -0.632198    30A     -0.609125
      31A     -0.590404    32A     -0.559680    33A     -0.546668
      34A     -0.530694    35A     -0.525987    36A     -0.522337
      37A     -0.513070    38A     -0.503935    39A     -0.490792
      40A     -0.462252    41A     -0.432798    42A     -0.407405
      43A     -0.367598

  @DF-RHF Final Energy:  -819.49393589665146

   => Energetics <=

    Nuclear Repulsion Energy =            610.0301019941031200
    One-Electron Energy =               -2336.1177230339758353
    Two-Electron Energy =                 906.5936851432213643
    Total Energy =                       -819.4939358966514646
  Basis Set: (AUG-CC-PVTZ AUX)
    Blend: AUG-CC-PVTZ-RI
    Molecular point group: c1

    Geometry (in Angstrom), charge = 0, multiplicity = 1:

       Center              X                  Y                   Z               Mass
    ------------   -----------------  -----------------  -----------------  -----------------
         S            1.540724722055    -0.322013879131    -0.722783142732    31.972071174400
         O           -1.543476277945    -0.510258879131     1.084635857268    15.994914619570
         O            0.774469722055     1.678097120869     0.838623857268    15.994914619570
         C           -0.905755277945     0.951077120869    -0.719645142732    12.000000000000
         C           -3.248391277945    -0.122431879131    -0.570682142732    12.000000000000
         C           -1.890361577945     0.039120420869     0.032446557268    12.000000000000
         C            0.461161722055     0.925925120869    -0.072965142732    12.000000000000
         C           -4.181413277945    -0.962419879131     0.289728857268    12.000000000000
         C            2.931780722055    -0.101581879131     0.424936857268    12.000000000000
         C            4.036126722055    -1.097713879131     0.095790857268    12.000000000000
         H           -0.866413277945     0.653079120869    -1.774436142732     1.007825032230
         H           -1.282467277945     1.980014120869    -0.674987142732     1.007825032230
         H           -3.662681277945     0.878760120869    -0.749494142732     1.007825032230
         H           -3.119550277945    -0.568172879131    -1.566430142732     1.007825032230
         H           -5.159297277945    -1.058313879131    -0.188925142732     1.007825032230
         H           -3.768378277945    -1.960726879131     0.444752857268     1.007825032230
         H           -4.317454277945    -0.505158879131     1.271770857268     1.007825032230
         H            3.284265722055     0.928352120869     0.341203857268     1.007825032230
         H            2.554670722055    -0.242523879131     1.440020857268     1.007825032230
         H            3.682478722055    -2.127599879131     0.187234857268     1.007825032230
         H            4.414094722055    -0.952560879131    -0.919333142732     1.007825032230
         H            4.869373722055    -0.962065879131     0.790731857268     1.007825032230

  Basis Set: AUG-CC-PVTZ
    Blend: AUG-CC-PVTZ
  Basis Set: (AUG-CC-PVTZ AUX)
    Blend: AUG-CC-PVTZ-JKFIT
	 Reference Energy          =    -819.4939358966514646 [Eh]
	 Singles Energy            =      -0.0000000000000000 [Eh]
	 Same-Spin Energy          =      -0.4848845407586567 [Eh]
	 Opposite-Spin Energy      =      -1.5720769052207983 [Eh]
	 Correlation Energy        =      -2.0569614459794550 [Eh]
	 Total Energy              =    -821.5508973426309467 [Eh]

	 ================> DF-SCS-MP2 Energies <==================
	-----------------------------------------------------------
	 SCS Same-Spin Scale       =       0.3333333333333333 [-]
	 SCS Opposite-Spin Scale   =       1.2000000000000000 [-]
	 SCS Same-Spin Energy      =      -0.1616281802528856 [Eh]
	 SCS Opposite-Spin Energy  =      -1.8864922862649580 [Eh]
	 SCS Correlation Energy    =      -2.0481204665178434 [Eh]
	 SCS Total Energy          =    -821.5420563631693085 [Eh]
	-----------------------------------------------------------

  Dipole Moment: [D]
     X:    -0.8510      Y:    -0.2313      Z:    -2.7184     Total:     2.8578

*** Psi4 exiting successfully. Buy a developer a beer!
