                               Psi4 1.3.2 release

  ==> Input File <==

--------------------------------------------------------------------------
#psi4
#
memory 32 gb

molecule  {
0 1
  S        1.8142300     0.7226310    -0.3411240
  O       -1.8432130    -0.9348080    -0.8000930
  O        0.4941690    -1.0618130     1.1146640
  C       -0.8273310     0.8335030     0.4756360
  C       -3.3832440     0.5955310     0.2374230
  C       -2.0096370     0.0521440    -0.0950140
  C        0.4326040    -0.0039200     0.5084100
  C       -4.5116740    -0.2794210    -0.2844450
  C        3.0576300    -0.5565920    -0.0082180
  C        4.4432860    -0.0468870    -0.3740170
  H       -0.6942050     1.7459430    -0.1201930
  H       -1.0474180     1.1506300     1.5016930
  H       -3.4654794     0.7468664     1.5237108
  H       -3.4442640     1.6111560    -0.1826160
  H       -5.4818800     0.1657790    -0.0500790
  H       -4.4326880    -0.4035450    -1.3660960
  H       -4.4661600    -1.2732880     0.1669010
  H        2.9964590    -0.8086780     1.0500210
  H        2.8025100    -1.4530070    -0.5759610
  H        4.5013120     0.2245390    -1.4310650
  H        4.7086350     0.8297180     0.2214350
  H        5.1861620    -0.8265290    -0.1846820
units angstrom
no_reorient  #important for SAPT in psi4, default
symmetry c1  #important for SAPT in psi4, default
}

set PROPERTIES_ORIGIN ["COM"]
properties('MP2/aug-cc-pvtz', properties = ['dipole'])
--------------------------------------------------------------------------

    Molecular point group: c1
  Charge       = 0
  Multiplicity = 1
  Basis Set: AUG-CC-PVTZ
    Blend: AUG-CC-PVTZ
  Basis Set: (AUG-CC-PVTZ AUX)
    Blend: AUG-CC-PVTZ-JKFIT

    Orbital Energies [Eh]
    ---------------------

    Doubly Occupied:

       1A    -91.972028     2A    -20.557503     3A    -20.554980
       4A    -11.367313     5A    -11.348289     6A    -11.272336
       7A    -11.266431     8A    -11.262556     9A    -11.231589
      10A    -11.224876    11A     -8.973642    12A     -6.654795
      13A     -6.653667    14A     -6.653053    15A     -1.397961
      16A     -1.385035    17A     -1.093297    18A     -1.073947
      19A     -1.040239    20A     -0.972193    21A     -0.894315
      22A     -0.836609    23A     -0.755227    24A     -0.726040
      25A     -0.675535    26A     -0.667699    27A     -0.648379
      28A     -0.635221    29A     -0.625227    30A     -0.608199
      31A     -0.593182    32A     -0.559742    33A     -0.547251
      34A     -0.534301    35A     -0.527321    36A     -0.520262
      37A     -0.509119    38A     -0.501092    39A     -0.477901
      40A     -0.464977    41A     -0.430500    42A     -0.406928
      43A     -0.371075

  @DF-RHF Final Energy:  -819.47486253059333

   => Energetics <=

    Nuclear Repulsion Energy =            602.5938035385083822
    One-Electron Energy =               -2321.1936624332824977
    Two-Electron Energy =                 899.1249963641807881
    Total Energy =                       -819.4748625305933274
  Basis Set: (AUG-CC-PVTZ AUX)
    Blend: AUG-CC-PVTZ-RI
    Molecular point group: c1

    Geometry (in Angstrom), charge = 0, multiplicity = 1:

       Center              X                  Y                   Z               Mass
    ------------   -----------------  -----------------  -----------------  -----------------
         S            1.814309728795     0.722484268078    -0.342372265041    31.972071174400
         O           -1.843133271205    -0.934954731922    -0.801341265041    15.994914619570
         O            0.494248728795    -1.061959731922     1.113415734959    15.994914619570
         C           -0.827251271205     0.833356268078     0.474387734959    12.000000000000
         C           -3.383164271205     0.595384268078     0.236174734959    12.000000000000
         C           -2.009557271205     0.051997268078    -0.096262265041    12.000000000000
         C            0.432683728795    -0.004066731922     0.507161734959    12.000000000000
         C           -4.511594271205    -0.279567731922    -0.285693265041    12.000000000000
         C            3.057709728795    -0.556738731922    -0.009466265041    12.000000000000
         C            4.443365728795    -0.047033731922    -0.375265265041    12.000000000000
         H           -0.694125271205     1.745796268078    -0.121441265041     1.007825032230
         H           -1.047338271205     1.150483268078     1.500444734959     1.007825032230
         H           -3.465399671205     0.746719668078     1.522462534959     1.007825032230
         H           -3.444184271205     1.611009268078    -0.183864265041     1.007825032230
         H           -5.481800271205     0.165632268078    -0.051327265041     1.007825032230
         H           -4.432608271205    -0.403691731922    -1.367344265041     1.007825032230
         H           -4.466080271205    -1.273434731922     0.165652734959     1.007825032230
         H            2.996538728795    -0.808824731922     1.048772734959     1.007825032230
         H            2.802589728795    -1.453153731922    -0.577209265041     1.007825032230
         H            4.501391728795     0.224392268078    -1.432313265041     1.007825032230
         H            4.708714728795     0.829571268078     0.220186734959     1.007825032230
         H            5.186241728795    -0.826675731922    -0.185930265041     1.007825032230

  Basis Set: AUG-CC-PVTZ
    Blend: AUG-CC-PVTZ
  Basis Set: (AUG-CC-PVTZ AUX)
    Blend: AUG-CC-PVTZ-JKFIT
	 Reference Energy          =    -819.4748625305933274 [Eh]
	 Singles Energy            =      -0.0000000000000000 [Eh]
	 Same-Spin Energy          =      -0.4843232710144997 [Eh]
	 Opposite-Spin Energy      =      -1.5727360648195510 [Eh]
	 Correlation Energy        =      -2.0570593358340505 [Eh]
	 Total Energy              =    -821.5319218664274104 [Eh]

	 ================> DF-SCS-MP2 Energies <==================
	-----------------------------------------------------------
	 SCS Same-Spin Scale       =       0.3333333333333333 [-]
	 SCS Opposite-Spin Scale   =       1.2000000000000000 [-]
	 SCS Same-Spin Energy      =      -0.1614410903381666 [Eh]
	 SCS Opposite-Spin Energy  =      -1.8872832777834612 [Eh]
	 SCS Correlation Energy    =      -2.0487243681216278 [Eh]
	 SCS Total Energy          =    -821.5235868987149388 [Eh]
	-----------------------------------------------------------

  Dipole Moment: [D]
     X:    -0.0305      Y:     2.7868      Z:     0.5742     Total:     2.8455

*** Psi4 exiting successfully. Buy a developer a beer!
