                               Psi4 1.4a3.dev225

  ==> Input File <==

--------------------------------------------------------------------------
#psi4
#
memory 32 gb

molecule  {
0 1
  S        1.5586770    -0.2994370    -0.7152220
  O       -1.5255240    -0.4876820     1.0921970
  O        0.7924220     1.7006740     0.8461850
  C       -0.8878030     0.9736540    -0.7120840
  C       -3.2304390    -0.0998550    -0.5631210
  C       -1.8996664     0.0584548     0.0279023
  C        0.4791140     0.9485020    -0.0654040
  C       -4.1634610    -0.9398430     0.2972900
  C        2.9497330    -0.0790050     0.4324980
  C        4.0540790    -1.0751370     0.1033520
  H       -0.8484610     0.6756560    -1.7668750
  H       -1.2645150     2.0025910    -0.6674260
  H       -3.6447290     0.9013370    -0.7419330
  H       -3.1015980    -0.5455960    -1.5588690
  H       -5.1413450    -1.0357370    -0.1813640
  H       -3.7504260    -1.9381500     0.4523140
  H       -4.2995020    -0.4825820     1.2793320
  H        3.3022180     0.9509290     0.3487650
  H        2.5726230    -0.2199470     1.4475820
  H        3.7004310    -2.1050230     0.1947960
  H        4.4320470    -0.9299840    -0.9117720
  H        4.8873260    -0.9394890     0.7982930
units angstrom
no_reorient  #important for SAPT in psi4, default
symmetry c1  #important for SAPT in psi4, default
}

set PROPERTIES_ORIGIN ["COM"]
properties('MP2/aug-cc-pvtz', properties = ['dipole'])
--------------------------------------------------------------------------

    Molecular point group: c1
  Charge       = 0
  Multiplicity = 1
  Basis Set: AUG-CC-PVTZ
    Blend: AUG-CC-PVTZ
  Basis Set: (AUG-CC-PVTZ AUX)
    Blend: AUG-CC-PVTZ-JKFIT

    Orbital Energies [Eh]
    ---------------------

    Doubly Occupied:

       1A    -91.967410     2A    -20.557164     3A    -20.554009
       4A    -11.364782     5A    -11.352689     6A    -11.266716
       7A    -11.260730     8A    -11.254261     9A    -11.229414
      10A    -11.226999    11A     -8.969184    12A     -6.650377
      13A     -6.649237    14A     -6.648597    15A     -1.391100
      16A     -1.372157    17A     -1.094169    18A     -1.081852
      19A     -1.043409    20A     -0.968615    21A     -0.905853
      22A     -0.835568    23A     -0.760091    24A     -0.725282
      25A     -0.676605    26A     -0.669475    27A     -0.648498
      28A     -0.638768    29A     -0.631806    30A     -0.606692
      31A     -0.589464    32A     -0.559416    33A     -0.547619
      34A     -0.530682    35A     -0.525725    36A     -0.521985
      37A     -0.513839    38A     -0.503036    39A     -0.485349
      40A     -0.461572    41A     -0.433185    42A     -0.408178
      43A     -0.366880

  @DF-RHF Final Energy:  -819.48938584808218

   => Energetics <=

    Nuclear Repulsion Energy =            609.7476700870339528
    One-Electron Energy =               -2335.5772267395568633
    Two-Electron Energy =                 906.3401708044408451
    Total Energy =                       -819.4893858480821791
  Basis Set: (AUG-CC-PVTZ AUX)
    Blend: AUG-CC-PVTZ-RI
    Molecular point group: c1

    Geometry (in Angstrom), charge = 0, multiplicity = 1:

       Center              X                  Y                   Z               Mass
    ------------   -----------------  -----------------  -----------------  -----------------
         S            1.542768291850    -0.321770776415    -0.721875554258    31.972071174400
         O           -1.541432708150    -0.510015776415     1.085543445742    15.994914619570
         O            0.776513291850     1.678340223585     0.839531445742    15.994914619570
         C           -0.903711708150     0.951320223585    -0.718737554258    12.000000000000
         C           -3.246347708150    -0.122188776415    -0.569774554258    12.000000000000
         C           -1.915575108150     0.036121023585     0.021248745742    12.000000000000
         C            0.463205291850     0.926168223585    -0.072057554258    12.000000000000
         C           -4.179369708150    -0.962176776415     0.290636445742    12.000000000000
         C            2.933824291850    -0.101338776415     0.425844445742    12.000000000000
         C            4.038170291850    -1.097470776415     0.096698445742    12.000000000000
         H           -0.864369708150     0.653322223585    -1.773528554258     1.007825032230
         H           -1.280423708150     1.980257223585    -0.674079554258     1.007825032230
         H           -3.660637708150     0.879003223585    -0.748586554258     1.007825032230
         H           -3.117506708150    -0.567929776415    -1.565522554258     1.007825032230
         H           -5.157253708150    -1.058070776415    -0.188017554258     1.007825032230
         H           -3.766334708150    -1.960483776415     0.445660445742     1.007825032230
         H           -4.315410708150    -0.504915776415     1.272678445742     1.007825032230
         H            3.286309291850     0.928595223585     0.342111445742     1.007825032230
         H            2.556714291850    -0.242280776415     1.440928445742     1.007825032230
         H            3.684522291850    -2.127356776415     0.188142445742     1.007825032230
         H            4.416138291850    -0.952317776415    -0.918425554258     1.007825032230
         H            4.871417291850    -0.961822776415     0.791639445742     1.007825032230

  Basis Set: AUG-CC-PVTZ
    Blend: AUG-CC-PVTZ
  Basis Set: (AUG-CC-PVTZ AUX)
    Blend: AUG-CC-PVTZ-JKFIT
	 Reference Energy          =    -819.4893858480821791 [Eh]
	 Singles Energy            =      -0.0000000000000000 [Eh]
	 Same-Spin Energy          =      -0.4854853481849083 [Eh]
	 Opposite-Spin Energy      =      -1.5732762951148225 [Eh]
	 Correlation Energy        =      -2.0587616432997309 [Eh]
	 Total Energy              =    -821.5481474913818829 [Eh]

	 ================> DF-SCS-MP2 Energies <==================
	-----------------------------------------------------------
	 SCS Same-Spin Scale       =       0.3333333333333333 [-]
	 SCS Opposite-Spin Scale   =       1.2000000000000000 [-]
	 SCS Same-Spin Energy      =      -0.1618284493949694 [Eh]
	 SCS Opposite-Spin Energy  =      -1.8879315541377868 [Eh]
	 SCS Correlation Energy    =      -2.0497600035327563 [Eh]
	 SCS Total Energy          =    -821.5391458516149896 [Eh]
	-----------------------------------------------------------

  Dipole Moment: [D]
     X:    -0.9954      Y:    -0.2562      Z:    -2.7603     Total:     2.9454

*** Psi4 exiting successfully. Buy a developer a beer!
