                               Psi4 1.4a3.dev225

  ==> Input File <==

--------------------------------------------------------------------------
#psi4
#
memory 32 gb

molecule  {
0 1
  S        1.5586770    -0.2994370    -0.7152220
  O       -1.5255240    -0.4876820     1.0921970
  O        0.7924220     1.7006740     0.8461850
  C       -0.8878030     0.9736540    -0.7120840
  C       -3.2304390    -0.0998550    -0.5631210
  C       -1.8542380     0.0638590     0.0480780
  C        0.5095511     0.9133178    -0.0837249
  C       -4.1634610    -0.9398430     0.2972900
  C        2.9497330    -0.0790050     0.4324980
  C        4.0540790    -1.0751370     0.1033520
  H       -0.8484610     0.6756560    -1.7668750
  H       -1.2645150     2.0025910    -0.6674260
  H       -3.6447290     0.9013370    -0.7419330
  H       -3.1015980    -0.5455960    -1.5588690
  H       -5.1413450    -1.0357370    -0.1813640
  H       -3.7504260    -1.9381500     0.4523140
  H       -4.2995020    -0.4825820     1.2793320
  H        3.3022180     0.9509290     0.3487650
  H        2.5726230    -0.2199470     1.4475820
  H        3.7004310    -2.1050230     0.1947960
  H        4.4320470    -0.9299840    -0.9117720
  H        4.8873260    -0.9394890     0.7982930
units angstrom
no_reorient  #important for SAPT in psi4, default
symmetry c1  #important for SAPT in psi4, default
}

set PROPERTIES_ORIGIN ["COM"]
properties('MP2/aug-cc-pvtz', properties = ['dipole'])
--------------------------------------------------------------------------

    Molecular point group: c1
  Charge       = 0
  Multiplicity = 1
  Basis Set: AUG-CC-PVTZ
    Blend: AUG-CC-PVTZ
  Basis Set: (AUG-CC-PVTZ AUX)
    Blend: AUG-CC-PVTZ-JKFIT

    Orbital Energies [Eh]
    ---------------------

    Doubly Occupied:

       1A    -91.974927     2A    -20.557314     3A    -20.548031
       4A    -11.364628     5A    -11.347725     6A    -11.265422
       7A    -11.264831     8A    -11.251095     9A    -11.232594
      10A    -11.223601    11A     -8.977476    12A     -6.658768
      13A     -6.657468    14A     -6.656883    15A     -1.391301
      16A     -1.366808    17A     -1.097905    18A     -1.077036
      19A     -1.040639    20A     -0.978690    21A     -0.895782
      22A     -0.841052    23A     -0.758106    24A     -0.724265
      25A     -0.675936    26A     -0.666002    27A     -0.644658
      28A     -0.635752    29A     -0.632165    30A     -0.606996
      31A     -0.590452    32A     -0.558591    33A     -0.543294
      34A     -0.529451    35A     -0.526900    36A     -0.521685
      37A     -0.511905    38A     -0.499731    39A     -0.492425
      40A     -0.464986    41A     -0.431715    42A     -0.408913
      43A     -0.372835

  @DF-RHF Final Energy:  -819.49028514388431

   => Energetics <=

    Nuclear Repulsion Energy =            610.4382840682510505
    One-Electron Energy =               -2336.9236670116852110
    Two-Electron Energy =                 906.9950977995498533
    Total Energy =                       -819.4902851438843072
  Basis Set: (AUG-CC-PVTZ AUX)
    Blend: AUG-CC-PVTZ-RI
    Molecular point group: c1

    Geometry (in Angstrom), charge = 0, multiplicity = 1:

       Center              X                  Y                   Z               Mass
    ------------   -----------------  -----------------  -----------------  -----------------
         S            1.537080363043    -0.319538055087    -0.722014615760    31.972071174400
         O           -1.547120636957    -0.507783055087     1.085404384240    15.994914619570
         O            0.770825363043     1.680572944913     0.839392384240    15.994914619570
         C           -0.909399636957     0.953552944913    -0.718876615760    12.000000000000
         C           -3.252035636957    -0.119956055087    -0.569913615760    12.000000000000
         C           -1.875834636957     0.043757944913     0.041285384240    12.000000000000
         C            0.487954463043     0.893216744913    -0.090517515760    12.000000000000
         C           -4.185057636957    -0.959944055087     0.290497384240    12.000000000000
         C            2.928136363043    -0.099106055087     0.425705384240    12.000000000000
         C            4.032482363043    -1.095238055087     0.096559384240    12.000000000000
         H           -0.870057636957     0.655554944913    -1.773667615760     1.007825032230
         H           -1.286111636957     1.982489944913    -0.674218615760     1.007825032230
         H           -3.666325636957     0.881235944913    -0.748725615760     1.007825032230
         H           -3.123194636957    -0.565697055087    -1.565661615760     1.007825032230
         H           -5.162941636957    -1.055838055087    -0.188156615760     1.007825032230
         H           -3.772022636957    -1.958251055087     0.445521384240     1.007825032230
         H           -4.321098636957    -0.502683055087     1.272539384240     1.007825032230
         H            3.280621363043     0.930827944913     0.341972384240     1.007825032230
         H            2.551026363043    -0.240048055087     1.440789384240     1.007825032230
         H            3.678834363043    -2.125124055087     0.188003384240     1.007825032230
         H            4.410450363043    -0.950085055087    -0.918564615760     1.007825032230
         H            4.865729363043    -0.959590055087     0.791500384240     1.007825032230

  Basis Set: AUG-CC-PVTZ
    Blend: AUG-CC-PVTZ
  Basis Set: (AUG-CC-PVTZ AUX)
    Blend: AUG-CC-PVTZ-JKFIT
	 Reference Energy          =    -819.4902851438843072 [Eh]
	 Singles Energy            =      -0.0000000000000000 [Eh]
	 Same-Spin Energy          =      -0.4854068806620478 [Eh]
	 Opposite-Spin Energy      =      -1.5729643580065233 [Eh]
	 Correlation Energy        =      -2.0583712386685713 [Eh]
	 Total Energy              =    -821.5486563825528492 [Eh]

	 ================> DF-SCS-MP2 Energies <==================
	-----------------------------------------------------------
	 SCS Same-Spin Scale       =       0.3333333333333333 [-]
	 SCS Opposite-Spin Scale   =       1.2000000000000000 [-]
	 SCS Same-Spin Energy      =      -0.1618022935540159 [Eh]
	 SCS Opposite-Spin Energy  =      -1.8875572296078280 [Eh]
	 SCS Correlation Energy    =      -2.0493595231618440 [Eh]
	 SCS Total Energy          =    -821.5396446670461046 [Eh]
	-----------------------------------------------------------

  Dipole Moment: [D]
     X:    -0.4167      Y:    -0.4837      Z:    -2.8272     Total:     2.8984

*** Psi4 exiting successfully. Buy a developer a beer!
