                               Psi4 1.3.2 release

  ==> Input File <==

--------------------------------------------------------------------------
#psi4
#
memory 32 gb

molecule  {
0 1
  S        1.8142300     0.7226310    -0.3411240
  O       -1.8432130    -0.9348080    -0.8000930
  O        0.4941690    -1.0618130     1.1146640
  C       -0.8273310     0.8335030     0.4756360
  C       -3.3832440     0.5955310     0.2374230
  C       -2.0152480     0.0418836    -0.1011645
  C        0.4326040    -0.0039200     0.5084100
  C       -4.5027408    -0.2878099    -0.2895279
  C        3.0576300    -0.5565920    -0.0082180
  C        4.4432860    -0.0468870    -0.3740170
  H       -0.6942050     1.7459430    -0.1201930
  H       -1.0474180     1.1506300     1.5016930
  H       -3.4528060     0.7235440     1.3254800
  H       -3.4442640     1.6111560    -0.1826160
  H       -5.4818800     0.1657790    -0.0500790
  H       -4.4326880    -0.4035450    -1.3660960
  H       -4.4661600    -1.2732880     0.1669010
  H        2.9964590    -0.8086780     1.0500210
  H        2.8025100    -1.4530070    -0.5759610
  H        4.5013120     0.2245390    -1.4310650
  H        4.7086350     0.8297180     0.2214350
  H        5.1861620    -0.8265290    -0.1846820
units angstrom
no_reorient  #important for SAPT in psi4, default
symmetry c1  #important for SAPT in psi4, default
}

set PROPERTIES_ORIGIN ["COM"]
properties('MP2/aug-cc-pvtz', properties = ['dipole'])
--------------------------------------------------------------------------

    Molecular point group: c1
  Charge       = 0
  Multiplicity = 1
  Basis Set: AUG-CC-PVTZ
    Blend: AUG-CC-PVTZ
  Basis Set: (AUG-CC-PVTZ AUX)
    Blend: AUG-CC-PVTZ-JKFIT

    Orbital Energies [Eh]
    ---------------------

    Doubly Occupied:

       1A    -91.971647     2A    -20.556591     3A    -20.554588
       4A    -11.366738     5A    -11.345268     6A    -11.265767
       7A    -11.262292     8A    -11.249707     9A    -11.231397
      10A    -11.222398    11A     -8.973265    12A     -6.654418
      13A     -6.653289    14A     -6.652676    15A     -1.400870
      16A     -1.387731    17A     -1.092994    18A     -1.076448
      19A     -1.041798    20A     -0.971158    21A     -0.895557
      22A     -0.837114    23A     -0.759066    24A     -0.726929
      25A     -0.678814    26A     -0.667809    27A     -0.647773
      28A     -0.638323    29A     -0.634097    30A     -0.610909
      31A     -0.594615    32A     -0.559517    33A     -0.545158
      34A     -0.531163    35A     -0.527652    36A     -0.522095
      37A     -0.513557    38A     -0.505198    39A     -0.492434
      40A     -0.465035    41A     -0.428566    42A     -0.405038
      43A     -0.370740

  @DF-RHF Final Energy:  -819.49557240349020

   => Energetics <=

    Nuclear Repulsion Energy =            603.5722939775766918
    One-Electron Energy =               -2323.1593358861082379
    Two-Electron Energy =                 900.0914695050413457
    Total Energy =                       -819.4955724034902005
  Basis Set: (AUG-CC-PVTZ AUX)
    Blend: AUG-CC-PVTZ-RI
    Molecular point group: c1

    Geometry (in Angstrom), charge = 0, multiplicity = 1:

       Center              X                  Y                   Z               Mass
    ------------   -----------------  -----------------  -----------------  -----------------
         S            1.813980849932     0.724029332345    -0.340281851818    31.972071174400
         O           -1.843462150068    -0.933409667655    -0.799250851818    15.994914619570
         O            0.493919849932    -1.060414667655     1.115506148182    15.994914619570
         C           -0.827580150068     0.834901332345     0.476478148182    12.000000000000
         C           -3.383493150068     0.596929332345     0.238265148182    12.000000000000
         C           -2.015497150068     0.043281932345    -0.100322351818    12.000000000000
         C            0.432354849932    -0.002521667655     0.509252148182    12.000000000000
         C           -4.502989950068    -0.286411567655    -0.288685751818    12.000000000000
         C            3.057380849932    -0.555193667655    -0.007375851818    12.000000000000
         C            4.443036849932    -0.045488667655    -0.373174851818    12.000000000000
         H           -0.694454150068     1.747341332345    -0.119350851818     1.007825032230
         H           -1.047667150068     1.152028332345     1.502535148182     1.007825032230
         H           -3.453055150068     0.724942332345     1.326322148182     1.007825032230
         H           -3.444513150068     1.612554332345    -0.181773851818     1.007825032230
         H           -5.482129150068     0.167177332345    -0.049236851818     1.007825032230
         H           -4.432937150068    -0.402146667655    -1.365253851818     1.007825032230
         H           -4.466409150068    -1.271889667655     0.167743148182     1.007825032230
         H            2.996209849932    -0.807279667655     1.050863148182     1.007825032230
         H            2.802260849932    -1.451608667655    -0.575118851818     1.007825032230
         H            4.501062849932     0.225937332345    -1.430222851818     1.007825032230
         H            4.708385849932     0.831116332345     0.222277148182     1.007825032230
         H            5.185912849932    -0.825130667655    -0.183839851818     1.007825032230

  Basis Set: AUG-CC-PVTZ
    Blend: AUG-CC-PVTZ
  Basis Set: (AUG-CC-PVTZ AUX)
    Blend: AUG-CC-PVTZ-JKFIT
	 Reference Energy          =    -819.4955724034902005 [Eh]
	 Singles Energy            =      -0.0000000000000000 [Eh]
	 Same-Spin Energy          =      -0.4839130472637913 [Eh]
	 Opposite-Spin Energy      =      -1.5703840975915244 [Eh]
	 Correlation Energy        =      -2.0542971448553158 [Eh]
	 Total Energy              =    -821.5498695483455549 [Eh]

	 ================> DF-SCS-MP2 Energies <==================
	-----------------------------------------------------------
	 SCS Same-Spin Scale       =       0.3333333333333333 [-]
	 SCS Opposite-Spin Scale   =       1.2000000000000000 [-]
	 SCS Same-Spin Energy      =      -0.1613043490879304 [Eh]
	 SCS Opposite-Spin Energy  =      -1.8844609171098292 [Eh]
	 SCS Correlation Energy    =      -2.0457652661977597 [Eh]
	 SCS Total Energy          =    -821.5413376696880050 [Eh]
	-----------------------------------------------------------

  Dipole Moment: [D]
     X:    -0.0506      Y:     2.7961      Z:     0.6527     Total:     2.8717

*** Psi4 exiting successfully. Buy a developer a beer!
