                               Psi4 1.3.2 release

  ==> Input File <==

--------------------------------------------------------------------------
#psi4
#
memory 32 gb

molecule  {
0 1
  S        1.8142300     0.7226310    -0.3411240
  O       -1.8432130    -0.9348080    -0.8000930
  O        0.4941690    -1.0618130     1.1146640
  C       -0.8273310     0.8335030     0.4756360
  C       -3.3832440     0.5955310     0.2374230
  C       -2.0096370     0.0521440    -0.0950140
  C        0.2771214    -0.0856831     0.6040131
  C       -4.5116740    -0.2794210    -0.2844450
  C        3.0576300    -0.5565920    -0.0082180
  C        4.4432860    -0.0468870    -0.3740170
  H       -0.6942050     1.7459430    -0.1201930
  H       -1.0474180     1.1506300     1.5016930
  H       -3.4528060     0.7235440     1.3254800
  H       -3.4442640     1.6111560    -0.1826160
  H       -5.4818800     0.1657790    -0.0500790
  H       -4.4326880    -0.4035450    -1.3660960
  H       -4.4661600    -1.2732880     0.1669010
  H        2.9964590    -0.8086780     1.0500210
  H        2.8025100    -1.4530070    -0.5759610
  H        4.5013120     0.2245390    -1.4310650
  H        4.7086350     0.8297180     0.2214350
  H        5.1861620    -0.8265290    -0.1846820
units angstrom
no_reorient  #important for SAPT in psi4, default
symmetry c1  #important for SAPT in psi4, default
}

set PROPERTIES_ORIGIN ["COM"]
properties('MP2/aug-cc-pvtz', properties = ['dipole'])
--------------------------------------------------------------------------

    Molecular point group: c1
  Charge       = 0
  Multiplicity = 1
  Basis Set: AUG-CC-PVTZ
    Blend: AUG-CC-PVTZ
  Basis Set: (AUG-CC-PVTZ AUX)
    Blend: AUG-CC-PVTZ-JKFIT

    Orbital Energies [Eh]
    ---------------------

    Doubly Occupied:

       1A    -91.936508     2A    -20.586837     3A    -20.568518
       4A    -11.377361     5A    -11.357779     6A    -11.279051
       7A    -11.257675     8A    -11.247219     9A    -11.228431
      10A    -11.219005    11A     -8.937284    12A     -6.618250
      13A     -6.617387    14A     -6.616684    15A     -1.485140
      16A     -1.401869    17A     -1.106254    18A     -1.064621
      19A     -1.054172    20A     -0.937404    21A     -0.903980
      22A     -0.818458    23A     -0.770332    24A     -0.748878
      25A     -0.699275    26A     -0.691379    27A     -0.679335
      28A     -0.645308    29A     -0.630331    30A     -0.620027
      31A     -0.605139    32A     -0.576774    33A     -0.563804
      34A     -0.543950    35A     -0.528226    36A     -0.524212
      37A     -0.518903    38A     -0.502407    39A     -0.499563
      40A     -0.453863    41A     -0.433536    42A     -0.368950
      43A     -0.344095

  @DF-RHF Final Energy:  -819.46972222862701

   => Energetics <=

    Nuclear Repulsion Energy =            603.4324575041273420
    One-Electron Energy =               -2322.6680108608716182
    Two-Electron Energy =                 899.7658311281172701
    Total Energy =                       -819.4697222286270062
  Basis Set: (AUG-CC-PVTZ AUX)
    Blend: AUG-CC-PVTZ-RI
    Molecular point group: c1

    Geometry (in Angstrom), charge = 0, multiplicity = 1:

       Center              X                  Y                   Z               Mass
    ------------   -----------------  -----------------  -----------------  -----------------
         S            1.825887057582     0.728761217077    -0.348291795810    31.972071174400
         O           -1.831555942418    -0.928677782923    -0.807260795810    15.994914619570
         O            0.505826057582    -1.055682782923     1.107496204190    15.994914619570
         C           -0.815673942418     0.839633217077     0.468468204190    12.000000000000
         C           -3.371586942418     0.601661217077     0.230255204190    12.000000000000
         C           -1.997979942418     0.058274217077    -0.102181795810    12.000000000000
         C            0.288778457582    -0.079552882923     0.596845304190    12.000000000000
         C           -4.500016942418    -0.273290782923    -0.291612795810    12.000000000000
         C            3.069287057582    -0.550461782923    -0.015385795810    12.000000000000
         C            4.454943057582    -0.040756782923    -0.381184795810    12.000000000000
         H           -0.682547942418     1.752073217077    -0.127360795810     1.007825032230
         H           -1.035760942418     1.156760217077     1.494525204190     1.007825032230
         H           -3.441148942418     0.729674217077     1.318312204190     1.007825032230
         H           -3.432606942418     1.617286217077    -0.189783795810     1.007825032230
         H           -5.470222942418     0.171909217077    -0.057246795810     1.007825032230
         H           -4.421030942418    -0.397414782923    -1.373263795810     1.007825032230
         H           -4.454502942418    -1.267157782923     0.159733204190     1.007825032230
         H            3.008116057582    -0.802547782923     1.042853204190     1.007825032230
         H            2.814167057582    -1.446876782923    -0.583128795810     1.007825032230
         H            4.512969057582     0.230669217077    -1.438232795810     1.007825032230
         H            4.720292057582     0.835848217077     0.214267204190     1.007825032230
         H            5.197819057582    -0.820398782923    -0.191849795810     1.007825032230

  Basis Set: AUG-CC-PVTZ
    Blend: AUG-CC-PVTZ
  Basis Set: (AUG-CC-PVTZ AUX)
    Blend: AUG-CC-PVTZ-JKFIT
	 Reference Energy          =    -819.4697222286270062 [Eh]
	 Singles Energy            =      -0.0000000000000000 [Eh]
	 Same-Spin Energy          =      -0.4831957613912180 [Eh]
	 Opposite-Spin Energy      =      -1.5683499991372298 [Eh]
	 Correlation Energy        =      -2.0515457605284477 [Eh]
	 Total Energy              =    -821.5212679891554899 [Eh]

	 ================> DF-SCS-MP2 Energies <==================
	-----------------------------------------------------------
	 SCS Same-Spin Scale       =       0.3333333333333333 [-]
	 SCS Opposite-Spin Scale   =       1.2000000000000000 [-]
	 SCS Same-Spin Energy      =      -0.1610652537970726 [Eh]
	 SCS Opposite-Spin Energy  =      -1.8820199989646758 [Eh]
	 SCS Correlation Energy    =      -2.0430852527617485 [Eh]
	 SCS Total Energy          =    -821.5128074813887906 [Eh]
	-----------------------------------------------------------

  Dipole Moment: [D]
     X:    -1.9809      Y:     2.1658      Z:     1.5445     Total:     3.3166

*** Psi4 exiting successfully. Buy a developer a beer!
