                               Psi4 1.3.2 release

  ==> Input File <==

--------------------------------------------------------------------------
#psi4
#
memory 32 gb

molecule  {
0 1
  S        1.8371988     0.7419132    -0.3513119
  O       -1.8432130    -0.9348080    -0.8000930
  O        0.4941690    -1.0618130     1.1146640
  C       -0.8273310     0.8335030     0.4756360
  C       -3.3832440     0.5955310     0.2374230
  C       -2.0096370     0.0521440    -0.0950140
  C        0.4326040    -0.0039200     0.5084100
  C       -4.5116740    -0.2794210    -0.2844450
  C        3.0576300    -0.5565920    -0.0082180
  C        4.4325603    -0.0237796    -0.3814849
  H       -0.6942050     1.7459430    -0.1201930
  H       -1.0474180     1.1506300     1.5016930
  H       -3.4528060     0.7235440     1.3254800
  H       -3.4442640     1.6111560    -0.1826160
  H       -5.4818800     0.1657790    -0.0500790
  H       -4.4326880    -0.4035450    -1.3660960
  H       -4.4661600    -1.2732880     0.1669010
  H        2.9964590    -0.8086780     1.0500210
  H        2.8025100    -1.4530070    -0.5759610
  H        4.5013120     0.2245390    -1.4310650
  H        4.7086350     0.8297180     0.2214350
  H        5.1861620    -0.8265290    -0.1846820
units angstrom
no_reorient  #important for SAPT in psi4, default
symmetry c1  #important for SAPT in psi4, default
}

set PROPERTIES_ORIGIN ["COM"]
properties('MP2/aug-cc-pvtz', properties = ['dipole'])
--------------------------------------------------------------------------

    Molecular point group: c1
  Charge       = 0
  Multiplicity = 1
  Basis Set: AUG-CC-PVTZ
    Blend: AUG-CC-PVTZ
  Basis Set: (AUG-CC-PVTZ AUX)
    Blend: AUG-CC-PVTZ-JKFIT

    Orbital Energies [Eh]
    ---------------------

    Doubly Occupied:

       1A    -91.971823     2A    -20.558333     3A    -20.555970
       4A    -11.370201     5A    -11.346522     6A    -11.267396
       7A    -11.262204     8A    -11.250201     9A    -11.230846
      10A    -11.222552    11A     -8.972873    12A     -6.653984
      13A     -6.652848    14A     -6.652240    15A     -1.398488
      16A     -1.384763    17A     -1.092114    18A     -1.077317
      19A     -1.042499    20A     -0.967341    21A     -0.896249
      22A     -0.835742    23A     -0.761268    24A     -0.727864
      25A     -0.678255    26A     -0.668085    27A     -0.648406
      28A     -0.638400    29A     -0.634326    30A     -0.609021
      31A     -0.593676    32A     -0.556617    33A     -0.545831
      34A     -0.533974    35A     -0.526875    36A     -0.521409
      37A     -0.513005    38A     -0.506218    39A     -0.489033
      40A     -0.463458    41A     -0.430359    42A     -0.404922
      43A     -0.370397

  @DF-RHF Final Energy:  -819.49268507158092

   => Energetics <=

    Nuclear Repulsion Energy =            602.4599318893579039
    One-Electron Energy =               -2320.9374260585909724
    Two-Electron Energy =                 898.9848090976521462
    Total Energy =                       -819.4926850715809223
  Basis Set: (AUG-CC-PVTZ AUX)
    Blend: AUG-CC-PVTZ-RI
    Molecular point group: c1

    Geometry (in Angstrom), charge = 0, multiplicity = 1:

       Center              X                  Y                   Z               Mass
    ------------   -----------------  -----------------  -----------------  -----------------
         S            1.833414724577     0.736329140797    -0.348716973958    31.972071174400
         O           -1.846997075423    -0.940392059203    -0.797498073958    15.994914619570
         O            0.490384924577    -1.067397059203     1.117258926042    15.994914619570
         C           -0.831115075423     0.827918940797     0.478230926042    12.000000000000
         C           -3.387028075423     0.589946940797     0.240017926042    12.000000000000
         C           -2.013421075423     0.046559940797    -0.092419073958    12.000000000000
         C            0.428819924577    -0.009504059203     0.511004926042    12.000000000000
         C           -4.515458075423    -0.285005059203    -0.281850073958    12.000000000000
         C            3.053845924577    -0.562176059203    -0.005623073958    12.000000000000
         C            4.428776224577    -0.029363659203    -0.378889973958    12.000000000000
         H           -0.697989075423     1.740358940797    -0.117598073958     1.007825032230
         H           -1.051202075423     1.145045940797     1.504287926042     1.007825032230
         H           -3.456590075423     0.717959940797     1.328074926042     1.007825032230
         H           -3.448048075423     1.605571940797    -0.180021073958     1.007825032230
         H           -5.485664075423     0.160194940797    -0.047484073958     1.007825032230
         H           -4.436472075423    -0.409129059203    -1.363501073958     1.007825032230
         H           -4.469944075423    -1.278872059203     0.169495926042     1.007825032230
         H            2.992674924577    -0.814262059203     1.052615926042     1.007825032230
         H            2.798725924577    -1.458591059203    -0.573366073958     1.007825032230
         H            4.497527924577     0.218954940797    -1.428470073958     1.007825032230
         H            4.704850924577     0.824133940797     0.224029926042     1.007825032230
         H            5.182377924577    -0.832113059203    -0.182087073958     1.007825032230

  Basis Set: AUG-CC-PVTZ
    Blend: AUG-CC-PVTZ
  Basis Set: (AUG-CC-PVTZ AUX)
    Blend: AUG-CC-PVTZ-JKFIT
	 Reference Energy          =    -819.4926850715809223 [Eh]
	 Singles Energy            =      -0.0000000000000000 [Eh]
	 Same-Spin Energy          =      -0.4842471634714012 [Eh]
	 Opposite-Spin Energy      =      -1.5715653319560317 [Eh]
	 Correlation Energy        =      -2.0558124954274328 [Eh]
	 Total Energy              =    -821.5484975670083259 [Eh]

	 ================> DF-SCS-MP2 Energies <==================
	-----------------------------------------------------------
	 SCS Same-Spin Scale       =       0.3333333333333333 [-]
	 SCS Opposite-Spin Scale   =       1.2000000000000000 [-]
	 SCS Same-Spin Energy      =      -0.1614157211571337 [Eh]
	 SCS Opposite-Spin Energy  =      -1.8858783983472378 [Eh]
	 SCS Correlation Energy    =      -2.0472941195043717 [Eh]
	 SCS Total Energy          =    -821.5399791910853082 [Eh]
	-----------------------------------------------------------

  Dipole Moment: [D]
     X:    -0.1156      Y:     2.8007      Z:     0.7312     Total:     2.8969

*** Psi4 exiting successfully. Buy a developer a beer!
