                               Psi4 1.3.2 release

  ==> Input File <==

--------------------------------------------------------------------------
#psi4
#
memory 32 gb

molecule  {
0 1
  S        1.8142300     0.7226310    -0.3411240
  O       -1.8432130    -0.9348080    -0.8000930
  O        0.4941690    -1.0618130     1.1146640
  C       -0.8273310     0.8335030     0.4756360
  C       -3.3832440     0.5955310     0.2374230
  C       -2.0096370     0.0521440    -0.0950140
  C        0.4426896    -0.1772245     0.6077268
  C       -4.5116740    -0.2794210    -0.2844450
  C        3.0576300    -0.5565920    -0.0082180
  C        4.4432860    -0.0468870    -0.3740170
  H       -0.6942050     1.7459430    -0.1201930
  H       -1.0474180     1.1506300     1.5016930
  H       -3.4528060     0.7235440     1.3254800
  H       -3.4442640     1.6111560    -0.1826160
  H       -5.4818800     0.1657790    -0.0500790
  H       -4.4326880    -0.4035450    -1.3660960
  H       -4.4661600    -1.2732880     0.1669010
  H        2.9964590    -0.8086780     1.0500210
  H        2.8025100    -1.4530070    -0.5759610
  H        4.5013120     0.2245390    -1.4310650
  H        4.7086350     0.8297180     0.2214350
  H        5.1861620    -0.8265290    -0.1846820
units angstrom
no_reorient  #important for SAPT in psi4, default
symmetry c1  #important for SAPT in psi4, default
}

set PROPERTIES_ORIGIN ["COM"]
properties('MP2/aug-cc-pvtz', properties = ['dipole'])
--------------------------------------------------------------------------

    Molecular point group: c1
  Charge       = 0
  Multiplicity = 1
  Basis Set: AUG-CC-PVTZ
    Blend: AUG-CC-PVTZ
  Basis Set: (AUG-CC-PVTZ AUX)
    Blend: AUG-CC-PVTZ-JKFIT

    Orbital Energies [Eh]
    ---------------------

    Doubly Occupied:

       1A    -91.945775     2A    -20.589378     3A    -20.555956
       4A    -11.358588     5A    -11.343648     6A    -11.262697
       7A    -11.253422     8A    -11.248298     9A    -11.223157
      10A    -11.221905    11A     -8.947385    12A     -6.628376
      13A     -6.627278    14A     -6.626538    15A     -1.567577
      16A     -1.389305    17A     -1.077813    18A     -1.069430
      19A     -1.026309    20A     -0.950024    21A     -0.889562
      22A     -0.822623    23A     -0.764750    24A     -0.744421
      25A     -0.714150    26A     -0.689144    27A     -0.670385
      28A     -0.647898    29A     -0.644860    30A     -0.622247
      31A     -0.607982    32A     -0.588887    33A     -0.564963
      34A     -0.537775    35A     -0.528074    36A     -0.520676
      37A     -0.513146    38A     -0.508620    39A     -0.491060
      40A     -0.452307    41A     -0.426715    42A     -0.365036
      43A     -0.356120

  @DF-RHF Final Energy:  -819.42609763665939

   => Energetics <=

    Nuclear Repulsion Energy =            604.5173809398510230
    One-Electron Energy =               -2324.7184375306915172
    Two-Electron Energy =                 900.7749589541809883
    Total Energy =                       -819.4260976366593923
  Basis Set: (AUG-CC-PVTZ AUX)
    Blend: AUG-CC-PVTZ-RI
    Molecular point group: c1

    Geometry (in Angstrom), charge = 0, multiplicity = 1:

       Center              X                  Y                   Z               Mass
    ------------   -----------------  -----------------  -----------------  -----------------
         S            1.813473771778     0.735624428498    -0.348570226206    31.972071174400
         O           -1.843969228222    -0.921814571502    -0.807539226206    15.994914619570
         O            0.493412771778    -1.048819571502     1.107217773794    15.994914619570
         C           -0.828087228222     0.846496428498     0.468189773794    12.000000000000
         C           -3.384000228222     0.608524428498     0.229976773794    12.000000000000
         C           -2.010393228222     0.065137428498    -0.102460226206    12.000000000000
         C            0.441933371778    -0.164231071502     0.600280573794    12.000000000000
         C           -4.512430228222    -0.266427571502    -0.291891226206    12.000000000000
         C            3.056873771778    -0.543598571502    -0.015664226206    12.000000000000
         C            4.442529771778    -0.033893571502    -0.381463226206    12.000000000000
         H           -0.694961228222     1.758936428498    -0.127639226206     1.007825032230
         H           -1.048174228222     1.163623428498     1.494246773794     1.007825032230
         H           -3.453562228222     0.736537428498     1.318033773794     1.007825032230
         H           -3.445020228222     1.624149428498    -0.190062226206     1.007825032230
         H           -5.482636228222     0.178772428498    -0.057525226206     1.007825032230
         H           -4.433444228222    -0.390551571502    -1.373542226206     1.007825032230
         H           -4.466916228222    -1.260294571502     0.159454773794     1.007825032230
         H            2.995702771778    -0.795684571502     1.042574773794     1.007825032230
         H            2.801753771778    -1.440013571502    -0.583407226206     1.007825032230
         H            4.500555771778     0.237532428498    -1.438511226206     1.007825032230
         H            4.707878771778     0.842711428498     0.213988773794     1.007825032230
         H            5.185405771778    -0.813535571502    -0.192128226206     1.007825032230

  Basis Set: AUG-CC-PVTZ
    Blend: AUG-CC-PVTZ
  Basis Set: (AUG-CC-PVTZ AUX)
    Blend: AUG-CC-PVTZ-JKFIT
	 Reference Energy          =    -819.4260976366593923 [Eh]
	 Singles Energy            =      -0.0000000000000000 [Eh]
	 Same-Spin Energy          =      -0.4795552549264986 [Eh]
	 Opposite-Spin Energy      =      -1.5614797600822556 [Eh]
	 Correlation Energy        =      -2.0410350150087542 [Eh]
	 Total Energy              =    -821.4671326516681802 [Eh]

	 ================> DF-SCS-MP2 Energies <==================
	-----------------------------------------------------------
	 SCS Same-Spin Scale       =       0.3333333333333333 [-]
	 SCS Opposite-Spin Scale   =       1.2000000000000000 [-]
	 SCS Same-Spin Energy      =      -0.1598517516421662 [Eh]
	 SCS Opposite-Spin Energy  =      -1.8737757120987066 [Eh]
	 SCS Correlation Energy    =      -2.0336274637408729 [Eh]
	 SCS Total Energy          =    -821.4597251004003056 [Eh]
	-----------------------------------------------------------

  Dipole Moment: [D]
     X:    -0.7206      Y:     1.8511      Z:     1.5201     Total:     2.5013

*** Psi4 exiting successfully. Buy a developer a beer!
