                               Psi4 1.4a3.dev225

  ==> Input File <==

--------------------------------------------------------------------------
#psi4
#
memory 32 gb

molecule  {
0 1
  S        1.5586770    -0.2994370    -0.7152220
  O       -1.5255240    -0.4876820     1.0921970
  O        0.7924220     1.7006740     0.8461850
  C       -0.8878030     0.9736540    -0.7120840
  C       -3.2304390    -0.0998550    -0.5631210
  C       -1.8488745     0.0548597     0.0651146
  C        0.4791140     0.9485020    -0.0654040
  C       -4.1634610    -0.9398430     0.2972900
  C        2.9497330    -0.0790050     0.4324980
  C        4.0540790    -1.0751370     0.1033520
  H       -0.8484610     0.6756560    -1.7668750
  H       -1.2645150     2.0025910    -0.6674260
  H       -3.6447290     0.9013370    -0.7419330
  H       -3.1015980    -0.5455960    -1.5588690
  H       -5.1413450    -1.0357370    -0.1813640
  H       -3.7504260    -1.9381500     0.4523140
  H       -4.2995020    -0.4825820     1.2793320
  H        3.3022180     0.9509290     0.3487650
  H        2.5726230    -0.2199470     1.4475820
  H        3.7004310    -2.1050230     0.1947960
  H        4.4320470    -0.9299840    -0.9117720
  H        4.8873260    -0.9394890     0.7982930
units angstrom
no_reorient  #important for SAPT in psi4, default
symmetry c1  #important for SAPT in psi4, default
}

set PROPERTIES_ORIGIN ["COM"]
properties('MP2/aug-cc-pvtz', properties = ['dipole'])
--------------------------------------------------------------------------

    Molecular point group: c1
  Charge       = 0
  Multiplicity = 1
  Basis Set: AUG-CC-PVTZ
    Blend: AUG-CC-PVTZ
  Basis Set: (AUG-CC-PVTZ AUX)
    Blend: AUG-CC-PVTZ-JKFIT

    Orbital Energies [Eh]
    ---------------------

    Doubly Occupied:

       1A    -91.968206     2A    -20.561047     3A    -20.554590
       4A    -11.364715     5A    -11.348514     6A    -11.265159
       7A    -11.261488     8A    -11.251562     9A    -11.230014
      10A    -11.224095    11A     -8.970003    12A     -6.651196
      13A     -6.650053    14A     -6.649417    15A     -1.407525
      16A     -1.388522    17A     -1.092132    18A     -1.075248
      19A     -1.042051    20A     -0.968971    21A     -0.895469
      22A     -0.835528    23A     -0.759981    24A     -0.726971
      25A     -0.680454    26A     -0.669288    27A     -0.649663
      28A     -0.636534    29A     -0.632429    30A     -0.614530
      31A     -0.590404    32A     -0.559708    33A     -0.545431
      34A     -0.531816    35A     -0.527710    36A     -0.522826
      37A     -0.514252    38A     -0.504616    39A     -0.498782
      40A     -0.462613    41A     -0.430310    42A     -0.404676
      43A     -0.368056

  @DF-RHF Final Energy:  -819.49733069264130

   => Energetics <=

    Nuclear Repulsion Energy =            610.3965668310122510
    One-Electron Energy =               -2336.8146884907637286
    Two-Electron Energy =                 906.9207909671101788
    Total Energy =                       -819.4973306926412988
  Basis Set: (AUG-CC-PVTZ AUX)
    Blend: AUG-CC-PVTZ-RI
    Molecular point group: c1

    Geometry (in Angstrom), charge = 0, multiplicity = 1:

       Center              X                  Y                   Z               Mass
    ------------   -----------------  -----------------  -----------------  -----------------
         S            1.538960227431    -0.321501237918    -0.724665503749    31.972071174400
         O           -1.545240772569    -0.509746237918     1.082753496251    15.994914619570
         O            0.772705227431     1.678609762082     0.836741496251    15.994914619570
         C           -0.907519772569     0.951589762082    -0.721527503749    12.000000000000
         C           -3.250155772569    -0.121919237918    -0.572564503749    12.000000000000
         C           -1.868591272569     0.032795462082     0.055671096251    12.000000000000
         C            0.459397227431     0.926437762082    -0.074847503749    12.000000000000
         C           -4.183177772569    -0.961907237918     0.287846496251    12.000000000000
         C            2.930016227431    -0.101069237918     0.423054496251    12.000000000000
         C            4.034362227431    -1.097201237918     0.093908496251    12.000000000000
         H           -0.868177772569     0.653591762082    -1.776318503749     1.007825032230
         H           -1.284231772569     1.980526762082    -0.676869503749     1.007825032230
         H           -3.664445772569     0.879272762082    -0.751376503749     1.007825032230
         H           -3.121314772569    -0.567660237918    -1.568312503749     1.007825032230
         H           -5.161061772569    -1.057801237918    -0.190807503749     1.007825032230
         H           -3.770142772569    -1.960214237918     0.442870496251     1.007825032230
         H           -4.319218772569    -0.504646237918     1.269888496251     1.007825032230
         H            3.282501227431     0.928864762082     0.339321496251     1.007825032230
         H            2.552906227431    -0.242011237918     1.438138496251     1.007825032230
         H            3.680714227431    -2.127087237918     0.185352496251     1.007825032230
         H            4.412330227431    -0.952048237918    -0.921215503749     1.007825032230
         H            4.867609227431    -0.961553237918     0.788849496251     1.007825032230

  Basis Set: AUG-CC-PVTZ
    Blend: AUG-CC-PVTZ
  Basis Set: (AUG-CC-PVTZ AUX)
    Blend: AUG-CC-PVTZ-JKFIT
	 Reference Energy          =    -819.4973306926412988 [Eh]
	 Singles Energy            =      -0.0000000000000000 [Eh]
	 Same-Spin Energy          =      -0.4839909328964913 [Eh]
	 Opposite-Spin Energy      =      -1.5701858238922757 [Eh]
	 Correlation Energy        =      -2.0541767567887668 [Eh]
	 Total Energy              =    -821.5515074494301189 [Eh]

	 ================> DF-SCS-MP2 Energies <==================
	-----------------------------------------------------------
	 SCS Same-Spin Scale       =       0.3333333333333333 [-]
	 SCS Opposite-Spin Scale   =       1.2000000000000000 [-]
	 SCS Same-Spin Energy      =      -0.1613303109654971 [Eh]
	 SCS Opposite-Spin Energy  =      -1.8842229886707307 [Eh]
	 SCS Correlation Energy    =      -2.0455532996362278 [Eh]
	 SCS Total Energy          =    -821.5428839922775524 [Eh]
	-----------------------------------------------------------

  Dipole Moment: [D]
     X:    -0.7505      Y:    -0.2497      Z:    -2.6251     Total:     2.7417

*** Psi4 exiting successfully. Buy a developer a beer!
