                               Psi4 1.3.2 release

  ==> Input File <==

--------------------------------------------------------------------------
#psi4
#
memory 32 gb

molecule  {
0 1
  S        1.7961633     0.7463599    -0.3496465
  O       -1.8432130    -0.9348080    -0.8000930
  O        0.4735761    -1.0598660     1.1197783
  C       -0.8273310     0.8335030     0.4756360
  C       -3.3832440     0.5955310     0.2374230
  C       -2.0096370     0.0521440    -0.0950140
  C        0.4326040    -0.0039200     0.5084100
  C       -4.5116740    -0.2794210    -0.2844450
  C        3.0576300    -0.5565920    -0.0082180
  C        4.4432860    -0.0468870    -0.3740170
  H       -0.6942050     1.7459430    -0.1201930
  H       -1.0474180     1.1506300     1.5016930
  H       -3.4528060     0.7235440     1.3254800
  H       -3.4442640     1.6111560    -0.1826160
  H       -5.4818800     0.1657790    -0.0500790
  H       -4.4326880    -0.4035450    -1.3660960
  H       -4.4661600    -1.2732880     0.1669010
  H        2.9964590    -0.8086780     1.0500210
  H        2.8025100    -1.4530070    -0.5759610
  H        4.5013120     0.2245390    -1.4310650
  H        4.7086350     0.8297180     0.2214350
  H        5.1861620    -0.8265290    -0.1846820
units angstrom
no_reorient  #important for SAPT in psi4, default
symmetry c1  #important for SAPT in psi4, default
}

set PROPERTIES_ORIGIN ["COM"]
properties('MP2/aug-cc-pvtz', properties = ['dipole'])
--------------------------------------------------------------------------

    Molecular point group: c1
  Charge       = 0
  Multiplicity = 1
  Basis Set: AUG-CC-PVTZ
    Blend: AUG-CC-PVTZ
  Basis Set: (AUG-CC-PVTZ AUX)
    Blend: AUG-CC-PVTZ-JKFIT

    Orbital Energies [Eh]
    ---------------------

    Doubly Occupied:

       1A    -91.974581     2A    -20.555347     3A    -20.554654
       4A    -11.367230     5A    -11.345117     6A    -11.265965
       7A    -11.264955     8A    -11.249181     9A    -11.231973
      10A    -11.221778    11A     -8.975660    12A     -6.656787
      13A     -6.655603    14A     -6.655037    15A     -1.396999
      16A     -1.383155    17A     -1.091772    18A     -1.075009
      19A     -1.041941    20A     -0.972488    21A     -0.895074
      22A     -0.837714    23A     -0.759821    24A     -0.726431
      25A     -0.677094    26A     -0.666924    27A     -0.647187
      28A     -0.636768    29A     -0.633118    30A     -0.607955
      31A     -0.594146    32A     -0.560739    33A     -0.545532
      34A     -0.532524    35A     -0.527215    36A     -0.520214
      37A     -0.511669    38A     -0.504550    39A     -0.487905
      40A     -0.462537    41A     -0.429473    42A     -0.406529
      43A     -0.373509

  @DF-RHF Final Energy:  -819.49380502629026

   => Energetics <=

    Nuclear Repulsion Energy =            602.8233769312065533
    One-Electron Energy =               -2321.6746487378009078
    Two-Electron Energy =                 899.3574667803042075
    Total Energy =                       -819.4938050262902607
  Basis Set: (AUG-CC-PVTZ AUX)
    Blend: AUG-CC-PVTZ-RI
    Molecular point group: c1

    Geometry (in Angstrom), charge = 0, multiplicity = 1:

       Center              X                  Y                   Z               Mass
    ------------   -----------------  -----------------  -----------------  -----------------
         S            1.801830073571     0.741425467313    -0.348455233670    31.972071174400
         O           -1.837546226429    -0.939742432687    -0.798901733670    15.994914619570
         O            0.479242873571    -1.064800432687     1.120969566330    15.994914619570
         C           -0.821664226429     0.828568567313     0.476827266330    12.000000000000
         C           -3.377577226429     0.590596567313     0.238614266330    12.000000000000
         C           -2.003970226429     0.047209567313    -0.093822733670    12.000000000000
         C            0.438270773571    -0.008854432687     0.509601266330    12.000000000000
         C           -4.506007226429    -0.284355432687    -0.283253733670    12.000000000000
         C            3.063296773571    -0.561526432687    -0.007026733670    12.000000000000
         C            4.448952773571    -0.051821432687    -0.372825733670    12.000000000000
         H           -0.688538226429     1.741008567313    -0.119001733670     1.007825032230
         H           -1.041751226429     1.145695567313     1.502884266330     1.007825032230
         H           -3.447139226429     0.718609567313     1.326671266330     1.007825032230
         H           -3.438597226429     1.606221567313    -0.181424733670     1.007825032230
         H           -5.476213226429     0.160844567313    -0.048887733670     1.007825032230
         H           -4.427021226429    -0.408479432687    -1.364904733670     1.007825032230
         H           -4.460493226429    -1.278222432687     0.168092266330     1.007825032230
         H            3.002125773571    -0.813612432687     1.051212266330     1.007825032230
         H            2.808176773571    -1.457941432687    -0.574769733670     1.007825032230
         H            4.506978773571     0.219604567313    -1.429873733670     1.007825032230
         H            4.714301773571     0.824783567313     0.222626266330     1.007825032230
         H            5.191828773571    -0.831463432687    -0.183490733670     1.007825032230

  Basis Set: AUG-CC-PVTZ
    Blend: AUG-CC-PVTZ
  Basis Set: (AUG-CC-PVTZ AUX)
    Blend: AUG-CC-PVTZ-JKFIT
	 Reference Energy          =    -819.4938050262902607 [Eh]
	 Singles Energy            =      -0.0000000000000000 [Eh]
	 Same-Spin Energy          =      -0.4840796230668643 [Eh]
	 Opposite-Spin Energy      =      -1.5713306329111743 [Eh]
	 Correlation Energy        =      -2.0554102559780385 [Eh]
	 Total Energy              =    -821.5492152822682783 [Eh]

	 ================> DF-SCS-MP2 Energies <==================
	-----------------------------------------------------------
	 SCS Same-Spin Scale       =       0.3333333333333333 [-]
	 SCS Opposite-Spin Scale   =       1.2000000000000000 [-]
	 SCS Same-Spin Energy      =      -0.1613598743556214 [Eh]
	 SCS Opposite-Spin Energy  =      -1.8855967594934091 [Eh]
	 SCS Correlation Energy    =      -2.0469566338490304 [Eh]
	 SCS Total Energy          =    -821.5407616601393102 [Eh]
	-----------------------------------------------------------

  Dipole Moment: [D]
     X:     0.0941      Y:     2.8342      Z:     0.6630     Total:     2.9122

*** Psi4 exiting successfully. Buy a developer a beer!
