                               Psi4 1.3.2 release

  ==> Input File <==

--------------------------------------------------------------------------
#psi4
#
memory 32 gb

molecule  {
0 1
  S        1.8142300     0.7226310    -0.3411240
  O       -1.8432130    -0.9348080    -0.8000930
  O        0.4941690    -1.0618130     1.1146640
  C       -0.8273310     0.8335030     0.4756360
  C       -3.3832440     0.5955310     0.2374230
  C       -1.9322481     0.1032885    -0.0576616
  C        0.4326040    -0.0039200     0.5084100
  C       -4.5116740    -0.2794210    -0.2844450
  C        3.0576300    -0.5565920    -0.0082180
  C        4.4432860    -0.0468870    -0.3740170
  H       -0.6942050     1.7459430    -0.1201930
  H       -1.0474180     1.1506300     1.5016930
  H       -3.4528060     0.7235440     1.3254800
  H       -3.4442640     1.6111560    -0.1826160
  H       -5.4818800     0.1657790    -0.0500790
  H       -4.4326880    -0.4035450    -1.3660960
  H       -4.4661600    -1.2732880     0.1669010
  H        2.9964590    -0.8086780     1.0500210
  H        2.8025100    -1.4530070    -0.5759610
  H        4.5013120     0.2245390    -1.4310650
  H        4.7086350     0.8297180     0.2214350
  H        5.1861620    -0.8265290    -0.1846820
units angstrom
no_reorient  #important for SAPT in psi4, default
symmetry c1  #important for SAPT in psi4, default
}

set PROPERTIES_ORIGIN ["COM"]
properties('MP2/aug-cc-pvtz', properties = ['dipole'])
--------------------------------------------------------------------------

    Molecular point group: c1
  Charge       = 0
  Multiplicity = 1
  Basis Set: AUG-CC-PVTZ
    Blend: AUG-CC-PVTZ
  Basis Set: (AUG-CC-PVTZ AUX)
    Blend: AUG-CC-PVTZ-JKFIT

    Orbital Energies [Eh]
    ---------------------

    Doubly Occupied:

       1A    -91.975434     2A    -20.559143     3A    -20.550272
       4A    -11.372385     5A    -11.348883     6A    -11.270964
       7A    -11.265021     8A    -11.250876     9A    -11.233420
      10A    -11.220286    11A     -8.977022    12A     -6.658176
      13A     -6.657045    14A     -6.656431    15A     -1.398152
      16A     -1.351271    17A     -1.105183    18A     -1.082928
      19A     -1.042533    20A     -0.978936    21A     -0.892794
      22A     -0.841585    23A     -0.769407    24A     -0.729788
      25A     -0.677519    26A     -0.671197    27A     -0.652025
      28A     -0.637294    29A     -0.631999    30A     -0.600887
      31A     -0.592310    32A     -0.562462    33A     -0.546096
      34A     -0.533821    35A     -0.527959    36A     -0.514836
      37A     -0.510030    38A     -0.503731    39A     -0.471165
      40A     -0.466116    41A     -0.432062    42A     -0.409221
      43A     -0.374142

  @DF-RHF Final Energy:  -819.47615138172796

   => Energetics <=

    Nuclear Repulsion Energy =            603.6345555868771271
    One-Electron Energy =               -2323.2157991334511280
    Two-Electron Energy =                 900.1050921648461554
    Total Energy =                       -819.4761513817279592
  Basis Set: (AUG-CC-PVTZ AUX)
    Blend: AUG-CC-PVTZ-RI
    Molecular point group: c1

    Geometry (in Angstrom), charge = 0, multiplicity = 1:

       Center              X                  Y                   Z               Mass
    ------------   -----------------  -----------------  -----------------  -----------------
         S            1.808427784091     0.718796622279    -0.343924516420    31.972071174400
         O           -1.849015215909    -0.938642377721    -0.802893516420    15.994914619570
         O            0.488366784091    -1.065647377721     1.111863483580    15.994914619570
         C           -0.833133215909     0.829668622279     0.472835483580    12.000000000000
         C           -3.389046215909     0.591696622279     0.234622483580    12.000000000000
         C           -1.938050315909     0.099454122279    -0.060462116420    12.000000000000
         C            0.426801784091    -0.007754377721     0.505609483580    12.000000000000
         C           -4.517476215909    -0.283255377721    -0.287245516420    12.000000000000
         C            3.051827784091    -0.560426377721    -0.011018516420    12.000000000000
         C            4.437483784091    -0.050721377721    -0.376817516420    12.000000000000
         H           -0.700007215909     1.742108622279    -0.122993516420     1.007825032230
         H           -1.053220215909     1.146795622279     1.498892483580     1.007825032230
         H           -3.458608215909     0.719709622279     1.322679483580     1.007825032230
         H           -3.450066215909     1.607321622279    -0.185416516420     1.007825032230
         H           -5.487682215909     0.161944622279    -0.052879516420     1.007825032230
         H           -4.438490215909    -0.407379377721    -1.368896516420     1.007825032230
         H           -4.471962215909    -1.277122377721     0.164100483580     1.007825032230
         H            2.990656784091    -0.812512377721     1.047220483580     1.007825032230
         H            2.796707784091    -1.456841377721    -0.578761516420     1.007825032230
         H            4.495509784091     0.220704622279    -1.433865516420     1.007825032230
         H            4.702832784091     0.825883622279     0.218634483580     1.007825032230
         H            5.180359784091    -0.830363377721    -0.187482516420     1.007825032230

  Basis Set: AUG-CC-PVTZ
    Blend: AUG-CC-PVTZ
  Basis Set: (AUG-CC-PVTZ AUX)
    Blend: AUG-CC-PVTZ-JKFIT
	 Reference Energy          =    -819.4761513817279592 [Eh]
	 Singles Energy            =      -0.0000000000000000 [Eh]
	 Same-Spin Energy          =      -0.4863056705821122 [Eh]
	 Opposite-Spin Energy      =      -1.5754661133149517 [Eh]
	 Correlation Energy        =      -2.0617717838970639 [Eh]
	 Total Energy              =    -821.5379231656249885 [Eh]

	 ================> DF-SCS-MP2 Energies <==================
	-----------------------------------------------------------
	 SCS Same-Spin Scale       =       0.3333333333333333 [-]
	 SCS Opposite-Spin Scale   =       1.2000000000000000 [-]
	 SCS Same-Spin Energy      =      -0.1621018901940374 [Eh]
	 SCS Opposite-Spin Energy  =      -1.8905593359779420 [Eh]
	 SCS Correlation Energy    =      -2.0526612261719794 [Eh]
	 SCS Total Energy          =    -821.5288126078999085 [Eh]
	-----------------------------------------------------------

  Dipole Moment: [D]
     X:     0.5151      Y:     2.9957      Z:     0.8202     Total:     3.1484

*** Psi4 exiting successfully. Buy a developer a beer!
