                               Psi4 1.3.2 release

  ==> Input File <==

--------------------------------------------------------------------------
#psi4
#
memory 32 gb

molecule  {
0 1
  S        1.8142300     0.7226310    -0.3411240
  O       -1.8432130    -0.9348080    -0.8000930
  O        0.4941690    -1.0618130     1.1146640
  C       -0.8273310     0.8335030     0.4756360
  C       -3.3832440     0.5955310     0.2374230
  C       -1.9775468     0.0100272    -0.1013407
  C        0.4053363    -0.0440933     0.4876174
  C       -4.5116740    -0.2794210    -0.2844450
  C        3.0576300    -0.5565920    -0.0082180
  C        4.4432860    -0.0468870    -0.3740170
  H       -0.6942050     1.7459430    -0.1201930
  H       -1.0474180     1.1506300     1.5016930
  H       -3.4528060     0.7235440     1.3254800
  H       -3.4442640     1.6111560    -0.1826160
  H       -5.4818800     0.1657790    -0.0500790
  H       -4.4326880    -0.4035450    -1.3660960
  H       -4.4661600    -1.2732880     0.1669010
  H        2.9964590    -0.8086780     1.0500210
  H        2.8025100    -1.4530070    -0.5759610
  H        4.5013120     0.2245390    -1.4310650
  H        4.7086350     0.8297180     0.2214350
  H        5.1861620    -0.8265290    -0.1846820
units angstrom
no_reorient  #important for SAPT in psi4, default
symmetry c1  #important for SAPT in psi4, default
}

set PROPERTIES_ORIGIN ["COM"]
properties('MP2/aug-cc-pvtz', properties = ['dipole'])
--------------------------------------------------------------------------

    Molecular point group: c1
  Charge       = 0
  Multiplicity = 1
  Basis Set: AUG-CC-PVTZ
    Blend: AUG-CC-PVTZ
  Basis Set: (AUG-CC-PVTZ AUX)
    Blend: AUG-CC-PVTZ-JKFIT

    Orbital Energies [Eh]
    ---------------------

    Doubly Occupied:

       1A    -91.967902     2A    -20.560660     3A    -20.560260
       4A    -11.367542     5A    -11.343629     6A    -11.266296
       7A    -11.260829     8A    -11.247224     9A    -11.230290
      10A    -11.220498    11A     -8.969261    12A     -6.650369
      13A     -6.649287    14A     -6.648650    15A     -1.423221
      16A     -1.408014    17A     -1.090560    18A     -1.072348
      19A     -1.039768    20A     -0.966688    21A     -0.888222
      22A     -0.834017    23A     -0.758582    24A     -0.732471
      25A     -0.684075    26A     -0.670149    27A     -0.655466
      28A     -0.636354    29A     -0.632681    30A     -0.619133
      31A     -0.595490    32A     -0.561496    33A     -0.550888
      34A     -0.536626    35A     -0.528853    36A     -0.521144
      37A     -0.516301    38A     -0.507105    39A     -0.497858
      40A     -0.464479    41A     -0.427092    42A     -0.397102
      43A     -0.368486

  @DF-RHF Final Energy:  -819.49553088220068

   => Energetics <=

    Nuclear Repulsion Energy =            604.1219766307618784
    One-Electron Energy =               -2324.1802837165264464
    Two-Electron Energy =                 900.5627762035639989
    Total Energy =                       -819.4955308822006828
  Basis Set: (AUG-CC-PVTZ AUX)
    Blend: AUG-CC-PVTZ-RI
    Molecular point group: c1

    Geometry (in Angstrom), charge = 0, multiplicity = 1:

       Center              X                  Y                   Z               Mass
    ------------   -----------------  -----------------  -----------------  -----------------
         S            1.813868366661     0.728800728297    -0.339090824694    31.972071174400
         O           -1.843574633339    -0.928638271703    -0.798059824694    15.994914619570
         O            0.493807366661    -1.055643271703     1.116697175306    15.994914619570
         C           -0.827692633339     0.839672728297     0.477669175306    12.000000000000
         C           -3.383605633339     0.601700728297     0.239456175306    12.000000000000
         C           -1.977908433339     0.016196928297    -0.099307524694    12.000000000000
         C            0.404974666661    -0.037923571703     0.489650575306    12.000000000000
         C           -4.512035633339    -0.273251271703    -0.282411824694    12.000000000000
         C            3.057268366661    -0.550422271703    -0.006184824694    12.000000000000
         C            4.442924366661    -0.040717271703    -0.371983824694    12.000000000000
         H           -0.694566633339     1.752112728297    -0.118159824694     1.007825032230
         H           -1.047779633339     1.156799728297     1.503726175306     1.007825032230
         H           -3.453167633339     0.729713728297     1.327513175306     1.007825032230
         H           -3.444625633339     1.617325728297    -0.180582824694     1.007825032230
         H           -5.482241633339     0.171948728297    -0.048045824694     1.007825032230
         H           -4.433049633339    -0.397375271703    -1.364062824694     1.007825032230
         H           -4.466521633339    -1.267118271703     0.168934175306     1.007825032230
         H            2.996097366661    -0.802508271703     1.052054175306     1.007825032230
         H            2.802148366661    -1.446837271703    -0.573927824694     1.007825032230
         H            4.500950366661     0.230708728297    -1.429031824694     1.007825032230
         H            4.708273366661     0.835887728297     0.223468175306     1.007825032230
         H            5.185800366661    -0.820359271703    -0.182648824694     1.007825032230

  Basis Set: AUG-CC-PVTZ
    Blend: AUG-CC-PVTZ
  Basis Set: (AUG-CC-PVTZ AUX)
    Blend: AUG-CC-PVTZ-JKFIT
	 Reference Energy          =    -819.4955308822006828 [Eh]
	 Singles Energy            =      -0.0000000000000000 [Eh]
	 Same-Spin Energy          =      -0.4825666519323116 [Eh]
	 Opposite-Spin Energy      =      -1.5676551351095029 [Eh]
	 Correlation Energy        =      -2.0502217870418145 [Eh]
	 Total Energy              =    -821.5457526692424608 [Eh]

	 ================> DF-SCS-MP2 Energies <==================
	-----------------------------------------------------------
	 SCS Same-Spin Scale       =       0.3333333333333333 [-]
	 SCS Opposite-Spin Scale   =       1.2000000000000000 [-]
	 SCS Same-Spin Energy      =      -0.1608555506441038 [Eh]
	 SCS Opposite-Spin Energy  =      -1.8811861621314034 [Eh]
	 SCS Correlation Energy    =      -2.0420417127755073 [Eh]
	 SCS Total Energy          =    -821.5375725949761545 [Eh]
	-----------------------------------------------------------

  Dipole Moment: [D]
     X:    -0.0568      Y:     2.5925      Z:     0.7171     Total:     2.6905

*** Psi4 exiting successfully. Buy a developer a beer!
