                               Psi4 1.3.2 release

  ==> Input File <==

--------------------------------------------------------------------------
#psi4
#
memory 32 gb

molecule  {
0 1
  S        1.8142300     0.7226310    -0.3411240
  O       -1.8432130    -0.9348080    -0.8000930
  O        0.4941690    -1.0618130     1.1146640
  C       -0.8273310     0.8335030     0.4756360
  C       -3.3832440     0.5955310     0.2374230
  C       -2.0096370     0.0521440    -0.0950140
  C        0.4326040    -0.0039200     0.5084100
  C       -4.5116740    -0.2794210    -0.2844450
  C        3.0576300    -0.5565920    -0.0082180
  C        4.4432860    -0.0468870    -0.3740170
  H       -0.6942050     1.7459430    -0.1201930
  H       -1.0474180     1.1506300     1.5016930
  H       -3.4528060     0.7235440     1.3254800
  H       -3.4442640     1.6111560    -0.1826160
  H       -5.4818800     0.1657790    -0.0500790
  H       -4.4326880    -0.4035450    -1.3660960
  H       -4.4661600    -1.2732880     0.1669010
  H        2.9964590    -0.8086780     1.0500210
  H        2.8258872    -1.3708665    -0.5239375
  H        4.5013120     0.2245390    -1.4310650
  H        4.7086350     0.8297180     0.2214350
  H        5.1861620    -0.8265290    -0.1846820
units angstrom
no_reorient  #important for SAPT in psi4, default
symmetry c1  #important for SAPT in psi4, default
}

set PROPERTIES_ORIGIN ["COM"]
properties('MP2/aug-cc-pvtz', properties = ['dipole'])
--------------------------------------------------------------------------

    Molecular point group: c1
  Charge       = 0
  Multiplicity = 1
  Basis Set: AUG-CC-PVTZ
    Blend: AUG-CC-PVTZ
  Basis Set: (AUG-CC-PVTZ AUX)
    Blend: AUG-CC-PVTZ-JKFIT

    Orbital Energies [Eh]
    ---------------------

    Doubly Occupied:

       1A    -91.971533     2A    -20.555525     3A    -20.555042
       4A    -11.367454     5A    -11.346057     6A    -11.266744
       7A    -11.251081     8A    -11.249857     9A    -11.231128
      10A    -11.222279    11A     -8.973191    12A     -6.654348
      13A     -6.653218    14A     -6.652605    15A     -1.397386
      16A     -1.383960    17A     -1.096438    18A     -1.078727
      19A     -1.043359    20A     -0.972146    21A     -0.896544
      22A     -0.847046    23A     -0.762157    24A     -0.727582
      25A     -0.678091    26A     -0.668791    27A     -0.649128
      28A     -0.643458    29A     -0.636591    30A     -0.608667
      31A     -0.595344    32A     -0.559806    33A     -0.546318
      34A     -0.534095    35A     -0.529189    36A     -0.521149
      37A     -0.512290    38A     -0.507421    39A     -0.488930
      40A     -0.465857    41A     -0.429700    42A     -0.406321
      43A     -0.372077

  @DF-RHF Final Energy:  -819.48879707344759

   => Energetics <=

    Nuclear Repulsion Energy =            603.9457349474599823
    One-Electron Energy =               -2323.8518057397855046
    Two-Electron Energy =                 900.4172737188778228
    Total Energy =                       -819.4887970734475857
  Basis Set: (AUG-CC-PVTZ AUX)
    Blend: AUG-CC-PVTZ-RI
    Molecular point group: c1

    Geometry (in Angstrom), charge = 0, multiplicity = 1:

       Center              X                  Y                   Z               Mass
    ------------   -----------------  -----------------  -----------------  -----------------
         S            1.814082728605     0.722113907534    -0.341451640008    31.972071174400
         O           -1.843360271395    -0.935325092466    -0.800420640008    15.994914619570
         O            0.494021728605    -1.062330092466     1.114336359992    15.994914619570
         C           -0.827478271395     0.832985907534     0.475308359992    12.000000000000
         C           -3.383391271395     0.595013907534     0.237095359992    12.000000000000
         C           -2.009784271395     0.051626907534    -0.095341640008    12.000000000000
         C            0.432456728605    -0.004437092466     0.508082359992    12.000000000000
         C           -4.511821271395    -0.279938092466    -0.284772640008    12.000000000000
         C            3.057482728605    -0.557109092466    -0.008545640008    12.000000000000
         C            4.443138728605    -0.047404092466    -0.374344640008    12.000000000000
         H           -0.694352271395     1.745425907534    -0.120520640008     1.007825032230
         H           -1.047565271395     1.150112907534     1.501365359992     1.007825032230
         H           -3.452953271395     0.723026907534     1.325152359992     1.007825032230
         H           -3.444411271395     1.610638907534    -0.182943640008     1.007825032230
         H           -5.482027271395     0.165261907534    -0.050406640008     1.007825032230
         H           -4.432835271395    -0.404062092466    -1.366423640008     1.007825032230
         H           -4.466307271395    -1.273805092466     0.166573359992     1.007825032230
         H            2.996311728605    -0.809195092466     1.049693359992     1.007825032230
         H            2.825739928605    -1.371383592466    -0.524265140008     1.007825032230
         H            4.501164728605     0.224021907534    -1.431392640008     1.007825032230
         H            4.708487728605     0.829200907534     0.221107359992     1.007825032230
         H            5.186014728605    -0.827046092466    -0.185009640008     1.007825032230

  Basis Set: AUG-CC-PVTZ
    Blend: AUG-CC-PVTZ
  Basis Set: (AUG-CC-PVTZ AUX)
    Blend: AUG-CC-PVTZ-JKFIT
	 Reference Energy          =    -819.4887970734475857 [Eh]
	 Singles Energy            =      -0.0000000000000000 [Eh]
	 Same-Spin Energy          =      -0.4841010226918985 [Eh]
	 Opposite-Spin Energy      =      -1.5705145277858776 [Eh]
	 Correlation Energy        =      -2.0546155504777763 [Eh]
	 Total Energy              =    -821.5434126239254056 [Eh]

	 ================> DF-SCS-MP2 Energies <==================
	-----------------------------------------------------------
	 SCS Same-Spin Scale       =       0.3333333333333333 [-]
	 SCS Opposite-Spin Scale   =       1.2000000000000000 [-]
	 SCS Same-Spin Energy      =      -0.1613670075639662 [Eh]
	 SCS Opposite-Spin Energy  =      -1.8846174333430530 [Eh]
	 SCS Correlation Energy    =      -2.0459844409070191 [Eh]
	 SCS Total Energy          =    -821.5347815143545631 [Eh]
	-----------------------------------------------------------

  Dipole Moment: [D]
     X:     0.0045      Y:     2.8140      Z:     0.6825     Total:     2.8956

*** Psi4 exiting successfully. Buy a developer a beer!
