                               Psi4 1.3.2 release

  ==> Input File <==

--------------------------------------------------------------------------
#psi4
#
memory 32 gb

molecule  {
0 1
  S        1.8142300     0.7226310    -0.3411240
  O       -1.8432130    -0.9348080    -0.8000930
  O        0.4738792    -1.0593320     1.1206792
  C       -0.8393917     0.8155332     0.4907726
  C       -3.3832440     0.5955310     0.2374230
  C       -2.0096370     0.0521440    -0.0950140
  C        0.4326040    -0.0039200     0.5084100
  C       -4.5116740    -0.2794210    -0.2844450
  C        3.0576300    -0.5565920    -0.0082180
  C        4.4432860    -0.0468870    -0.3740170
  H       -0.6942050     1.7459430    -0.1201930
  H       -1.0474180     1.1506300     1.5016930
  H       -3.4528060     0.7235440     1.3254800
  H       -3.4442640     1.6111560    -0.1826160
  H       -5.4818800     0.1657790    -0.0500790
  H       -4.4326880    -0.4035450    -1.3660960
  H       -4.4661600    -1.2732880     0.1669010
  H        2.9964590    -0.8086780     1.0500210
  H        2.8025100    -1.4530070    -0.5759610
  H        4.5013120     0.2245390    -1.4310650
  H        4.7086350     0.8297180     0.2214350
  H        5.1861620    -0.8265290    -0.1846820
units angstrom
no_reorient  #important for SAPT in psi4, default
symmetry c1  #important for SAPT in psi4, default
}

set PROPERTIES_ORIGIN ["COM"]
properties('MP2/aug-cc-pvtz', properties = ['dipole'])
--------------------------------------------------------------------------

    Molecular point group: c1
  Charge       = 0
  Multiplicity = 1
  Basis Set: AUG-CC-PVTZ
    Blend: AUG-CC-PVTZ
  Basis Set: (AUG-CC-PVTZ AUX)
    Blend: AUG-CC-PVTZ-JKFIT

    Orbital Energies [Eh]
    ---------------------

    Doubly Occupied:

       1A    -91.973899     2A    -20.554668     3A    -20.554467
       4A    -11.366873     5A    -11.344730     6A    -11.266287
       7A    -11.263703     8A    -11.249107     9A    -11.232443
      10A    -11.221788    11A     -8.975394    12A     -6.656548
      13A     -6.655415    14A     -6.654798    15A     -1.397343
      16A     -1.383317    17A     -1.094247    18A     -1.077698
      19A     -1.041809    20A     -0.973403    21A     -0.895773
      22A     -0.838399    23A     -0.761212    24A     -0.725927
      25A     -0.678485    26A     -0.667640    27A     -0.648150
      28A     -0.637633    29A     -0.634418    30A     -0.608576
      31A     -0.592104    32A     -0.559242    33A     -0.546028
      34A     -0.532797    35A     -0.528047    36A     -0.520612
      37A     -0.510793    38A     -0.504741    39A     -0.487533
      40A     -0.466133    41A     -0.429742    42A     -0.407313
      43A     -0.372207

  @DF-RHF Final Energy:  -819.49388100945657

   => Energetics <=

    Nuclear Repulsion Energy =            603.5206927312251537
    One-Electron Energy =               -2323.0462624231367954
    Two-Electron Energy =                 900.0316886824550693
    Total Energy =                       -819.4938810094565724
  Basis Set: (AUG-CC-PVTZ AUX)
    Blend: AUG-CC-PVTZ-RI
    Molecular point group: c1

    Geometry (in Angstrom), charge = 0, multiplicity = 1:

       Center              X                  Y                   Z               Mass
    ------------   -----------------  -----------------  -----------------  -----------------
         S            1.817161793178     0.723730452936    -0.342860031480    31.972071174400
         O           -1.840281206822    -0.933708547064    -0.801829031480    15.994914619570
         O            0.476810993178    -1.058232547064     1.118943168520    15.994914619570
         C           -0.836459906822     0.816632652936     0.489036568520    12.000000000000
         C           -3.380312206822     0.596630452936     0.235686968520    12.000000000000
         C           -2.006705206822     0.053243452936    -0.096750031480    12.000000000000
         C            0.435535793178    -0.002820547064     0.506673968520    12.000000000000
         C           -4.508742206822    -0.278321547064    -0.286181031480    12.000000000000
         C            3.060561793178    -0.555492547064    -0.009954031480    12.000000000000
         C            4.446217793178    -0.045787547064    -0.375753031480    12.000000000000
         H           -0.691273206822     1.747042452936    -0.121929031480     1.007825032230
         H           -1.044486206822     1.151729452936     1.499956968520     1.007825032230
         H           -3.449874206822     0.724643452936     1.323743968520     1.007825032230
         H           -3.441332206822     1.612255452936    -0.184352031480     1.007825032230
         H           -5.478948206822     0.166878452936    -0.051815031480     1.007825032230
         H           -4.429756206822    -0.402445547064    -1.367832031480     1.007825032230
         H           -4.463228206822    -1.272188547064     0.165164968520     1.007825032230
         H            2.999390793178    -0.807578547064     1.048284968520     1.007825032230
         H            2.805441793178    -1.451907547064    -0.577697031480     1.007825032230
         H            4.504243793178     0.225638452936    -1.432801031480     1.007825032230
         H            4.711566793178     0.830817452936     0.219698968520     1.007825032230
         H            5.189093793178    -0.825429547064    -0.186418031480     1.007825032230

  Basis Set: AUG-CC-PVTZ
    Blend: AUG-CC-PVTZ
  Basis Set: (AUG-CC-PVTZ AUX)
    Blend: AUG-CC-PVTZ-JKFIT
	 Reference Energy          =    -819.4938810094565724 [Eh]
	 Singles Energy            =      -0.0000000000000000 [Eh]
	 Same-Spin Energy          =      -0.4842034191505229 [Eh]
	 Opposite-Spin Energy      =      -1.5711294174335451 [Eh]
	 Correlation Energy        =      -2.0553328365840677 [Eh]
	 Total Energy              =    -821.5492138460406295 [Eh]

	 ================> DF-SCS-MP2 Energies <==================
	-----------------------------------------------------------
	 SCS Same-Spin Scale       =       0.3333333333333333 [-]
	 SCS Opposite-Spin Scale   =       1.2000000000000000 [-]
	 SCS Same-Spin Energy      =      -0.1614011397168409 [Eh]
	 SCS Opposite-Spin Energy  =      -1.8853553009202539 [Eh]
	 SCS Correlation Energy    =      -2.0467564406370951 [Eh]
	 SCS Total Energy          =    -821.5406374500936408 [Eh]
	-----------------------------------------------------------

  Dipole Moment: [D]
     X:     0.1232      Y:     2.8351      Z:     0.6820     Total:     2.9186

*** Psi4 exiting successfully. Buy a developer a beer!
