                               Psi4 1.4a3.dev225

  ==> Input File <==

--------------------------------------------------------------------------
#psi4
#
memory 32 gb

molecule  {
0 1
  S        1.5586770    -0.2994370    -0.7152220
  O       -1.5255240    -0.4876820     1.0921970
  O        0.7924220     1.7006740     0.8461850
  C       -0.8878030     0.9736540    -0.7120840
  C       -3.2304390    -0.0998550    -0.5631210
  C       -1.8542380     0.0638590     0.0480780
  C        0.4339230     0.9493335    -0.0867836
  C       -4.1634610    -0.9398430     0.2972900
  C        2.9497330    -0.0790050     0.4324980
  C        4.0540790    -1.0751370     0.1033520
  H       -0.8484610     0.6756560    -1.7668750
  H       -1.2645150     2.0025910    -0.6674260
  H       -3.6447290     0.9013370    -0.7419330
  H       -3.1015980    -0.5455960    -1.5588690
  H       -5.1413450    -1.0357370    -0.1813640
  H       -3.7504260    -1.9381500     0.4523140
  H       -4.2995020    -0.4825820     1.2793320
  H        3.3022180     0.9509290     0.3487650
  H        2.5726230    -0.2199470     1.4475820
  H        3.7004310    -2.1050230     0.1947960
  H        4.4320470    -0.9299840    -0.9117720
  H        4.8873260    -0.9394890     0.7982930
units angstrom
no_reorient  #important for SAPT in psi4, default
symmetry c1  #important for SAPT in psi4, default
}

set PROPERTIES_ORIGIN ["COM"]
properties('MP2/aug-cc-pvtz', properties = ['dipole'])
--------------------------------------------------------------------------

    Molecular point group: c1
  Charge       = 0
  Multiplicity = 1
  Basis Set: AUG-CC-PVTZ
    Blend: AUG-CC-PVTZ
  Basis Set: (AUG-CC-PVTZ AUX)
    Blend: AUG-CC-PVTZ-JKFIT

    Orbital Energies [Eh]
    ---------------------

    Doubly Occupied:

       1A    -91.967634     2A    -20.561987     3A    -20.553747
       4A    -11.368492     5A    -11.353270     6A    -11.267912
       7A    -11.260665     8A    -11.254476     9A    -11.229504
      10A    -11.225966    11A     -8.968917    12A     -6.650073
      13A     -6.649030    14A     -6.648390    15A     -1.396333
      16A     -1.371230    17A     -1.097816    18A     -1.077046
      19A     -1.050743    20A     -0.966390    21A     -0.901889
      22A     -0.834950    23A     -0.765854    24A     -0.728460
      25A     -0.681951    26A     -0.672757    27A     -0.649110
      28A     -0.635601    29A     -0.631041    30A     -0.612532
      31A     -0.590463    32A     -0.557330    33A     -0.544614
      34A     -0.528416    35A     -0.526287    36A     -0.522168
      37A     -0.512246    38A     -0.499434    39A     -0.495513
      40A     -0.463757    41A     -0.433280    42A     -0.408018
      43A     -0.365239

  @DF-RHF Final Energy:  -819.48933476873412

   => Energetics <=

    Nuclear Repulsion Energy =            610.0363636051988578
    One-Electron Energy =               -2336.0903381694733980
    Two-Electron Energy =                 906.5646397955404154
    Total Energy =                       -819.4893347687341247
  Basis Set: (AUG-CC-PVTZ AUX)
    Blend: AUG-CC-PVTZ-RI
    Molecular point group: c1

    Geometry (in Angstrom), charge = 0, multiplicity = 1:

       Center              X                  Y                   Z               Mass
    ------------   -----------------  -----------------  -----------------  -----------------
         S            1.542750493057    -0.322238290867    -0.721785293237    31.972071174400
         O           -1.541450506943    -0.510483290867     1.085633706763    15.994914619570
         O            0.776495493057     1.677872709133     0.839621706763    15.994914619570
         C           -0.903729506943     0.950852709133    -0.718647293237    12.000000000000
         C           -3.246365506943    -0.122656290867    -0.569684293237    12.000000000000
         C           -1.870164506943     0.041057709133     0.041514706763    12.000000000000
         C            0.417996493057     0.926532209133    -0.093346893237    12.000000000000
         C           -4.179387506943    -0.962644290867     0.290726706763    12.000000000000
         C            2.933806493057    -0.101806290867     0.425934706763    12.000000000000
         C            4.038152493057    -1.097938290867     0.096788706763    12.000000000000
         H           -0.864387506943     0.652854709133    -1.773438293237     1.007825032230
         H           -1.280441506943     1.979789709133    -0.673989293237     1.007825032230
         H           -3.660655506943     0.878535709133    -0.748496293237     1.007825032230
         H           -3.117524506943    -0.568397290867    -1.565432293237     1.007825032230
         H           -5.157271506943    -1.058538290867    -0.187927293237     1.007825032230
         H           -3.766352506943    -1.960951290867     0.445750706763     1.007825032230
         H           -4.315428506943    -0.505383290867     1.272768706763     1.007825032230
         H            3.286291493057     0.928127709133     0.342201706763     1.007825032230
         H            2.556696493057    -0.242748290867     1.441018706763     1.007825032230
         H            3.684504493057    -2.127824290867     0.188232706763     1.007825032230
         H            4.416120493057    -0.952785290867    -0.918335293237     1.007825032230
         H            4.871399493057    -0.962290290867     0.791729706763     1.007825032230

  Basis Set: AUG-CC-PVTZ
    Blend: AUG-CC-PVTZ
  Basis Set: (AUG-CC-PVTZ AUX)
    Blend: AUG-CC-PVTZ-JKFIT
	 Reference Energy          =    -819.4893347687341247 [Eh]
	 Singles Energy            =      -0.0000000000000000 [Eh]
	 Same-Spin Energy          =      -0.4856058983703624 [Eh]
	 Opposite-Spin Energy      =      -1.5734839592783971 [Eh]
	 Correlation Energy        =      -2.0590898576487597 [Eh]
	 Total Energy              =    -821.5484246263829391 [Eh]

	 ================> DF-SCS-MP2 Energies <==================
	-----------------------------------------------------------
	 SCS Same-Spin Scale       =       0.3333333333333333 [-]
	 SCS Opposite-Spin Scale   =       1.2000000000000000 [-]
	 SCS Same-Spin Energy      =      -0.1618686327901208 [Eh]
	 SCS Opposite-Spin Energy  =      -1.8881807511340765 [Eh]
	 SCS Correlation Energy    =      -2.0500493839241973 [Eh]
	 SCS Total Energy          =    -821.5393841526582719 [Eh]
	-----------------------------------------------------------

  Dipole Moment: [D]
     X:    -0.9971      Y:    -0.2079      Z:    -2.7224     Total:     2.9067

*** Psi4 exiting successfully. Buy a developer a beer!
