                               Psi4 1.3.2 release

  ==> Input File <==

--------------------------------------------------------------------------
#psi4
#
memory 32 gb

molecule  {
0 1
  S        1.8142300     0.7226310    -0.3411240
  O       -1.8432130    -0.9348080    -0.8000930
  O        0.4941690    -1.0618130     1.1146640
  C       -0.8273310     0.8335030     0.4756360
  C       -3.3832440     0.5955310     0.2374230
  C       -1.9824502    -0.1090833    -0.2101949
  C        0.4326040    -0.0039200     0.5084100
  C       -4.5116740    -0.2794210    -0.2844450
  C        3.0576300    -0.5565920    -0.0082180
  C        4.4432860    -0.0468870    -0.3740170
  H       -0.6942050     1.7459430    -0.1201930
  H       -1.0474180     1.1506300     1.5016930
  H       -3.4528060     0.7235440     1.3254800
  H       -3.4442640     1.6111560    -0.1826160
  H       -5.4818800     0.1657790    -0.0500790
  H       -4.4326880    -0.4035450    -1.3660960
  H       -4.4661600    -1.2732880     0.1669010
  H        2.9964590    -0.8086780     1.0500210
  H        2.8025100    -1.4530070    -0.5759610
  H        4.5013120     0.2245390    -1.4310650
  H        4.7086350     0.8297180     0.2214350
  H        5.1861620    -0.8265290    -0.1846820
units angstrom
no_reorient  #important for SAPT in psi4, default
symmetry c1  #important for SAPT in psi4, default
}

set PROPERTIES_ORIGIN ["COM"]
properties('MP2/aug-cc-pvtz', properties = ['dipole'])
--------------------------------------------------------------------------

    Molecular point group: c1
  Charge       = 0
  Multiplicity = 1
  Basis Set: AUG-CC-PVTZ
    Blend: AUG-CC-PVTZ
  Basis Set: (AUG-CC-PVTZ AUX)
    Blend: AUG-CC-PVTZ-JKFIT

    Orbital Energies [Eh]
    ---------------------

    Doubly Occupied:

       1A    -91.967464     2A    -20.577116     3A    -20.550875
       4A    -11.359738     5A    -11.334334     6A    -11.259668
       7A    -11.250487     8A    -11.239749     9A    -11.229597
      10A    -11.218444    11A     -8.969182    12A     -6.650332
      13A     -6.649184    14A     -6.648585    15A     -1.553151
      16A     -1.389171    17A     -1.086794    18A     -1.054656
      19A     -1.028985    20A     -0.962206    21A     -0.872879
      22A     -0.831364    23A     -0.760327    24A     -0.731200
      25A     -0.719579    26A     -0.677954    27A     -0.665865
      28A     -0.643540    29A     -0.634576    30A     -0.624012
      31A     -0.597754    32A     -0.579279    33A     -0.556224
      34A     -0.546447    35A     -0.535617    36A     -0.521944
      37A     -0.517332    38A     -0.505502    39A     -0.498053
      40A     -0.462137    41A     -0.415056    42A     -0.371679
      43A     -0.360960

  @DF-RHF Final Energy:  -819.42309537206381

   => Energetics <=

    Nuclear Repulsion Energy =            605.5086571686310890
    One-Electron Energy =               -2326.6455113009419620
    Two-Electron Energy =                 901.7137587602470603
    Total Energy =                       -819.4230953720638126
  Basis Set: (AUG-CC-PVTZ AUX)
    Blend: AUG-CC-PVTZ-RI
    Molecular point group: c1

    Geometry (in Angstrom), charge = 0, multiplicity = 1:

       Center              X                  Y                   Z               Mass
    ------------   -----------------  -----------------  -----------------  -----------------
         S            1.812191628932     0.734718954286    -0.332488507286    31.972071174400
         O           -1.845251371068    -0.922720045714    -0.791457507286    15.994914619570
         O            0.492130628932    -1.049725045714     1.123299492714    15.994914619570
         C           -0.829369371068     0.845590954286     0.484271492714    12.000000000000
         C           -3.385282371068     0.607618954286     0.246058492714    12.000000000000
         C           -1.984488571068    -0.096995345714    -0.201559407286    12.000000000000
         C            0.430565628932     0.008167954286     0.517045492714    12.000000000000
         C           -4.513712371068    -0.267333045714    -0.275809507286    12.000000000000
         C            3.055591628932    -0.544504045714     0.000417492714    12.000000000000
         C            4.441247628932    -0.034799045714    -0.365381507286    12.000000000000
         H           -0.696243371068     1.758030954286    -0.111557507286     1.007825032230
         H           -1.049456371068     1.162717954286     1.510328492714     1.007825032230
         H           -3.454844371068     0.735631954286     1.334115492714     1.007825032230
         H           -3.446302371068     1.623243954286    -0.173980507286     1.007825032230
         H           -5.483918371068     0.177866954286    -0.041443507286     1.007825032230
         H           -4.434726371068    -0.391457045714    -1.357460507286     1.007825032230
         H           -4.468198371068    -1.261200045714     0.175536492714     1.007825032230
         H            2.994420628932    -0.796590045714     1.058656492714     1.007825032230
         H            2.800471628932    -1.440919045714    -0.567325507286     1.007825032230
         H            4.499273628932     0.236626954286    -1.422429507286     1.007825032230
         H            4.706596628932     0.841805954286     0.230070492714     1.007825032230
         H            5.184123628932    -0.814441045714    -0.176046507286     1.007825032230

  Basis Set: AUG-CC-PVTZ
    Blend: AUG-CC-PVTZ
  Basis Set: (AUG-CC-PVTZ AUX)
    Blend: AUG-CC-PVTZ-JKFIT
	 Reference Energy          =    -819.4230953720638126 [Eh]
	 Singles Energy            =      -0.0000000000000000 [Eh]
	 Same-Spin Energy          =      -0.4803187706142046 [Eh]
	 Opposite-Spin Energy      =      -1.5616968879588911 [Eh]
	 Correlation Energy        =      -2.0420156585730957 [Eh]
	 Total Energy              =    -821.4651110306368764 [Eh]

	 ================> DF-SCS-MP2 Energies <==================
	-----------------------------------------------------------
	 SCS Same-Spin Scale       =       0.3333333333333333 [-]
	 SCS Opposite-Spin Scale   =       1.2000000000000000 [-]
	 SCS Same-Spin Energy      =      -0.1601062568714015 [Eh]
	 SCS Opposite-Spin Energy  =      -1.8740362655506693 [Eh]
	 SCS Correlation Energy    =      -2.0341425224220706 [Eh]
	 SCS Total Energy          =    -821.4572378944858428 [Eh]
	-----------------------------------------------------------

  Dipole Moment: [D]
     X:    -0.2120      Y:     2.0340      Z:     0.0603     Total:     2.0459

*** Psi4 exiting successfully. Buy a developer a beer!
