                               Psi4 1.3.2 release

  ==> Input File <==

--------------------------------------------------------------------------
#psi4
#
memory 32 gb

molecule  {
0 1
  S        1.8256675     0.7323212    -0.3462308
  O       -1.8432130    -0.9348080    -0.8000930
  O        0.4941690    -1.0618130     1.1146640
  C       -0.8273310     0.8335030     0.4756360
  C       -3.3832440     0.5955310     0.2374230
  C       -2.0096370     0.0521440    -0.0950140
  C        0.4326040    -0.0039200     0.5084100
  C       -4.5116740    -0.2794210    -0.2844450
  C        3.0576300    -0.5565920    -0.0082180
  C        4.4379757    -0.0353135    -0.3777650
  H       -0.6942050     1.7459430    -0.1201930
  H       -1.0474180     1.1506300     1.5016930
  H       -3.4528060     0.7235440     1.3254800
  H       -3.4442640     1.6111560    -0.1826160
  H       -5.4818800     0.1657790    -0.0500790
  H       -4.4326880    -0.4035450    -1.3660960
  H       -4.4661600    -1.2732880     0.1669010
  H        2.9964590    -0.8086780     1.0500210
  H        2.8025100    -1.4530070    -0.5759610
  H        4.5013120     0.2245390    -1.4310650
  H        4.7086350     0.8297180     0.2214350
  H        5.1861620    -0.8265290    -0.1846820
units angstrom
no_reorient  #important for SAPT in psi4, default
symmetry c1  #important for SAPT in psi4, default
}

set PROPERTIES_ORIGIN ["COM"]
properties('MP2/aug-cc-pvtz', properties = ['dipole'])
--------------------------------------------------------------------------

    Molecular point group: c1
  Charge       = 0
  Multiplicity = 1
  Basis Set: AUG-CC-PVTZ
    Blend: AUG-CC-PVTZ
  Basis Set: (AUG-CC-PVTZ AUX)
    Blend: AUG-CC-PVTZ-JKFIT

    Orbital Energies [Eh]
    ---------------------

    Doubly Occupied:

       1A    -91.971969     2A    -20.556724     3A    -20.555762
       4A    -11.368844     5A    -11.346306     6A    -11.267105
       7A    -11.262392     8A    -11.250043     9A    -11.231202
      10A    -11.222424    11A     -8.973291    12A     -6.654423
      13A     -6.653292    14A     -6.652682    15A     -1.397923
      16A     -1.384367    17A     -1.092967    18A     -1.077241
      19A     -1.042586    20A     -0.969718    21A     -0.896197
      22A     -0.836685    23A     -0.760646    24A     -0.727399
      25A     -0.678181    26A     -0.668180    27A     -0.648237
      28A     -0.637919    29A     -0.634179    30A     -0.608828
      31A     -0.594333    32A     -0.558174    33A     -0.545940
      34A     -0.533548    35A     -0.526962    36A     -0.521117
      37A     -0.512421    38A     -0.505508    39A     -0.488849
      40A     -0.464519    41A     -0.430067    42A     -0.405713
      43A     -0.370770

  @DF-RHF Final Energy:  -819.49403647922543

   => Energetics <=

    Nuclear Repulsion Energy =            602.9445811653058627
    One-Electron Energy =               -2321.9059617098691888
    Two-Electron Energy =                 899.4673440653378975
    Total Energy =                       -819.4940364792254286
  Basis Set: (AUG-CC-PVTZ AUX)
    Blend: AUG-CC-PVTZ-RI
    Molecular point group: c1

    Geometry (in Angstrom), charge = 0, multiplicity = 1:

       Center              X                  Y                   Z               Mass
    ------------   -----------------  -----------------  -----------------  -----------------
         S            1.823780854991     0.729517939146    -0.344929748281    31.972071174400
         O           -1.845099645009    -0.937611260854    -0.798791948281    15.994914619570
         O            0.492282354991    -1.064616260854     1.115965051719    15.994914619570
         C           -0.829217645009     0.830699739146     0.476937051719    12.000000000000
         C           -3.385130645009     0.592727739146     0.238724051719    12.000000000000
         C           -2.011523645009     0.049340739146    -0.093712948281    12.000000000000
         C            0.430717354991    -0.006723260854     0.509711051719    12.000000000000
         C           -4.513560645009    -0.282224260854    -0.283143948281    12.000000000000
         C            3.055743354991    -0.559395260854    -0.006916948281    12.000000000000
         C            4.436089054991    -0.038116760854    -0.376463948281    12.000000000000
         H           -0.696091645009     1.743139739146    -0.118891948281     1.007825032230
         H           -1.049304645009     1.147826739146     1.502994051719     1.007825032230
         H           -3.454692645009     0.720740739146     1.326781051719     1.007825032230
         H           -3.446150645009     1.608352739146    -0.181314948281     1.007825032230
         H           -5.483766645009     0.162975739146    -0.048777948281     1.007825032230
         H           -4.434574645009    -0.406348260854    -1.364794948281     1.007825032230
         H           -4.468046645009    -1.276091260854     0.168202051719     1.007825032230
         H            2.994572354991    -0.811481260854     1.051322051719     1.007825032230
         H            2.800623354991    -1.455810260854    -0.574659948281     1.007825032230
         H            4.499425354991     0.221735739146    -1.429763948281     1.007825032230
         H            4.706748354991     0.826914739146     0.222736051719     1.007825032230
         H            5.184275354991    -0.829332260854    -0.183380948281     1.007825032230

  Basis Set: AUG-CC-PVTZ
    Blend: AUG-CC-PVTZ
  Basis Set: (AUG-CC-PVTZ AUX)
    Blend: AUG-CC-PVTZ-JKFIT
	 Reference Energy          =    -819.4940364792254286 [Eh]
	 Singles Energy            =      -0.0000000000000000 [Eh]
	 Same-Spin Energy          =      -0.4842212503278126 [Eh]
	 Opposite-Spin Energy      =      -1.5712920456316288 [Eh]
	 Correlation Energy        =      -2.0555132959594413 [Eh]
	 Total Energy              =    -821.5495497751849143 [Eh]

	 ================> DF-SCS-MP2 Energies <==================
	-----------------------------------------------------------
	 SCS Same-Spin Scale       =       0.3333333333333333 [-]
	 SCS Opposite-Spin Scale   =       1.2000000000000000 [-]
	 SCS Same-Spin Energy      =      -0.1614070834426042 [Eh]
	 SCS Opposite-Spin Energy  =      -1.8855504547579545 [Eh]
	 SCS Correlation Energy    =      -2.0469575382005587 [Eh]
	 SCS Total Energy          =    -821.5409940174259873 [Eh]
	-----------------------------------------------------------

  Dipole Moment: [D]
     X:    -0.0562      Y:     2.8176      Z:     0.7068     Total:     2.9055

*** Psi4 exiting successfully. Buy a developer a beer!
