                               Psi4 1.3.2 release

  ==> Input File <==

--------------------------------------------------------------------------
#psi4
#
memory 32 gb

molecule  {
0 1
  S        1.8142300     0.7226310    -0.3411240
  O       -1.8432130    -0.9348080    -0.8000930
  O        0.4941690    -1.0618130     1.1146640
  C       -0.8443849     0.8506356     0.4868877
  C       -3.3719358     0.6150711     0.2511581
  C       -2.0096370     0.0521440    -0.0950140
  C        0.4326040    -0.0039200     0.5084100
  C       -4.5116740    -0.2794210    -0.2844450
  C        3.0576300    -0.5565920    -0.0082180
  C        4.4432860    -0.0468870    -0.3740170
  H       -0.6942050     1.7459430    -0.1201930
  H       -1.0474180     1.1506300     1.5016930
  H       -3.4528060     0.7235440     1.3254800
  H       -3.4442640     1.6111560    -0.1826160
  H       -5.4818800     0.1657790    -0.0500790
  H       -4.4326880    -0.4035450    -1.3660960
  H       -4.4661600    -1.2732880     0.1669010
  H        2.9964590    -0.8086780     1.0500210
  H        2.8025100    -1.4530070    -0.5759610
  H        4.5013120     0.2245390    -1.4310650
  H        4.7086350     0.8297180     0.2214350
  H        5.1861620    -0.8265290    -0.1846820
units angstrom
no_reorient  #important for SAPT in psi4, default
symmetry c1  #important for SAPT in psi4, default
}

set PROPERTIES_ORIGIN ["COM"]
properties('MP2/aug-cc-pvtz', properties = ['dipole'])
--------------------------------------------------------------------------

    Molecular point group: c1
  Charge       = 0
  Multiplicity = 1
  Basis Set: AUG-CC-PVTZ
    Blend: AUG-CC-PVTZ
  Basis Set: (AUG-CC-PVTZ AUX)
    Blend: AUG-CC-PVTZ-JKFIT

    Orbital Energies [Eh]
    ---------------------

    Doubly Occupied:

       1A    -91.972083     2A    -20.557138     3A    -20.555179
       4A    -11.367994     5A    -11.346478     6A    -11.265482
       7A    -11.262614     8A    -11.247909     9A    -11.231633
      10A    -11.222853    11A     -8.973677    12A     -6.654829
      13A     -6.653703    14A     -6.653089    15A     -1.397011
      16A     -1.384111    17A     -1.093201    18A     -1.077011
      19A     -1.038546    20A     -0.971998    21A     -0.895043
      22A     -0.837824    23A     -0.759294    24A     -0.727728
      25A     -0.677204    26A     -0.669849    27A     -0.646137
      28A     -0.638681    29A     -0.634261    30A     -0.609540
      31A     -0.597365    32A     -0.559607    33A     -0.544076
      34A     -0.531444    35A     -0.527212    36A     -0.518775
      37A     -0.513385    38A     -0.505746    39A     -0.491879
      40A     -0.465033    41A     -0.430129    42A     -0.404068
      43A     -0.371065

  @DF-RHF Final Energy:  -819.49367814291224

   => Energetics <=

    Nuclear Repulsion Energy =            602.9408997647310571
    One-Electron Energy =               -2321.9053853388568314
    Two-Electron Energy =                 899.4708074312135295
    Total Energy =                       -819.4936781429122448
  Basis Set: (AUG-CC-PVTZ AUX)
    Blend: AUG-CC-PVTZ-RI
    Molecular point group: c1

    Geometry (in Angstrom), charge = 0, multiplicity = 1:

       Center              X                  Y                   Z               Mass
    ------------   -----------------  -----------------  -----------------  -----------------
         S            1.814660705329     0.719881628878    -0.342997419750    31.972071174400
         O           -1.842782294671    -0.937557371122    -0.801966419750    15.994914619570
         O            0.494599705329    -1.064562371122     1.112790580250    15.994914619570
         C           -0.843954194671     0.847886228878     0.485014280250    12.000000000000
         C           -3.371505094671     0.612321728878     0.249284680250    12.000000000000
         C           -2.009206294671     0.049394628878    -0.096887419750    12.000000000000
         C            0.433034705329    -0.006669371122     0.506536580250    12.000000000000
         C           -4.511243294671    -0.282170371122    -0.286318419750    12.000000000000
         C            3.058060705329    -0.559341371122    -0.010091419750    12.000000000000
         C            4.443716705329    -0.049636371122    -0.375890419750    12.000000000000
         H           -0.693774294671     1.743193628878    -0.122066419750     1.007825032230
         H           -1.046987294671     1.147880628878     1.499819580250     1.007825032230
         H           -3.452375294671     0.720794628878     1.323606580250     1.007825032230
         H           -3.443833294671     1.608406628878    -0.184489419750     1.007825032230
         H           -5.481449294671     0.163029628878    -0.051952419750     1.007825032230
         H           -4.432257294671    -0.406294371122    -1.367969419750     1.007825032230
         H           -4.465729294671    -1.276037371122     0.165027580250     1.007825032230
         H            2.996889705329    -0.811427371122     1.048147580250     1.007825032230
         H            2.802940705329    -1.455756371122    -0.577834419750     1.007825032230
         H            4.501742705329     0.221789628878    -1.432938419750     1.007825032230
         H            4.709065705329     0.826968628878     0.219561580250     1.007825032230
         H            5.186592705329    -0.829278371122    -0.186555419750     1.007825032230

  Basis Set: AUG-CC-PVTZ
    Blend: AUG-CC-PVTZ
  Basis Set: (AUG-CC-PVTZ AUX)
    Blend: AUG-CC-PVTZ-JKFIT
	 Reference Energy          =    -819.4936781429122448 [Eh]
	 Singles Energy            =      -0.0000000000000000 [Eh]
	 Same-Spin Energy          =      -0.4839836764832054 [Eh]
	 Opposite-Spin Energy      =      -1.5709362593651126 [Eh]
	 Correlation Energy        =      -2.0549199358483179 [Eh]
	 Total Energy              =    -821.5485980787605058 [Eh]

	 ================> DF-SCS-MP2 Energies <==================
	-----------------------------------------------------------
	 SCS Same-Spin Scale       =       0.3333333333333333 [-]
	 SCS Opposite-Spin Scale   =       1.2000000000000000 [-]
	 SCS Same-Spin Energy      =      -0.1613278921610685 [Eh]
	 SCS Opposite-Spin Energy  =      -1.8851235112381350 [Eh]
	 SCS Correlation Energy    =      -2.0464514033992036 [Eh]
	 SCS Total Energy          =    -821.5401295463115048 [Eh]
	-----------------------------------------------------------

  Dipole Moment: [D]
     X:     0.0417      Y:     2.8225      Z:     0.6863     Total:     2.9051

*** Psi4 exiting successfully. Buy a developer a beer!
