                               Psi4 1.3.2 release

  ==> Input File <==

--------------------------------------------------------------------------
#psi4
#
memory 32 gb

molecule  {
0 1
  S        1.8142300     0.7226310    -0.3411240
  O       -1.8432130    -0.9348080    -0.8000930
  O        0.4941690    -1.0618130     1.1146640
  C       -0.8273310     0.8335030     0.4756360
  C       -3.3832440     0.5955310     0.2374230
  C       -2.0096370     0.0521440    -0.0950140
  C        0.4376468    -0.0905723     0.5580684
  C       -4.5116740    -0.2794210    -0.2844450
  C        3.0576300    -0.5565920    -0.0082180
  C        4.4432860    -0.0468870    -0.3740170
  H       -0.6942050     1.7459430    -0.1201930
  H       -1.0474180     1.1506300     1.5016930
  H       -3.4528060     0.7235440     1.3254800
  H       -3.4442640     1.6111560    -0.1826160
  H       -5.4818800     0.1657790    -0.0500790
  H       -4.4326880    -0.4035450    -1.3660960
  H       -4.4661600    -1.2732880     0.1669010
  H        2.9964590    -0.8086780     1.0500210
  H        2.8025100    -1.4530070    -0.5759610
  H        4.5013120     0.2245390    -1.4310650
  H        4.7086350     0.8297180     0.2214350
  H        5.1861620    -0.8265290    -0.1846820
units angstrom
no_reorient  #important for SAPT in psi4, default
symmetry c1  #important for SAPT in psi4, default
}

set PROPERTIES_ORIGIN ["COM"]
properties('MP2/aug-cc-pvtz', properties = ['dipole'])
--------------------------------------------------------------------------

    Molecular point group: c1
  Charge       = 0
  Multiplicity = 1
  Basis Set: AUG-CC-PVTZ
    Blend: AUG-CC-PVTZ
  Basis Set: (AUG-CC-PVTZ AUX)
    Blend: AUG-CC-PVTZ-JKFIT

    Orbital Energies [Eh]
    ---------------------

    Doubly Occupied:

       1A    -91.960027     2A    -20.571026     3A    -20.555750
       4A    -11.363089     5A    -11.344820     6A    -11.265116
       7A    -11.258053     8A    -11.249082     9A    -11.227603
      10A    -11.222088    11A     -8.961498    12A     -6.642565
      13A     -6.641465    14A     -6.640781    15A     -1.474223
      16A     -1.388695    17A     -1.085028    18A     -1.073628
      19A     -1.034723    20A     -0.961124    21A     -0.892631
      22A     -0.830287    23A     -0.757397    24A     -0.734087
      25A     -0.683772    26A     -0.673675    27A     -0.664703
      28A     -0.641894    29A     -0.632743    30A     -0.614363
      31A     -0.599439    32A     -0.571870    33A     -0.564439
      34A     -0.537624    35A     -0.528540    36A     -0.520727
      37A     -0.512598    38A     -0.510448    39A     -0.490265
      40A     -0.459250    41A     -0.428539    42A     -0.389482
      43A     -0.365190

  @DF-RHF Final Energy:  -819.48745526737980

   => Energetics <=

    Nuclear Repulsion Energy =            603.8144083056034788
    One-Electron Energy =               -2323.5550422254636942
    Two-Electron Energy =                 900.2531786524803010
    Total Energy =                       -819.4874552673798007
  Basis Set: (AUG-CC-PVTZ AUX)
    Blend: AUG-CC-PVTZ-RI
    Molecular point group: c1

    Geometry (in Angstrom), charge = 0, multiplicity = 1:

       Center              X                  Y                   Z               Mass
    ------------   -----------------  -----------------  -----------------  -----------------
         S            1.813851849921     0.729127779236    -0.344847144649    31.972071174400
         O           -1.843591150079    -0.928311220764    -0.803816144649    15.994914619570
         O            0.493790849921    -1.055316220764     1.110940855351    15.994914619570
         C           -0.827709150079     0.839999779236     0.471912855351    12.000000000000
         C           -3.383622150079     0.602027779236     0.233699855351    12.000000000000
         C           -2.010015150079     0.058640779236    -0.098737144649    12.000000000000
         C            0.437268649921    -0.084075520764     0.554345255351    12.000000000000
         C           -4.512052150079    -0.272924220764    -0.288168144649    12.000000000000
         C            3.057251849921    -0.550095220764    -0.011941144649    12.000000000000
         C            4.442907849921    -0.040390220764    -0.377740144649    12.000000000000
         H           -0.694583150079     1.752439779236    -0.123916144649     1.007825032230
         H           -1.047796150079     1.157126779236     1.497969855351     1.007825032230
         H           -3.453184150079     0.730040779236     1.321756855351     1.007825032230
         H           -3.444642150079     1.617652779236    -0.186339144649     1.007825032230
         H           -5.482258150079     0.172275779236    -0.053802144649     1.007825032230
         H           -4.433066150079    -0.397048220764    -1.369819144649     1.007825032230
         H           -4.466538150079    -1.266791220764     0.163177855351     1.007825032230
         H            2.996080849921    -0.802181220764     1.046297855351     1.007825032230
         H            2.802131849921    -1.446510220764    -0.579684144649     1.007825032230
         H            4.500933849921     0.231035779236    -1.434788144649     1.007825032230
         H            4.708256849921     0.836214779236     0.217711855351     1.007825032230
         H            5.185783849921    -0.820032220764    -0.188405144649     1.007825032230

  Basis Set: AUG-CC-PVTZ
    Blend: AUG-CC-PVTZ
  Basis Set: (AUG-CC-PVTZ AUX)
    Blend: AUG-CC-PVTZ-JKFIT
	 Reference Energy          =    -819.4874552673798007 [Eh]
	 Singles Energy            =      -0.0000000000000000 [Eh]
	 Same-Spin Energy          =      -0.4815721285753696 [Eh]
	 Opposite-Spin Energy      =      -1.5657893623036689 [Eh]
	 Correlation Energy        =      -2.0473614908790383 [Eh]
	 Total Energy              =    -821.5348167582587848 [Eh]

	 ================> DF-SCS-MP2 Energies <==================
	-----------------------------------------------------------
	 SCS Same-Spin Scale       =       0.3333333333333333 [-]
	 SCS Opposite-Spin Scale   =       1.2000000000000000 [-]
	 SCS Same-Spin Energy      =      -0.1605240428584565 [Eh]
	 SCS Opposite-Spin Energy  =      -1.8789472347644027 [Eh]
	 SCS Correlation Energy    =      -2.0394712776228592 [Eh]
	 SCS Total Energy          =    -821.5269265450026523 [Eh]
	-----------------------------------------------------------

  Dipole Moment: [D]
     X:    -0.3526      Y:     2.3954      Z:     1.0672     Total:     2.6460

*** Psi4 exiting successfully. Buy a developer a beer!
