                               Psi4 1.3.2 release

  ==> Input File <==

--------------------------------------------------------------------------
#psi4
#
memory 32 gb

molecule  {
0 1
  S        1.8142300     0.7226310    -0.3411240
  O       -1.8432130    -0.9348080    -0.8000930
  O        0.4941690    -1.0618130     1.1146640
  C       -0.8273310     0.8335030     0.4756360
  C       -3.3832440     0.5955310     0.2374230
  C       -2.0368238     0.2133713     0.0201669
  C        0.4326040    -0.0039200     0.5084100
  C       -4.5116740    -0.2794210    -0.2844450
  C        3.0576300    -0.5565920    -0.0082180
  C        4.4432860    -0.0468870    -0.3740170
  H       -0.6942050     1.7459430    -0.1201930
  H       -1.0474180     1.1506300     1.5016930
  H       -3.4528060     0.7235440     1.3254800
  H       -3.4442640     1.6111560    -0.1826160
  H       -5.4818800     0.1657790    -0.0500790
  H       -4.4326880    -0.4035450    -1.3660960
  H       -4.4661600    -1.2732880     0.1669010
  H        2.9964590    -0.8086780     1.0500210
  H        2.8025100    -1.4530070    -0.5759610
  H        4.5013120     0.2245390    -1.4310650
  H        4.7086350     0.8297180     0.2214350
  H        5.1861620    -0.8265290    -0.1846820
units angstrom
no_reorient  #important for SAPT in psi4, default
symmetry c1  #important for SAPT in psi4, default
}

set PROPERTIES_ORIGIN ["COM"]
properties('MP2/aug-cc-pvtz', properties = ['dipole'])
--------------------------------------------------------------------------

    Molecular point group: c1
  Charge       = 0
  Multiplicity = 1
  Basis Set: AUG-CC-PVTZ
    Blend: AUG-CC-PVTZ
  Basis Set: (AUG-CC-PVTZ AUX)
    Blend: AUG-CC-PVTZ-JKFIT

    Orbital Energies [Eh]
    ---------------------

    Doubly Occupied:

       1A    -91.975221     2A    -20.557003     3A    -20.534972
       4A    -11.373333     5A    -11.359740     6A    -11.276532
       7A    -11.264458     8A    -11.258109     9A    -11.232876
      10A    -11.227490    11A     -8.976729    12A     -6.657888
      13A     -6.656773    14A     -6.656140    15A     -1.394751
      16A     -1.278973    17A     -1.109247    18A     -1.088878
      19A     -1.058908    20A     -0.980096    21A     -0.918198
      22A     -0.845453    23A     -0.772528    24A     -0.723988
      25A     -0.679592    26A     -0.670590    27A     -0.654183
      28A     -0.642335    29A     -0.635311    30A     -0.603615
      31A     -0.570850    32A     -0.560665    33A     -0.554191
      34A     -0.533627    35A     -0.528004    36A     -0.514634
      37A     -0.508391    38A     -0.494002    39A     -0.467051
      40A     -0.427336    41A     -0.421191    42A     -0.415812
      43A     -0.372778

  @DF-RHF Final Energy:  -819.42193157973361

   => Energetics <=

    Nuclear Repulsion Energy =            602.2685566869334934
    One-Electron Energy =               -2320.5160924511169469
    Two-Electron Energy =                 898.8256041844497304
    Total Energy =                       -819.4219315797336094
  Basis Set: (AUG-CC-PVTZ AUX)
    Blend: AUG-CC-PVTZ-RI
    Molecular point group: c1

    Geometry (in Angstrom), charge = 0, multiplicity = 1:

       Center              X                  Y                   Z               Mass
    ------------   -----------------  -----------------  -----------------  -----------------
         S            1.816268227198     0.710543290670    -0.349759618899    31.972071174400
         O           -1.841174772802    -0.946895709330    -0.808728618899    15.994914619570
         O            0.496207227198    -1.073900709330     1.106028381101    15.994914619570
         C           -0.825292772802     0.821415290670     0.467000381101    12.000000000000
         C           -3.381205772802     0.583443290670     0.228787381101    12.000000000000
         C           -2.034785572802     0.201283590670     0.011531281101    12.000000000000
         C            0.434642227198    -0.016007709330     0.499774381101    12.000000000000
         C           -4.509635772802    -0.291508709330    -0.293080618899    12.000000000000
         C            3.059668227198    -0.568679709330    -0.016853618899    12.000000000000
         C            4.445324227198    -0.058974709330    -0.382652618899    12.000000000000
         H           -0.692166772802     1.733855290670    -0.128828618899     1.007825032230
         H           -1.045379772802     1.138542290670     1.493057381101     1.007825032230
         H           -3.450767772802     0.711456290670     1.316844381101     1.007825032230
         H           -3.442225772802     1.599068290670    -0.191251618899     1.007825032230
         H           -5.479841772802     0.153691290670    -0.058714618899     1.007825032230
         H           -4.430649772802    -0.415632709330    -1.374731618899     1.007825032230
         H           -4.464121772802    -1.285375709330     0.158265381101     1.007825032230
         H            2.998497227198    -0.820765709330     1.041385381101     1.007825032230
         H            2.804548227198    -1.465094709330    -0.584596618899     1.007825032230
         H            4.503350227198     0.212451290670    -1.439700618899     1.007825032230
         H            4.710673227198     0.817630290670     0.212799381101     1.007825032230
         H            5.188200227198    -0.838616709330    -0.193317618899     1.007825032230

  Basis Set: AUG-CC-PVTZ
    Blend: AUG-CC-PVTZ
  Basis Set: (AUG-CC-PVTZ AUX)
    Blend: AUG-CC-PVTZ-JKFIT
	 Reference Energy          =    -819.4219315797336094 [Eh]
	 Singles Energy            =      -0.0000000000000000 [Eh]
	 Same-Spin Energy          =      -0.4918503982138246 [Eh]
	 Opposite-Spin Energy      =      -1.5862722257990942 [Eh]
	 Correlation Energy        =      -2.0781226240129187 [Eh]
	 Total Energy              =    -821.5000542037465721 [Eh]

	 ================> DF-SCS-MP2 Energies <==================
	-----------------------------------------------------------
	 SCS Same-Spin Scale       =       0.3333333333333333 [-]
	 SCS Opposite-Spin Scale   =       1.2000000000000000 [-]
	 SCS Same-Spin Energy      =      -0.1639501327379415 [Eh]
	 SCS Opposite-Spin Energy  =      -1.9035266709589129 [Eh]
	 SCS Correlation Energy    =      -2.0674768036968545 [Eh]
	 SCS Total Energy          =    -821.4894083834304865 [Eh]
	-----------------------------------------------------------

  Dipole Moment: [D]
     X:     0.0460      Y:     3.2177      Z:     0.9713     Total:     3.3614

*** Psi4 exiting successfully. Buy a developer a beer!
