                               Psi4 1.3.2 release

  ==> Input File <==

--------------------------------------------------------------------------
#psi4
#
memory 32 gb

molecule  {
0 1
  S        1.8314825     0.6979828    -0.3335794
  O       -1.8432130    -0.9348080    -0.8000930
  O        0.4941690    -1.0618130     1.1146640
  C       -0.8397518     0.8149511     0.4897442
  C       -3.3832440     0.5955310     0.2374230
  C       -2.0096370     0.0521440    -0.0950140
  C        0.4326040    -0.0039200     0.5084100
  C       -4.5116740    -0.2794210    -0.2844450
  C        3.0576300    -0.5565920    -0.0082180
  C        4.4432860    -0.0468870    -0.3740170
  H       -0.6942050     1.7459430    -0.1201930
  H       -1.0474180     1.1506300     1.5016930
  H       -3.4528060     0.7235440     1.3254800
  H       -3.4442640     1.6111560    -0.1826160
  H       -5.4818800     0.1657790    -0.0500790
  H       -4.4326880    -0.4035450    -1.3660960
  H       -4.4661600    -1.2732880     0.1669010
  H        2.9964590    -0.8086780     1.0500210
  H        2.8025100    -1.4530070    -0.5759610
  H        4.5013120     0.2245390    -1.4310650
  H        4.7086350     0.8297180     0.2214350
  H        5.1861620    -0.8265290    -0.1846820
units angstrom
no_reorient  #important for SAPT in psi4, default
symmetry c1  #important for SAPT in psi4, default
}

set PROPERTIES_ORIGIN ["COM"]
properties('MP2/aug-cc-pvtz', properties = ['dipole'])
--------------------------------------------------------------------------

    Molecular point group: c1
  Charge       = 0
  Multiplicity = 1
  Basis Set: AUG-CC-PVTZ
    Blend: AUG-CC-PVTZ
  Basis Set: (AUG-CC-PVTZ AUX)
    Blend: AUG-CC-PVTZ-JKFIT

    Orbital Energies [Eh]
    ---------------------

    Doubly Occupied:

       1A    -91.971276     2A    -20.555296     3A    -20.554364
       4A    -11.367071     5A    -11.345603     6A    -11.268161
       7A    -11.260405     8A    -11.249790     9A    -11.232213
      10A    -11.222289    11A     -8.973360    12A     -6.654542
      13A     -6.653462    14A     -6.652790    15A     -1.397706
      16A     -1.384095    17A     -1.097096    18A     -1.079728
      19A     -1.042561    20A     -0.972965    21A     -0.896860
      22A     -0.838513    23A     -0.761475    24A     -0.726334
      25A     -0.679491    26A     -0.669085    27A     -0.649164
      28A     -0.638488    29A     -0.635329    30A     -0.609178
      31A     -0.592883    32A     -0.558467    33A     -0.546543
      34A     -0.533461    35A     -0.528183    36A     -0.521199
      37A     -0.511009    38A     -0.504910    39A     -0.488216
      40A     -0.468619    41A     -0.430134    42A     -0.406887
      43A     -0.369630

  @DF-RHF Final Energy:  -819.49380863496674

   => Energetics <=

    Nuclear Repulsion Energy =            604.1860512220753208
    One-Electron Energy =               -2324.3620610640368795
    Two-Electron Energy =                 900.6822012069948187
    Total Energy =                       -819.4938086349667401
  Basis Set: (AUG-CC-PVTZ AUX)
    Blend: AUG-CC-PVTZ-RI
    Molecular point group: c1

    Geometry (in Angstrom), charge = 0, multiplicity = 1:

       Center              X                  Y                   Z               Mass
    ------------   -----------------  -----------------  -----------------  -----------------
         S            1.828967376714     0.704297450284    -0.336144286648    31.972071174400
         O           -1.845728123286    -0.928493349716    -0.802657886648    15.994914619570
         O            0.491653876714    -1.055498349716     1.112099113352    15.994914619570
         C           -0.842266923286     0.821265750284     0.487179313352    12.000000000000
         C           -3.385759123286     0.601845650284     0.234858113352    12.000000000000
         C           -2.012152123286     0.058458650284    -0.097578886648    12.000000000000
         C            0.430088876714     0.002394650284     0.505845113352    12.000000000000
         C           -4.514189123286    -0.273106349716    -0.287009886648    12.000000000000
         C            3.055114876714    -0.550277349716    -0.010782886648    12.000000000000
         C            4.440770876714    -0.040572349716    -0.376581886648    12.000000000000
         H           -0.696720123286     1.752257650284    -0.122757886648     1.007825032230
         H           -1.049933123286     1.156944650284     1.499128113352     1.007825032230
         H           -3.455321123286     0.729858650284     1.322915113352     1.007825032230
         H           -3.446779123286     1.617470650284    -0.185180886648     1.007825032230
         H           -5.484395123286     0.172093650284    -0.052643886648     1.007825032230
         H           -4.435203123286    -0.397230349716    -1.368660886648     1.007825032230
         H           -4.468675123286    -1.266973349716     0.164336113352     1.007825032230
         H            2.993943876714    -0.802363349716     1.047456113352     1.007825032230
         H            2.799994876714    -1.446692349716    -0.578525886648     1.007825032230
         H            4.498796876714     0.230853650284    -1.433629886648     1.007825032230
         H            4.706119876714     0.836032650284     0.218870113352     1.007825032230
         H            5.183646876714    -0.820214349716    -0.187246886648     1.007825032230

  Basis Set: AUG-CC-PVTZ
    Blend: AUG-CC-PVTZ
  Basis Set: (AUG-CC-PVTZ AUX)
    Blend: AUG-CC-PVTZ-JKFIT
	 Reference Energy          =    -819.4938086349667401 [Eh]
	 Singles Energy            =      -0.0000000000000000 [Eh]
	 Same-Spin Energy          =      -0.4843829816128813 [Eh]
	 Opposite-Spin Energy      =      -1.5709249658042073 [Eh]
	 Correlation Energy        =      -2.0553079474170888 [Eh]
	 Total Energy              =    -821.5491165823838173 [Eh]

	 ================> DF-SCS-MP2 Energies <==================
	-----------------------------------------------------------
	 SCS Same-Spin Scale       =       0.3333333333333333 [-]
	 SCS Opposite-Spin Scale   =       1.2000000000000000 [-]
	 SCS Same-Spin Energy      =      -0.1614609938709604 [Eh]
	 SCS Opposite-Spin Energy  =      -1.8851099589650486 [Eh]
	 SCS Correlation Energy    =      -2.0465709528360092 [Eh]
	 SCS Total Energy          =    -821.5403795878027040 [Eh]
	-----------------------------------------------------------

  Dipole Moment: [D]
     X:     0.0363      Y:     2.8358      Z:     0.7031     Total:     2.9219

*** Psi4 exiting successfully. Buy a developer a beer!
