                               Psi4 1.3.2 release

  ==> Input File <==

--------------------------------------------------------------------------
#psi4
#
memory 32 gb

molecule  {
0 1
  S        1.8142300     0.7226310    -0.3411240
  O       -1.8432130    -0.9348080    -0.8000930
  O        0.4941690    -1.0618130     1.1146640
  C       -0.8106372     0.8161324     0.4642105
  C       -3.3941338     0.5758254     0.2235867
  C       -2.0096370     0.0521440    -0.0950140
  C        0.4326040    -0.0039200     0.5084100
  C       -4.5116740    -0.2794210    -0.2844450
  C        3.0576300    -0.5565920    -0.0082180
  C        4.4432860    -0.0468870    -0.3740170
  H       -0.6942050     1.7459430    -0.1201930
  H       -1.0474180     1.1506300     1.5016930
  H       -3.4528060     0.7235440     1.3254800
  H       -3.4442640     1.6111560    -0.1826160
  H       -5.4818800     0.1657790    -0.0500790
  H       -4.4326880    -0.4035450    -1.3660960
  H       -4.4661600    -1.2732880     0.1669010
  H        2.9964590    -0.8086780     1.0500210
  H        2.8025100    -1.4530070    -0.5759610
  H        4.5013120     0.2245390    -1.4310650
  H        4.7086350     0.8297180     0.2214350
  H        5.1861620    -0.8265290    -0.1846820
units angstrom
no_reorient  #important for SAPT in psi4, default
symmetry c1  #important for SAPT in psi4, default
}

set PROPERTIES_ORIGIN ["COM"]
properties('MP2/aug-cc-pvtz', properties = ['dipole'])
--------------------------------------------------------------------------

    Molecular point group: c1
  Charge       = 0
  Multiplicity = 1
  Basis Set: AUG-CC-PVTZ
    Blend: AUG-CC-PVTZ
  Basis Set: (AUG-CC-PVTZ AUX)
    Blend: AUG-CC-PVTZ-JKFIT

    Orbital Energies [Eh]
    ---------------------

    Doubly Occupied:

       1A    -91.972128     2A    -20.554975     3A    -20.554011
       4A    -11.366811     5A    -11.345868     6A    -11.268367
       7A    -11.262595     8A    -11.252104     9A    -11.231617
      10A    -11.221749    11A     -8.973756    12A     -6.654910
      13A     -6.653778    14A     -6.653165    15A     -1.397804
      16A     -1.383855    17A     -1.094817    18A     -1.077703
      19A     -1.046996    20A     -0.972177    21A     -0.897381
      22A     -0.837577    23A     -0.761255    24A     -0.725891
      25A     -0.679078    26A     -0.667288    27A     -0.649931
      28A     -0.636891    29A     -0.633500    30A     -0.607756
      31A     -0.593048    32A     -0.559892    33A     -0.550171
      34A     -0.534772    35A     -0.527061    36A     -0.521150
      37A     -0.510728    38A     -0.502449    39A     -0.484967
      40A     -0.465456    41A     -0.429280    42A     -0.408397
      43A     -0.371185

  @DF-RHF Final Energy:  -819.49270744766727

   => Energetics <=

    Nuclear Repulsion Energy =            603.9501340677936696
    One-Electron Energy =               -2323.8970968744929451
    Two-Electron Energy =                 900.4542553590320040
    Total Energy =                       -819.4927074476672715
  Basis Set: (AUG-CC-PVTZ AUX)
    Blend: AUG-CC-PVTZ-RI
    Molecular point group: c1

    Geometry (in Angstrom), charge = 0, multiplicity = 1:

       Center              X                  Y                   Z               Mass
    ------------   -----------------  -----------------  -----------------  -----------------
         S            1.813794779825     0.725410868028    -0.339230088625    31.972071174400
         O           -1.843648220175    -0.932028131972    -0.798199088625    15.994914619570
         O            0.493733779825    -1.059033131972     1.116557911375    15.994914619570
         C           -0.811072420175     0.818912268028     0.466104411375    12.000000000000
         C           -3.394569020175     0.578605268028     0.225480611375    12.000000000000
         C           -2.010072220175     0.054923868028    -0.093120088625    12.000000000000
         C            0.432168779825    -0.001140131972     0.510303911375    12.000000000000
         C           -4.512109220175    -0.276641131972    -0.282551088625    12.000000000000
         C            3.057194779825    -0.553812131972    -0.006324088625    12.000000000000
         C            4.442850779825    -0.044107131972    -0.372123088625    12.000000000000
         H           -0.694640220175     1.748722868028    -0.118299088625     1.007825032230
         H           -1.047853220175     1.153409868028     1.503586911375     1.007825032230
         H           -3.453241220175     0.726323868028     1.327373911375     1.007825032230
         H           -3.444699220175     1.613935868028    -0.180722088625     1.007825032230
         H           -5.482315220175     0.168558868028    -0.048185088625     1.007825032230
         H           -4.433123220175    -0.400765131972    -1.364202088625     1.007825032230
         H           -4.466595220175    -1.270508131972     0.168794911375     1.007825032230
         H            2.996023779825    -0.805898131972     1.051914911375     1.007825032230
         H            2.802074779825    -1.450227131972    -0.574067088625     1.007825032230
         H            4.500876779825     0.227318868028    -1.429171088625     1.007825032230
         H            4.708199779825     0.832497868028     0.223328911375     1.007825032230
         H            5.185726779825    -0.823749131972    -0.182788088625     1.007825032230

  Basis Set: AUG-CC-PVTZ
    Blend: AUG-CC-PVTZ
  Basis Set: (AUG-CC-PVTZ AUX)
    Blend: AUG-CC-PVTZ-JKFIT
	 Reference Energy          =    -819.4927074476672715 [Eh]
	 Singles Energy            =      -0.0000000000000000 [Eh]
	 Same-Spin Energy          =      -0.4845684462345049 [Eh]
	 Opposite-Spin Energy      =      -1.5714207749959308 [Eh]
	 Correlation Energy        =      -2.0559892212304356 [Eh]
	 Total Energy              =    -821.5486966688977191 [Eh]

	 ================> DF-SCS-MP2 Energies <==================
	-----------------------------------------------------------
	 SCS Same-Spin Scale       =       0.3333333333333333 [-]
	 SCS Opposite-Spin Scale   =       1.2000000000000000 [-]
	 SCS Same-Spin Energy      =      -0.1615228154115016 [Eh]
	 SCS Opposite-Spin Energy  =      -1.8857049299951170 [Eh]
	 SCS Correlation Energy    =      -2.0472277454066186 [Eh]
	 SCS Total Energy          =    -821.5399351930739158 [Eh]
	-----------------------------------------------------------

  Dipole Moment: [D]
     X:    -0.0416      Y:     2.8447      Z:     0.6781     Total:     2.9247

*** Psi4 exiting successfully. Buy a developer a beer!
