                               Psi4 1.3.2 release

  ==> Input File <==

--------------------------------------------------------------------------
#psi4
#
memory 32 gb

molecule  {
0 1
  S        1.8142300     0.7226310    -0.3411240
  O       -1.8432130    -0.9348080    -0.8000930
  O        0.4941690    -1.0618130     1.1146640
  C       -0.8273310     0.8335030     0.4756360
  C       -3.3832440     0.5955310     0.2374230
  C       -2.0039068     0.0748092    -0.1073345
  C        0.4326040    -0.0039200     0.5084100
  C       -4.5116740    -0.2794210    -0.2844450
  C        3.0576300    -0.5565920    -0.0082180
  C        4.4432860    -0.0468870    -0.3740170
  H       -0.6942050     1.7459430    -0.1201930
  H       -1.0474180     1.1506300     1.5016930
  H       -3.4528060     0.7235440     1.3254800
  H       -3.4263315     1.6093057    -0.1892555
  H       -5.4818800     0.1657790    -0.0500790
  H       -4.4326880    -0.4035450    -1.3660960
  H       -4.4661600    -1.2732880     0.1669010
  H        2.9964590    -0.8086780     1.0500210
  H        2.8025100    -1.4530070    -0.5759610
  H        4.5013120     0.2245390    -1.4310650
  H        4.7086350     0.8297180     0.2214350
  H        5.1861620    -0.8265290    -0.1846820
units angstrom
no_reorient  #important for SAPT in psi4, default
symmetry c1  #important for SAPT in psi4, default
}

set PROPERTIES_ORIGIN ["COM"]
properties('MP2/aug-cc-pvtz', properties = ['dipole'])
--------------------------------------------------------------------------

    Molecular point group: c1
  Charge       = 0
  Multiplicity = 1
  Basis Set: AUG-CC-PVTZ
    Blend: AUG-CC-PVTZ
  Basis Set: (AUG-CC-PVTZ AUX)
    Blend: AUG-CC-PVTZ-JKFIT

    Orbital Energies [Eh]
    ---------------------

    Doubly Occupied:

       1A    -91.972526     2A    -20.555562     3A    -20.554306
       4A    -11.368113     5A    -11.346502     6A    -11.267626
       7A    -11.262866     8A    -11.250311     9A    -11.231826
      10A    -11.222457    11A     -8.974128    12A     -6.655280
      13A     -6.654152    14A     -6.653538    15A     -1.395935
      16A     -1.378332    17A     -1.094901    18A     -1.078032
      19A     -1.043460    20A     -0.972916    21A     -0.897036
      22A     -0.838271    23A     -0.761042    24A     -0.726564
      25A     -0.676895    26A     -0.668939    27A     -0.648313
      28A     -0.638032    29A     -0.633913    30A     -0.606036
      31A     -0.595430    32A     -0.560043    33A     -0.546340
      34A     -0.532866    35A     -0.527069    36A     -0.520330
      37A     -0.511216    38A     -0.505073    39A     -0.485386
      40A     -0.465494    41A     -0.430126    42A     -0.407391
      43A     -0.371449

  @DF-RHF Final Energy:  -819.49287534270377

   => Energetics <=

    Nuclear Repulsion Energy =            603.3942891190753244
    One-Electron Energy =               -2322.8022842121072244
    Two-Electron Energy =                 899.9151197503280173
    Total Energy =                       -819.4928753427037691
  Basis Set: (AUG-CC-PVTZ AUX)
    Blend: AUG-CC-PVTZ-RI
    Molecular point group: c1

    Geometry (in Angstrom), charge = 0, multiplicity = 1:

       Center              X                  Y                   Z               Mass
    ------------   -----------------  -----------------  -----------------  -----------------
         S            1.813687397135     0.720943475920    -0.340158540734    31.972071174400
         O           -1.843755602865    -0.936495524080    -0.799127540734    15.994914619570
         O            0.493626397135    -1.063500524080     1.115629459266    15.994914619570
         C           -0.827873602865     0.831815475920     0.476601459266    12.000000000000
         C           -3.383786602865     0.593843475920     0.238388459266    12.000000000000
         C           -2.004449402865     0.073121675920    -0.106369040734    12.000000000000
         C            0.432061397135    -0.005607524080     0.509375459266    12.000000000000
         C           -4.512216602865    -0.281108524080    -0.283479540734    12.000000000000
         C            3.057087397135    -0.558279524080    -0.007252540734    12.000000000000
         C            4.442743397135    -0.048574524080    -0.373051540734    12.000000000000
         H           -0.694747602865     1.744255475920    -0.119227540734     1.007825032230
         H           -1.047960602865     1.148942475920     1.502658459266     1.007825032230
         H           -3.453348602865     0.721856475920     1.326445459266     1.007825032230
         H           -3.426874102865     1.607618175920    -0.188290040734     1.007825032230
         H           -5.482422602865     0.164091475920    -0.049113540734     1.007825032230
         H           -4.433230602865    -0.405232524080    -1.365130540734     1.007825032230
         H           -4.466702602865    -1.274975524080     0.167866459266     1.007825032230
         H            2.995916397135    -0.810365524080     1.050986459266     1.007825032230
         H            2.801967397135    -1.454694524080    -0.574995540734     1.007825032230
         H            4.500769397135     0.222851475920    -1.430099540734     1.007825032230
         H            4.708092397135     0.828030475920     0.222400459266     1.007825032230
         H            5.185619397135    -0.828216524080    -0.183716540734     1.007825032230

  Basis Set: AUG-CC-PVTZ
    Blend: AUG-CC-PVTZ
  Basis Set: (AUG-CC-PVTZ AUX)
    Blend: AUG-CC-PVTZ-JKFIT
	 Reference Energy          =    -819.4928753427037691 [Eh]
	 Singles Energy            =      -0.0000000000000000 [Eh]
	 Same-Spin Energy          =      -0.4845651467071039 [Eh]
	 Opposite-Spin Energy      =      -1.5717972498292401 [Eh]
	 Correlation Energy        =      -2.0563623965363438 [Eh]
	 Total Energy              =    -821.5492377392400840 [Eh]

	 ================> DF-SCS-MP2 Energies <==================
	-----------------------------------------------------------
	 SCS Same-Spin Scale       =       0.3333333333333333 [-]
	 SCS Opposite-Spin Scale   =       1.2000000000000000 [-]
	 SCS Same-Spin Energy      =      -0.1615217155690346 [Eh]
	 SCS Opposite-Spin Energy  =      -1.8861566997950880 [Eh]
	 SCS Correlation Energy    =      -2.0476784153641225 [Eh]
	 SCS Total Energy          =    -821.5405537580678583 [Eh]
	-----------------------------------------------------------

  Dipole Moment: [D]
     X:     0.0504      Y:     2.8680      Z:     0.7019     Total:     2.9530

*** Psi4 exiting successfully. Buy a developer a beer!
