                               Psi4 1.3.2 release

  ==> Input File <==

--------------------------------------------------------------------------
#psi4
#
memory 32 gb

molecule  {
0 1
  S        1.8142300     0.7226310    -0.3411240
  O       -1.8432130    -0.9348080    -0.8000930
  O        0.4941690    -1.0618130     1.1146640
  C       -0.8273310     0.8335030     0.4756360
  C       -3.3832440     0.5955310     0.2374230
  C       -2.0096370     0.0521440    -0.0950140
  C        0.4238114     0.0081834     0.5043201
  C       -4.5116740    -0.2794210    -0.2844450
  C        3.0683257    -0.5482158    -0.0163567
  C        4.4432860    -0.0468870    -0.3740170
  H       -0.6942050     1.7459430    -0.1201930
  H       -1.0474180     1.1506300     1.5016930
  H       -3.4528060     0.7235440     1.3254800
  H       -3.4442640     1.6111560    -0.1826160
  H       -5.4818800     0.1657790    -0.0500790
  H       -4.4326880    -0.4035450    -1.3660960
  H       -4.4661600    -1.2732880     0.1669010
  H        2.9964590    -0.8086780     1.0500210
  H        2.8025100    -1.4530070    -0.5759610
  H        4.5013120     0.2245390    -1.4310650
  H        4.7086350     0.8297180     0.2214350
  H        5.1861620    -0.8265290    -0.1846820
units angstrom
no_reorient  #important for SAPT in psi4, default
symmetry c1  #important for SAPT in psi4, default
}

set PROPERTIES_ORIGIN ["COM"]
properties('MP2/aug-cc-pvtz', properties = ['dipole'])
--------------------------------------------------------------------------

    Molecular point group: c1
  Charge       = 0
  Multiplicity = 1
  Basis Set: AUG-CC-PVTZ
    Blend: AUG-CC-PVTZ
  Basis Set: (AUG-CC-PVTZ AUX)
    Blend: AUG-CC-PVTZ-JKFIT

    Orbital Energies [Eh]
    ---------------------

    Doubly Occupied:

       1A    -91.972662     2A    -20.556105     3A    -20.553681
       4A    -11.368578     5A    -11.346869     6A    -11.267441
       7A    -11.263506     8A    -11.250381     9A    -11.231297
      10A    -11.222608    11A     -8.974210    12A     -6.655360
      13A     -6.654268    14A     -6.653653    15A     -1.393577
      16A     -1.379252    17A     -1.095608    18A     -1.078594
      19A     -1.045151    20A     -0.973571    21A     -0.897266
      22A     -0.836750    23A     -0.761069    24A     -0.726967
      25A     -0.678678    26A     -0.668895    27A     -0.647017
      28A     -0.636768    29A     -0.633569    30A     -0.608557
      31A     -0.595543    32A     -0.559068    33A     -0.545910
      34A     -0.531804    35A     -0.529924    36A     -0.520874
      37A     -0.511470    38A     -0.501623    39A     -0.488496
      40A     -0.464519    41A     -0.429894    42A     -0.407740
      43A     -0.370309

  @DF-RHF Final Energy:  -819.49251293724933

   => Energetics <=

    Nuclear Repulsion Energy =            603.3773579826900004
    One-Electron Energy =               -2322.7615775939520972
    Two-Electron Energy =                 899.8917066740127666
    Total Energy =                       -819.4925129372493302
  Basis Set: (AUG-CC-PVTZ AUX)
    Blend: AUG-CC-PVTZ-RI
    Molecular point group: c1

    Geometry (in Angstrom), charge = 0, multiplicity = 1:

       Center              X                  Y                   Z               Mass
    ------------   -----------------  -----------------  -----------------  -----------------
         S            1.814087245326     0.721095687968    -0.340207237840    31.972071174400
         O           -1.843355754674    -0.936343312032    -0.799176237840    15.994914619570
         O            0.494026245326    -1.063348312032     1.115580762160    15.994914619570
         C           -0.827473754674     0.831967687968     0.476552762160    12.000000000000
         C           -3.383386754674     0.593995687968     0.238339762160    12.000000000000
         C           -2.009779754674     0.050608687968    -0.094097237840    12.000000000000
         C            0.423668645326     0.006648087968     0.505236862160    12.000000000000
         C           -4.511816754674    -0.280956312032    -0.283528237840    12.000000000000
         C            3.068182945326    -0.549751112032    -0.015439937840    12.000000000000
         C            4.443143245326    -0.048422312032    -0.373100237840    12.000000000000
         H           -0.694347754674     1.744407687968    -0.119276237840     1.007825032230
         H           -1.047560754674     1.149094687968     1.502609762160     1.007825032230
         H           -3.452948754674     0.722008687968     1.326396762160     1.007825032230
         H           -3.444406754674     1.609620687968    -0.181699237840     1.007825032230
         H           -5.482022754674     0.164243687968    -0.049162237840     1.007825032230
         H           -4.432830754674    -0.405080312032    -1.365179237840     1.007825032230
         H           -4.466302754674    -1.274823312032     0.167817762160     1.007825032230
         H            2.996316245326    -0.810213312032     1.050937762160     1.007825032230
         H            2.802367245326    -1.454542312032    -0.575044237840     1.007825032230
         H            4.501169245326     0.223003687968    -1.430148237840     1.007825032230
         H            4.708492245326     0.828182687968     0.222351762160     1.007825032230
         H            5.186019245326    -0.828064312032    -0.183765237840     1.007825032230

  Basis Set: AUG-CC-PVTZ
    Blend: AUG-CC-PVTZ
  Basis Set: (AUG-CC-PVTZ AUX)
    Blend: AUG-CC-PVTZ-JKFIT
	 Reference Energy          =    -819.4925129372493302 [Eh]
	 Singles Energy            =      -0.0000000000000000 [Eh]
	 Same-Spin Energy          =      -0.4847331538852732 [Eh]
	 Opposite-Spin Energy      =      -1.5719398251879091 [Eh]
	 Correlation Energy        =      -2.0566729790731824 [Eh]
	 Total Energy              =    -821.5491859163224717 [Eh]

	 ================> DF-SCS-MP2 Energies <==================
	-----------------------------------------------------------
	 SCS Same-Spin Scale       =       0.3333333333333333 [-]
	 SCS Opposite-Spin Scale   =       1.2000000000000000 [-]
	 SCS Same-Spin Energy      =      -0.1615777179617577 [Eh]
	 SCS Opposite-Spin Energy  =      -1.8863277902254909 [Eh]
	 SCS Correlation Energy    =      -2.0479055081872488 [Eh]
	 SCS Total Energy          =    -821.5404184454365577 [Eh]
	-----------------------------------------------------------

  Dipole Moment: [D]
     X:    -0.0161      Y:     2.8704      Z:     0.6589     Total:     2.9451

*** Psi4 exiting successfully. Buy a developer a beer!
