                               Psi4 1.4a3.dev225

  ==> Input File <==

--------------------------------------------------------------------------
#psi4
#
memory 32 gb

molecule  {
0 1
  S        1.5586770    -0.2994370    -0.7152220
  O       -1.5255240    -0.4876820     1.0921970
  O        0.7924220     1.7006740     0.8461850
  C       -0.8878030     0.9736540    -0.7120840
  C       -3.2304390    -0.0998550    -0.5631210
  C       -1.8668747     0.0519629     0.0580176
  C        0.4791140     0.9485020    -0.0654040
  C       -4.1634610    -0.9398430     0.2972900
  C        2.9497330    -0.0790050     0.4324980
  C        4.0540790    -1.0751370     0.1033520
  H       -0.8484610     0.6756560    -1.7668750
  H       -1.2645150     2.0025910    -0.6674260
  H       -3.6447290     0.9013370    -0.7419330
  H       -3.1015980    -0.5455960    -1.5588690
  H       -5.1413450    -1.0357370    -0.1813640
  H       -3.7504260    -1.9381500     0.4523140
  H       -4.2995020    -0.4825820     1.2793320
  H        3.3022180     0.9509290     0.3487650
  H        2.5726230    -0.2199470     1.4475820
  H        3.7004310    -2.1050230     0.1947960
  H        4.4320470    -0.9299840    -0.9117720
  H        4.8873260    -0.9394890     0.7982930
units angstrom
no_reorient  #important for SAPT in psi4, default
symmetry c1  #important for SAPT in psi4, default
}

set PROPERTIES_ORIGIN ["COM"]
properties('MP2/aug-cc-pvtz', properties = ['dipole'])
--------------------------------------------------------------------------

    Molecular point group: c1
  Charge       = 0
  Multiplicity = 1
  Basis Set: AUG-CC-PVTZ
    Blend: AUG-CC-PVTZ
  Basis Set: (AUG-CC-PVTZ AUX)
    Blend: AUG-CC-PVTZ-JKFIT

    Orbital Energies [Eh]
    ---------------------

    Doubly Occupied:

       1A    -91.967772     2A    -20.560376     3A    -20.554151
       4A    -11.364392     5A    -11.349544     6A    -11.265078
       7A    -11.261126     8A    -11.252480     9A    -11.229741
      10A    -11.225071    11A     -8.969565    12A     -6.650758
      13A     -6.649616    14A     -6.648979    15A     -1.401611
      16A     -1.387271    17A     -1.091846    18A     -1.077207
      19A     -1.042150    20A     -0.968438    21A     -0.898574
      22A     -0.835305    23A     -0.759597    24A     -0.726263
      25A     -0.679626    26A     -0.668891    27A     -0.648905
      28A     -0.637428    29A     -0.632217    30A     -0.613337
      31A     -0.589728    32A     -0.559461    33A     -0.545965
      34A     -0.531510    35A     -0.527011    36A     -0.523069
      37A     -0.513818    38A     -0.504169    39A     -0.497007
      40A     -0.462143    41A     -0.430820    42A     -0.405559
      43A     -0.367555

  @DF-RHF Final Energy:  -819.49643088938558

   => Energetics <=

    Nuclear Repulsion Energy =            610.2049286455851416
    One-Electron Energy =               -2336.4524694124006601
    Two-Electron Energy =                 906.7511098774299398
    Total Energy =                       -819.4964308893855787
  Basis Set: (AUG-CC-PVTZ AUX)
    Blend: AUG-CC-PVTZ-RI
    Molecular point group: c1

    Geometry (in Angstrom), charge = 0, multiplicity = 1:

       Center              X                  Y                   Z               Mass
    ------------   -----------------  -----------------  -----------------  -----------------
         S            1.540309771771    -0.321284053662    -0.724133414318    31.972071174400
         O           -1.543891228229    -0.509529053662     1.083285585682    15.994914619570
         O            0.774054771771     1.678826946338     0.837273585682    15.994914619570
         C           -0.906170228229     0.951806946338    -0.720995414318    12.000000000000
         C           -3.248806228229    -0.121702053662    -0.572032414318    12.000000000000
         C           -1.885241928229     0.030115846338     0.049106185682    12.000000000000
         C            0.460746771771     0.926654946338    -0.074315414318    12.000000000000
         C           -4.181828228229    -0.961690053662     0.288378585682    12.000000000000
         C            2.931365771771    -0.100852053662     0.423586585682    12.000000000000
         C            4.035711771771    -1.096984053662     0.094440585682    12.000000000000
         H           -0.866828228229     0.653808946338    -1.775786414318     1.007825032230
         H           -1.282882228229     1.980743946338    -0.676337414318     1.007825032230
         H           -3.663096228229     0.879489946338    -0.750844414318     1.007825032230
         H           -3.119965228229    -0.567443053662    -1.567780414318     1.007825032230
         H           -5.159712228229    -1.057584053662    -0.190275414318     1.007825032230
         H           -3.768793228229    -1.959997053662     0.443402585682     1.007825032230
         H           -4.317869228229    -0.504429053662     1.270420585682     1.007825032230
         H            3.283850771771     0.929081946338     0.339853585682     1.007825032230
         H            2.554255771771    -0.241794053662     1.438670585682     1.007825032230
         H            3.682063771771    -2.126870053662     0.185884585682     1.007825032230
         H            4.413679771771    -0.951831053662    -0.920683414318     1.007825032230
         H            4.868958771771    -0.961336053662     0.789381585682     1.007825032230

  Basis Set: AUG-CC-PVTZ
    Blend: AUG-CC-PVTZ
  Basis Set: (AUG-CC-PVTZ AUX)
    Blend: AUG-CC-PVTZ-JKFIT
	 Reference Energy          =    -819.4964308893855787 [Eh]
	 Singles Energy            =      -0.0000000000000000 [Eh]
	 Same-Spin Energy          =      -0.4842759483632535 [Eh]
	 Opposite-Spin Energy      =      -1.5707691352477435 [Eh]
	 Correlation Energy        =      -2.0550450836109970 [Eh]
	 Total Energy              =    -821.5514759729966272 [Eh]

	 ================> DF-SCS-MP2 Energies <==================
	-----------------------------------------------------------
	 SCS Same-Spin Scale       =       0.3333333333333333 [-]
	 SCS Opposite-Spin Scale   =       1.2000000000000000 [-]
	 SCS Same-Spin Energy      =      -0.1614253161210845 [Eh]
	 SCS Opposite-Spin Energy  =      -1.8849229622972921 [Eh]
	 SCS Correlation Energy    =      -2.0463482784183764 [Eh]
	 SCS Total Energy          =    -821.5427791678039284 [Eh]
	-----------------------------------------------------------

  Dipole Moment: [D]
     X:    -0.8526      Y:    -0.2686      Z:    -2.6518     Total:     2.7985

*** Psi4 exiting successfully. Buy a developer a beer!
