                               Psi4 1.3.2 release

  ==> Input File <==

--------------------------------------------------------------------------
#psi4
#
memory 32 gb

molecule  {
0 1
  S        1.8142300     0.7226310    -0.3411240
  O       -1.8432130    -0.9348080    -0.8000930
  O        0.4941690    -1.0618130     1.1146640
  C       -0.8273310     0.8335030     0.4756360
  C       -3.3832440     0.5955310     0.2374230
  C       -2.0096370     0.0521440    -0.0950140
  C        0.4326040    -0.0039200     0.5084100
  C       -4.5116740    -0.2794210    -0.2844450
  C        3.0576300    -0.5565920    -0.0082180
  C        4.4432860    -0.0468870    -0.3740170
  H       -0.6942050     1.7459430    -0.1201930
  H       -1.0474180     1.1506300     1.5016930
  H       -3.4591427     0.7352052     1.4245954
  H       -3.4442640     1.6111560    -0.1826160
  H       -5.4818800     0.1657790    -0.0500790
  H       -4.4326880    -0.4035450    -1.3660960
  H       -4.4661600    -1.2732880     0.1669010
  H        2.9964590    -0.8086780     1.0500210
  H        2.8025100    -1.4530070    -0.5759610
  H        4.5013120     0.2245390    -1.4310650
  H        4.7086350     0.8297180     0.2214350
  H        5.1861620    -0.8265290    -0.1846820
units angstrom
no_reorient  #important for SAPT in psi4, default
symmetry c1  #important for SAPT in psi4, default
}

set PROPERTIES_ORIGIN ["COM"]
properties('MP2/aug-cc-pvtz', properties = ['dipole'])
--------------------------------------------------------------------------

    Molecular point group: c1
  Charge       = 0
  Multiplicity = 1
  Basis Set: AUG-CC-PVTZ
    Blend: AUG-CC-PVTZ
  Basis Set: (AUG-CC-PVTZ AUX)
    Blend: AUG-CC-PVTZ-JKFIT

    Orbital Energies [Eh]
    ---------------------

    Doubly Occupied:

       1A    -91.972056     2A    -20.556398     3A    -20.555022
       4A    -11.367368     5A    -11.347078     6A    -11.266604
       7A    -11.262573     8A    -11.261535     9A    -11.231601
      10A    -11.223464    11A     -8.973669    12A     -6.654822
      13A     -6.653693    14A     -6.653079    15A     -1.397602
      16A     -1.384440    17A     -1.093502    18A     -1.075105
      19A     -1.041108    20A     -0.972123    21A     -0.894847
      22A     -0.837013    23A     -0.757003    24A     -0.726329
      25A     -0.676114    26A     -0.668065    27A     -0.648189
      28A     -0.635438    29A     -0.630032    30A     -0.608425
      31A     -0.594159    32A     -0.559751    33A     -0.546559
      34A     -0.533682    35A     -0.527168    36A     -0.520036
      37A     -0.509872    38A     -0.502988    39A     -0.484854
      40A     -0.465206    41A     -0.430102    42A     -0.406636
      43A     -0.371091

  @DF-RHF Final Energy:  -819.48822334319391

   => Energetics <=

    Nuclear Repulsion Energy =            602.9953064118197972
    One-Electron Energy =               -2322.0142570475140928
    Two-Electron Energy =                 899.5307272925002735
    Total Energy =                       -819.4882233431939085
  Basis Set: (AUG-CC-PVTZ AUX)
    Blend: AUG-CC-PVTZ-RI
    Molecular point group: c1

    Geometry (in Angstrom), charge = 0, multiplicity = 1:

       Center              X                  Y                   Z               Mass
    ------------   -----------------  -----------------  -----------------  -----------------
         S            1.814269828430     0.722557695278    -0.341748164066    31.972071174400
         O           -1.843173171570    -0.934881304722    -0.800717164066    15.994914619570
         O            0.494208828430    -1.061886304722     1.114039835934    15.994914619570
         C           -0.827291171570     0.833429695278     0.475011835934    12.000000000000
         C           -3.383204171570     0.595457695278     0.236798835934    12.000000000000
         C           -2.009597171570     0.052070695278    -0.095638164066    12.000000000000
         C            0.432643828430    -0.003993304722     0.507785835934    12.000000000000
         C           -4.511634171570    -0.279494304722    -0.285069164066    12.000000000000
         C            3.057669828430    -0.556665304722    -0.008842164066    12.000000000000
         C            4.443325828430    -0.046960304722    -0.374641164066    12.000000000000
         H           -0.694165171570     1.745869695278    -0.120817164066     1.007825032230
         H           -1.047378171570     1.150556695278     1.501068835934     1.007825032230
         H           -3.459102871570     0.735131895278     1.423971235934     1.007825032230
         H           -3.444224171570     1.611082695278    -0.183240164066     1.007825032230
         H           -5.481840171570     0.165705695278    -0.050703164066     1.007825032230
         H           -4.432648171570    -0.403618304722    -1.366720164066     1.007825032230
         H           -4.466120171570    -1.273361304722     0.166276835934     1.007825032230
         H            2.996498828430    -0.808751304722     1.049396835934     1.007825032230
         H            2.802549828430    -1.453080304722    -0.576585164066     1.007825032230
         H            4.501351828430     0.224465695278    -1.431689164066     1.007825032230
         H            4.708674828430     0.829644695278     0.220810835934     1.007825032230
         H            5.186201828430    -0.826602304722    -0.185306164066     1.007825032230

  Basis Set: AUG-CC-PVTZ
    Blend: AUG-CC-PVTZ
  Basis Set: (AUG-CC-PVTZ AUX)
    Blend: AUG-CC-PVTZ-JKFIT
	 Reference Energy          =    -819.4882233431939085 [Eh]
	 Singles Energy            =      -0.0000000000000000 [Eh]
	 Same-Spin Energy          =      -0.4842661184474814 [Eh]
	 Opposite-Spin Energy      =      -1.5718133275704012 [Eh]
	 Correlation Energy        =      -2.0560794460178826 [Eh]
	 Total Energy              =    -821.5443027892117698 [Eh]

	 ================> DF-SCS-MP2 Energies <==================
	-----------------------------------------------------------
	 SCS Same-Spin Scale       =       0.3333333333333333 [-]
	 SCS Opposite-Spin Scale   =       1.2000000000000000 [-]
	 SCS Same-Spin Energy      =      -0.1614220394824938 [Eh]
	 SCS Opposite-Spin Energy  =      -1.8861759930844813 [Eh]
	 SCS Correlation Energy    =      -2.0475980325669751 [Eh]
	 SCS Total Energy          =    -821.5358213757608610 [Eh]
	-----------------------------------------------------------

  Dipole Moment: [D]
     X:    -0.0161      Y:     2.8129      Z:     0.6353     Total:     2.8838

*** Psi4 exiting successfully. Buy a developer a beer!
