                               Psi4 1.3.2 release

  ==> Input File <==

--------------------------------------------------------------------------
#psi4
#
memory 32 gb

molecule  {
0 1
  S        1.8142300     0.7226310    -0.3411240
  O       -1.8432130    -0.9348080    -0.8000930
  O        0.4941690    -1.0618130     1.1146640
  C       -0.8273310     0.8335030     0.4756360
  C       -3.3832440     0.5955310     0.2374230
  C       -2.0550597     0.1170878    -0.0842231
  C        0.4706174     0.0582374     0.5395161
  C       -4.5116740    -0.2794210    -0.2844450
  C        3.0576300    -0.5565920    -0.0082180
  C        4.4432860    -0.0468870    -0.3740170
  H       -0.6942050     1.7459430    -0.1201930
  H       -1.0474180     1.1506300     1.5016930
  H       -3.4528060     0.7235440     1.3254800
  H       -3.4442640     1.6111560    -0.1826160
  H       -5.4818800     0.1657790    -0.0500790
  H       -4.4326880    -0.4035450    -1.3660960
  H       -4.4661600    -1.2732880     0.1669010
  H        2.9964590    -0.8086780     1.0500210
  H        2.8025100    -1.4530070    -0.5759610
  H        4.5013120     0.2245390    -1.4310650
  H        4.7086350     0.8297180     0.2214350
  H        5.1861620    -0.8265290    -0.1846820
units angstrom
no_reorient  #important for SAPT in psi4, default
symmetry c1  #important for SAPT in psi4, default
}

set PROPERTIES_ORIGIN ["COM"]
properties('MP2/aug-cc-pvtz', properties = ['dipole'])
--------------------------------------------------------------------------

    Molecular point group: c1
  Charge       = 0
  Multiplicity = 1
  Basis Set: AUG-CC-PVTZ
    Blend: AUG-CC-PVTZ
  Basis Set: (AUG-CC-PVTZ AUX)
    Blend: AUG-CC-PVTZ-JKFIT

    Orbital Energies [Eh]
    ---------------------

    Doubly Occupied:

       1A    -91.978293     2A    -20.548350     3A    -20.548218
       4A    -11.368850     5A    -11.350718     6A    -11.269342
       7A    -11.265313     8A    -11.252429     9A    -11.233587
      10A    -11.224925    11A     -8.980325    12A     -6.661546
      13A     -6.660330    14A     -6.659758    15A     -1.366084
      16A     -1.342664    17A     -1.099902    18A     -1.087038
      19A     -1.046144    20A     -0.979837    21A     -0.908035
      22A     -0.843213    23A     -0.762746    24A     -0.721556
      25A     -0.671962    26A     -0.667444    27A     -0.645036
      28A     -0.636655    29A     -0.632924    30A     -0.593966
      31A     -0.591709    32A     -0.556852    33A     -0.547019
      34A     -0.530415    35A     -0.524845    36A     -0.518567
      37A     -0.511473    38A     -0.497588    39A     -0.467721
      40A     -0.462429    41A     -0.430308    42A     -0.415540
      43A     -0.373649

  @DF-RHF Final Energy:  -819.46979222445918

   => Energetics <=

    Nuclear Repulsion Energy =            602.4214900106404684
    One-Electron Energy =               -2320.9119499098842425
    Two-Electron Energy =                 899.0206676747847041
    Total Energy =                       -819.4697922244591837
  Basis Set: (AUG-CC-PVTZ AUX)
    Blend: AUG-CC-PVTZ-RI
    Molecular point group: c1

    Geometry (in Angstrom), charge = 0, multiplicity = 1:

       Center              X                  Y                   Z               Mass
    ------------   -----------------  -----------------  -----------------  -----------------
         S            1.814785431830     0.713101855857    -0.344265242590    31.972071174400
         O           -1.842657568170    -0.944337144143    -0.803234242590    15.994914619570
         O            0.494724431830    -1.071342144143     1.111522757410    15.994914619570
         C           -0.826775568170     0.823973855857     0.472494757410    12.000000000000
         C           -3.382688568170     0.586001855857     0.234281757410    12.000000000000
         C           -2.054504268170     0.107558655857    -0.087364342590    12.000000000000
         C            0.471172831830     0.048708255857     0.536374857410    12.000000000000
         C           -4.511118568170    -0.288950144143    -0.287586242590    12.000000000000
         C            3.058185431830    -0.566121144143    -0.011359242590    12.000000000000
         C            4.443841431830    -0.056416144143    -0.377158242590    12.000000000000
         H           -0.693649568170     1.736413855857    -0.123334242590     1.007825032230
         H           -1.046862568170     1.141100855857     1.498551757410     1.007825032230
         H           -3.452250568170     0.714014855857     1.322338757410     1.007825032230
         H           -3.443708568170     1.601626855857    -0.185757242590     1.007825032230
         H           -5.481324568170     0.156249855857    -0.053220242590     1.007825032230
         H           -4.432132568170    -0.413074144143    -1.369237242590     1.007825032230
         H           -4.465604568170    -1.282817144143     0.163759757410     1.007825032230
         H            2.997014431830    -0.818207144143     1.046879757410     1.007825032230
         H            2.803065431830    -1.462536144143    -0.579102242590     1.007825032230
         H            4.501867431830     0.215009855857    -1.434206242590     1.007825032230
         H            4.709190431830     0.820188855857     0.218293757410     1.007825032230
         H            5.186717431830    -0.836058144143    -0.187823242590     1.007825032230

  Basis Set: AUG-CC-PVTZ
    Blend: AUG-CC-PVTZ
  Basis Set: (AUG-CC-PVTZ AUX)
    Blend: AUG-CC-PVTZ-JKFIT
	 Reference Energy          =    -819.4697922244591837 [Eh]
	 Singles Energy            =      -0.0000000000000000 [Eh]
	 Same-Spin Energy          =      -0.4877833789726935 [Eh]
	 Opposite-Spin Energy      =      -1.5783438756349832 [Eh]
	 Correlation Energy        =      -2.0661272546076770 [Eh]
	 Total Energy              =    -821.5359194790668198 [Eh]

	 ================> DF-SCS-MP2 Energies <==================
	-----------------------------------------------------------
	 SCS Same-Spin Scale       =       0.3333333333333333 [-]
	 SCS Opposite-Spin Scale   =       1.2000000000000000 [-]
	 SCS Same-Spin Energy      =      -0.1625944596575645 [Eh]
	 SCS Opposite-Spin Energy  =      -1.8940126507619799 [Eh]
	 SCS Correlation Energy    =      -2.0566071104195442 [Eh]
	 SCS Total Energy          =    -821.5263993348787608 [Eh]
	-----------------------------------------------------------

  Dipole Moment: [D]
     X:     0.1022      Y:     3.1438      Z:     0.6238     Total:     3.2067

*** Psi4 exiting successfully. Buy a developer a beer!
