                               Psi4 1.3.2 release

  ==> Input File <==

--------------------------------------------------------------------------
#psi4
#
memory 32 gb

molecule  {
0 1
  S        1.8142300     0.7226310    -0.3411240
  O       -1.8856184    -0.9380462    -0.8042745
  O        0.4941690    -1.0618130     1.1146640
  C       -0.8273310     0.8335030     0.4756360
  C       -3.4045605     0.5567616     0.2085146
  C       -2.0096370     0.0521440    -0.0950140
  C        0.4326040    -0.0039200     0.5084100
  C       -4.5116740    -0.2794210    -0.2844450
  C        3.0576300    -0.5565920    -0.0082180
  C        4.4432860    -0.0468870    -0.3740170
  H       -0.6942050     1.7459430    -0.1201930
  H       -1.0474180     1.1506300     1.5016930
  H       -3.4528060     0.7235440     1.3254800
  H       -3.4442640     1.6111560    -0.1826160
  H       -5.4818800     0.1657790    -0.0500790
  H       -4.4326880    -0.4035450    -1.3660960
  H       -4.4661600    -1.2732880     0.1669010
  H        2.9964590    -0.8086780     1.0500210
  H        2.8025100    -1.4530070    -0.5759610
  H        4.5013120     0.2245390    -1.4310650
  H        4.7086350     0.8297180     0.2214350
  H        5.1861620    -0.8265290    -0.1846820
units angstrom
no_reorient  #important for SAPT in psi4, default
symmetry c1  #important for SAPT in psi4, default
}

set PROPERTIES_ORIGIN ["COM"]
properties('MP2/aug-cc-pvtz', properties = ['dipole'])
--------------------------------------------------------------------------

    Molecular point group: c1
  Charge       = 0
  Multiplicity = 1
  Basis Set: AUG-CC-PVTZ
    Blend: AUG-CC-PVTZ
  Basis Set: (AUG-CC-PVTZ AUX)
    Blend: AUG-CC-PVTZ-JKFIT

    Orbital Energies [Eh]
    ---------------------

    Doubly Occupied:

       1A    -91.973382     2A    -20.556739     3A    -20.553556
       4A    -11.369192     5A    -11.345409     6A    -11.270223
       7A    -11.263549     8A    -11.250723     9A    -11.232335
      10A    -11.218795    11A     -8.974980    12A     -6.656132
      13A     -6.655003    14A     -6.654389    15A     -1.398014
      16A     -1.384426    17A     -1.094977    18A     -1.078353
      19A     -1.047750    20A     -0.973658    21A     -0.895357
      22A     -0.838048    23A     -0.757782    24A     -0.727133
      25A     -0.678758    26A     -0.668740    27A     -0.649716
      28A     -0.636868    29A     -0.632488    30A     -0.608327
      31A     -0.596445    32A     -0.560761    33A     -0.554307
      34A     -0.536403    35A     -0.527745    36A     -0.519073
      37A     -0.511291    38A     -0.502748    39A     -0.480272
      40A     -0.466344    41A     -0.429303    42A     -0.407500
      43A     -0.372290

  @DF-RHF Final Energy:  -819.49053225959165

   => Energetics <=

    Nuclear Repulsion Energy =            603.3745057295733432
    One-Electron Energy =               -2322.7115082308469027
    Two-Electron Energy =                 899.8464702416820273
    Total Energy =                       -819.4905322595916459
  Basis Set: (AUG-CC-PVTZ AUX)
    Blend: AUG-CC-PVTZ-RI
    Molecular point group: c1

    Geometry (in Angstrom), charge = 0, multiplicity = 1:

       Center              X                  Y                   Z               Mass
    ------------   -----------------  -----------------  -----------------  -----------------
         S            1.820065822470     0.725861417975    -0.338538817613    31.972071174400
         O           -1.879782577530    -0.934815782025    -0.801689317613    15.994914619570
         O            0.500004822470    -1.058582582025     1.117249182387    15.994914619570
         C           -0.821495177530     0.836733417975     0.478221182387    12.000000000000
         C           -3.398724677530     0.559992017975     0.211099782387    12.000000000000
         C           -2.003801177530     0.055374417975    -0.092428817613    12.000000000000
         C            0.438439822470    -0.000689582025     0.510995182387    12.000000000000
         C           -4.505838177530    -0.276190582025    -0.281859817613    12.000000000000
         C            3.063465822470    -0.553361582025    -0.005632817613    12.000000000000
         C            4.449121822470    -0.043656582025    -0.371431817613    12.000000000000
         H           -0.688369177530     1.749173417975    -0.117607817613     1.007825032230
         H           -1.041582177530     1.153860417975     1.504278182387     1.007825032230
         H           -3.446970177530     0.726774417975     1.328065182387     1.007825032230
         H           -3.438428177530     1.614386417975    -0.180030817613     1.007825032230
         H           -5.476044177530     0.169009417975    -0.047493817613     1.007825032230
         H           -4.426852177530    -0.400314582025    -1.363510817613     1.007825032230
         H           -4.460324177530    -1.270057582025     0.169486182387     1.007825032230
         H            3.002294822470    -0.805447582025     1.052606182387     1.007825032230
         H            2.808345822470    -1.449776582025    -0.573375817613     1.007825032230
         H            4.507147822470     0.227769417975    -1.428479817613     1.007825032230
         H            4.714470822470     0.832948417975     0.224020182387     1.007825032230
         H            5.191997822470    -0.823298582025    -0.182096817613     1.007825032230

  Basis Set: AUG-CC-PVTZ
    Blend: AUG-CC-PVTZ
  Basis Set: (AUG-CC-PVTZ AUX)
    Blend: AUG-CC-PVTZ-JKFIT
	 Reference Energy          =    -819.4905322595916459 [Eh]
	 Singles Energy            =      -0.0000000000000000 [Eh]
	 Same-Spin Energy          =      -0.4846406677594374 [Eh]
	 Opposite-Spin Energy      =      -1.5715017931376933 [Eh]
	 Correlation Energy        =      -2.0561424608971306 [Eh]
	 Total Energy              =    -821.5466747204887952 [Eh]

	 ================> DF-SCS-MP2 Energies <==================
	-----------------------------------------------------------
	 SCS Same-Spin Scale       =       0.3333333333333333 [-]
	 SCS Opposite-Spin Scale   =       1.2000000000000000 [-]
	 SCS Same-Spin Energy      =      -0.1615468892531458 [Eh]
	 SCS Opposite-Spin Energy  =      -1.8858021517652319 [Eh]
	 SCS Correlation Energy    =      -2.0473490410183777 [Eh]
	 SCS Total Energy          =    -821.5378813006100245 [Eh]
	-----------------------------------------------------------

  Dipole Moment: [D]
     X:     0.1455      Y:     2.8346      Z:     0.6888     Total:     2.9207

*** Psi4 exiting successfully. Buy a developer a beer!
