                               Psi4 1.3.2 release

  ==> Input File <==

--------------------------------------------------------------------------
#psi4
#
memory 32 gb

molecule  {
0 1
  S        1.8142300     0.7226310    -0.3411240
  O       -1.8432130    -0.9348080    -0.8000930
  O        0.4941690    -1.0618130     1.1146640
  C       -0.8273310     0.8335030     0.4756360
  C       -3.3832440     0.5955310     0.2374230
  C       -2.0113266     0.0615808    -0.1042788
  C        0.4326040    -0.0039200     0.5084100
  C       -4.5116740    -0.2794210    -0.2844450
  C        3.0576300    -0.5565920    -0.0082180
  C        4.4432860    -0.0468870    -0.3740170
  H       -0.7016380     1.7433972    -0.1256753
  H       -1.0474180     1.1506300     1.5016930
  H       -3.4528060     0.7235440     1.3254800
  H       -3.4442640     1.6111560    -0.1826160
  H       -5.4818800     0.1657790    -0.0500790
  H       -4.4326880    -0.4035450    -1.3660960
  H       -4.4661600    -1.2732880     0.1669010
  H        2.9964590    -0.8086780     1.0500210
  H        2.8025100    -1.4530070    -0.5759610
  H        4.5013120     0.2245390    -1.4310650
  H        4.7086350     0.8297180     0.2214350
  H        5.1861620    -0.8265290    -0.1846820
units angstrom
no_reorient  #important for SAPT in psi4, default
symmetry c1  #important for SAPT in psi4, default
}

set PROPERTIES_ORIGIN ["COM"]
properties('MP2/aug-cc-pvtz', properties = ['dipole'])
--------------------------------------------------------------------------

    Molecular point group: c1
  Charge       = 0
  Multiplicity = 1
  Basis Set: AUG-CC-PVTZ
    Blend: AUG-CC-PVTZ
  Basis Set: (AUG-CC-PVTZ AUX)
    Blend: AUG-CC-PVTZ-JKFIT

    Orbital Energies [Eh]
    ---------------------

    Doubly Occupied:

       1A    -91.972119     2A    -20.555225     3A    -20.555167
       4A    -11.367595     5A    -11.346201     6A    -11.266942
       7A    -11.262590     8A    -11.250051     9A    -11.231618
      10A    -11.222444    11A     -8.973725    12A     -6.654878
      13A     -6.653750    14A     -6.653135    15A     -1.396785
      16A     -1.382739    17A     -1.093989    18A     -1.077534
      19A     -1.042843    20A     -0.972144    21A     -0.896647
      22A     -0.837780    23A     -0.760283    24A     -0.726620
      25A     -0.677634    26A     -0.668667    27A     -0.647983
      28A     -0.637861    29A     -0.633919    30A     -0.608096
      31A     -0.595094    32A     -0.559789    33A     -0.546172
      34A     -0.533039    35A     -0.527071    36A     -0.520797
      37A     -0.511678    38A     -0.504759    39A     -0.487928
      40A     -0.465260    41A     -0.429677    42A     -0.406726
      43A     -0.371107

  @DF-RHF Final Energy:  -819.49430548919065

   => Energetics <=

    Nuclear Repulsion Energy =            603.3908109513146201
    One-Electron Energy =               -2322.7981116566002129
    Two-Electron Energy =                 899.9129952160950552
    Total Energy =                       -819.4943054891906513
  Basis Set: (AUG-CC-PVTZ AUX)
    Blend: AUG-CC-PVTZ-RI
    Molecular point group: c1

    Geometry (in Angstrom), charge = 0, multiplicity = 1:

       Center              X                  Y                   Z               Mass
    ------------   -----------------  -----------------  -----------------  -----------------
         S            1.814403407334     0.721939639392    -0.340394924888    31.972071174400
         O           -1.843039592666    -0.935499360608    -0.799363924888    15.994914619570
         O            0.494342407334    -1.062504360608     1.115393075112    15.994914619570
         C           -0.827157592666     0.832811639392     0.476365075112    12.000000000000
         C           -3.383070592666     0.594839639392     0.238152075112    12.000000000000
         C           -2.011153192666     0.060889439392    -0.103549724888    12.000000000000
         C            0.432777407334    -0.004611360608     0.509139075112    12.000000000000
         C           -4.511500592666    -0.280112360608    -0.283715924888    12.000000000000
         C            3.057803407334    -0.557283360608    -0.007488924888    12.000000000000
         C            4.443459407334    -0.047578360608    -0.373287924888    12.000000000000
         H           -0.701464592666     1.742705839392    -0.124946224888     1.007825032230
         H           -1.047244592666     1.149938639392     1.502422075112     1.007825032230
         H           -3.452632592666     0.722852639392     1.326209075112     1.007825032230
         H           -3.444090592666     1.610464639392    -0.181886924888     1.007825032230
         H           -5.481706592666     0.165087639392    -0.049349924888     1.007825032230
         H           -4.432514592666    -0.404236360608    -1.365366924888     1.007825032230
         H           -4.465986592666    -1.273979360608     0.167630075112     1.007825032230
         H            2.996632407334    -0.809369360608     1.050750075112     1.007825032230
         H            2.802683407334    -1.453698360608    -0.575231924888     1.007825032230
         H            4.501485407334     0.223847639392    -1.430335924888     1.007825032230
         H            4.708808407334     0.829026639392     0.222164075112     1.007825032230
         H            5.186335407334    -0.827220360608    -0.183952924888     1.007825032230

  Basis Set: AUG-CC-PVTZ
    Blend: AUG-CC-PVTZ
  Basis Set: (AUG-CC-PVTZ AUX)
    Blend: AUG-CC-PVTZ-JKFIT
	 Reference Energy          =    -819.4943054891906513 [Eh]
	 Singles Energy            =      -0.0000000000000000 [Eh]
	 Same-Spin Energy          =      -0.4843027659752095 [Eh]
	 Opposite-Spin Energy      =      -1.5712363344447913 [Eh]
	 Correlation Energy        =      -2.0555391004200008 [Eh]
	 Total Energy              =    -821.5498445896106432 [Eh]

	 ================> DF-SCS-MP2 Energies <==================
	-----------------------------------------------------------
	 SCS Same-Spin Scale       =       0.3333333333333333 [-]
	 SCS Opposite-Spin Scale   =       1.2000000000000000 [-]
	 SCS Same-Spin Energy      =      -0.1614342553250698 [Eh]
	 SCS Opposite-Spin Energy  =      -1.8854836013337495 [Eh]
	 SCS Correlation Energy    =      -2.0469178566588191 [Eh]
	 SCS Total Energy          =    -821.5412233458495166 [Eh]
	-----------------------------------------------------------

  Dipole Moment: [D]
     X:    -0.0083      Y:     2.8439      Z:     0.6830     Total:     2.9248

*** Psi4 exiting successfully. Buy a developer a beer!
