                               Psi4 1.3.2 release

  ==> Input File <==

--------------------------------------------------------------------------
#psi4
#
memory 32 gb

molecule  {
0 1
  S        1.8142300     0.7226310    -0.3411240
  O       -1.8432130    -0.9348080    -0.8000930
  O        0.4941690    -1.0618130     1.1146640
  C       -0.8273310     0.8335030     0.4756360
  C       -3.3832440     0.5955310     0.2374230
  C       -2.0019795     0.0149991    -0.0575273
  C        0.4326040    -0.0039200     0.5084100
  C       -4.5116740    -0.2794210    -0.2844450
  C        3.0576300    -0.5565920    -0.0082180
  C        4.4432860    -0.0468870    -0.3740170
  H       -0.6645799     1.7554295    -0.0978142
  H       -1.0474180     1.1506300     1.5016930
  H       -3.4528060     0.7235440     1.3254800
  H       -3.4442640     1.6111560    -0.1826160
  H       -5.4818800     0.1657790    -0.0500790
  H       -4.4326880    -0.4035450    -1.3660960
  H       -4.4661600    -1.2732880     0.1669010
  H        2.9964590    -0.8086780     1.0500210
  H        2.8025100    -1.4530070    -0.5759610
  H        4.5013120     0.2245390    -1.4310650
  H        4.7086350     0.8297180     0.2214350
  H        5.1861620    -0.8265290    -0.1846820
units angstrom
no_reorient  #important for SAPT in psi4, default
symmetry c1  #important for SAPT in psi4, default
}

set PROPERTIES_ORIGIN ["COM"]
properties('MP2/aug-cc-pvtz', properties = ['dipole'])
--------------------------------------------------------------------------

    Molecular point group: c1
  Charge       = 0
  Multiplicity = 1
  Basis Set: AUG-CC-PVTZ
    Blend: AUG-CC-PVTZ
  Basis Set: (AUG-CC-PVTZ AUX)
    Blend: AUG-CC-PVTZ-JKFIT

    Orbital Energies [Eh]
    ---------------------

    Doubly Occupied:

       1A    -91.972122     2A    -20.557194     3A    -20.554838
       4A    -11.366949     5A    -11.346199     6A    -11.266554
       7A    -11.262726     8A    -11.249397     9A    -11.231698
      10A    -11.221695    11A     -8.973752    12A     -6.654907
      13A     -6.653778    14A     -6.653166    15A     -1.400371
      16A     -1.387290    17A     -1.093753    18A     -1.075690
      19A     -1.042057    20A     -0.971996    21A     -0.894096
      22A     -0.837429    23A     -0.759352    24A     -0.728210
      25A     -0.679836    26A     -0.666877    27A     -0.648515
      28A     -0.636759    29A     -0.633852    30A     -0.610306
      31A     -0.594898    32A     -0.559805    33A     -0.545836
      34A     -0.533599    35A     -0.527311    36A     -0.520792
      37A     -0.512653    38A     -0.504171    39A     -0.490655
      40A     -0.465493    41A     -0.429906    42A     -0.405025
      43A     -0.371273

  @DF-RHF Final Energy:  -819.49385398760421

   => Energetics <=

    Nuclear Repulsion Energy =            603.5847378735433040
    One-Electron Energy =               -2323.1716238630865519
    Two-Electron Energy =                 900.0930320019389228
    Total Energy =                       -819.4938539876042114
  Basis Set: (AUG-CC-PVTZ AUX)
    Blend: AUG-CC-PVTZ-RI
    Molecular point group: c1

    Geometry (in Angstrom), charge = 0, multiplicity = 1:

       Center              X                  Y                   Z               Mass
    ------------   -----------------  -----------------  -----------------  -----------------
         S            1.813469275113     0.725356284988    -0.344075498232    31.972071174400
         O           -1.843973724887    -0.932082715012    -0.803044498232    15.994914619570
         O            0.493408275113    -1.059087715012     1.111712501768    15.994914619570
         C           -0.828091724887     0.836228284988     0.472684501768    12.000000000000
         C           -3.384004724887     0.598256284988     0.234471501768    12.000000000000
         C           -2.002740224887     0.017724384988    -0.060478798232    12.000000000000
         C            0.431843275113    -0.001194715012     0.505458501768    12.000000000000
         C           -4.512434724887    -0.276695715012    -0.287396498232    12.000000000000
         C            3.056869275113    -0.553866715012    -0.011169498232    12.000000000000
         C            4.442525275113    -0.044161715012    -0.376968498232    12.000000000000
         H           -0.665340624887     1.758154784988    -0.100765698232     1.007825032230
         H           -1.048178724887     1.153355284988     1.498741501768     1.007825032230
         H           -3.453566724887     0.726269284988     1.322528501768     1.007825032230
         H           -3.445024724887     1.613881284988    -0.185567498232     1.007825032230
         H           -5.482640724887     0.168504284988    -0.053030498232     1.007825032230
         H           -4.433448724887    -0.400819715012    -1.369047498232     1.007825032230
         H           -4.466920724887    -1.270562715012     0.163949501768     1.007825032230
         H            2.995698275113    -0.805952715012     1.047069501768     1.007825032230
         H            2.801749275113    -1.450281715012    -0.578912498232     1.007825032230
         H            4.500551275113     0.227264284988    -1.434016498232     1.007825032230
         H            4.707874275113     0.832443284988     0.218483501768     1.007825032230
         H            5.185401275113    -0.823803715012    -0.187633498232     1.007825032230

  Basis Set: AUG-CC-PVTZ
    Blend: AUG-CC-PVTZ
  Basis Set: (AUG-CC-PVTZ AUX)
    Blend: AUG-CC-PVTZ-JKFIT
	 Reference Energy          =    -819.4938539876042114 [Eh]
	 Singles Energy            =      -0.0000000000000000 [Eh]
	 Same-Spin Energy          =      -0.4840207801010566 [Eh]
	 Opposite-Spin Energy      =      -1.5707499240999858 [Eh]
	 Correlation Energy        =      -2.0547707042010424 [Eh]
	 Total Energy              =    -821.5486246918052302 [Eh]

	 ================> DF-SCS-MP2 Energies <==================
	-----------------------------------------------------------
	 SCS Same-Spin Scale       =       0.3333333333333333 [-]
	 SCS Opposite-Spin Scale   =       1.2000000000000000 [-]
	 SCS Same-Spin Energy      =      -0.1613402600336855 [Eh]
	 SCS Opposite-Spin Energy  =      -1.8848999089199829 [Eh]
	 SCS Correlation Energy    =      -2.0462401689536684 [Eh]
	 SCS Total Energy          =    -821.5400941565578705 [Eh]
	-----------------------------------------------------------

  Dipole Moment: [D]
     X:     0.0449      Y:     2.7930      Z:     0.6823     Total:     2.8755

*** Psi4 exiting successfully. Buy a developer a beer!
