                               Psi4 1.4a3.dev225

  ==> Input File <==

--------------------------------------------------------------------------
#psi4
#
memory 32 gb

molecule  {
0 1
  S        1.5586770    -0.2994370    -0.7152220
  O       -1.5255240    -0.4876820     1.0921970
  O        0.7924220     1.7006740     0.8461850
  C       -0.8878030     0.9736540    -0.7120840
  C       -3.2304390    -0.0998550    -0.5631210
  C       -1.8226462     0.0935993     0.0232290
  C        0.4791140     0.9485020    -0.0654040
  C       -4.1634610    -0.9398430     0.2972900
  C        2.9497330    -0.0790050     0.4324980
  C        4.0540790    -1.0751370     0.1033520
  H       -0.8484610     0.6756560    -1.7668750
  H       -1.2645150     2.0025910    -0.6674260
  H       -3.6447290     0.9013370    -0.7419330
  H       -3.1015980    -0.5455960    -1.5588690
  H       -5.1413450    -1.0357370    -0.1813640
  H       -3.7504260    -1.9381500     0.4523140
  H       -4.2995020    -0.4825820     1.2793320
  H        3.3022180     0.9509290     0.3487650
  H        2.5726230    -0.2199470     1.4475820
  H        3.7004310    -2.1050230     0.1947960
  H        4.4320470    -0.9299840    -0.9117720
  H        4.8873260    -0.9394890     0.7982930
units angstrom
no_reorient  #important for SAPT in psi4, default
symmetry c1  #important for SAPT in psi4, default
}

set PROPERTIES_ORIGIN ["COM"]
properties('MP2/aug-cc-pvtz', properties = ['dipole'])
--------------------------------------------------------------------------

    Molecular point group: c1
  Charge       = 0
  Multiplicity = 1
  Basis Set: AUG-CC-PVTZ
    Blend: AUG-CC-PVTZ
  Basis Set: (AUG-CC-PVTZ AUX)
    Blend: AUG-CC-PVTZ-JKFIT

    Orbital Energies [Eh]
    ---------------------

    Doubly Occupied:

       1A    -91.969909     2A    -20.556976     3A    -20.556521
       4A    -11.367870     5A    -11.351113     6A    -11.268953
       7A    -11.262640     8A    -11.252609     9A    -11.230806
      10A    -11.223427    11A     -8.971681    12A     -6.652874
      13A     -6.651729    14A     -6.651091    15A     -1.394370
      16A     -1.371930    17A     -1.098303    18A     -1.078033
      19A     -1.044977    20A     -0.972886    21A     -0.895880
      22A     -0.837927    23A     -0.765145    24A     -0.727731
      25A     -0.676026    26A     -0.672633    27A     -0.650854
      28A     -0.634942    29A     -0.632969    30A     -0.603290
      31A     -0.594095    32A     -0.560939    33A     -0.546232
      34A     -0.530341    35A     -0.525914    36A     -0.520162
      37A     -0.510187    38A     -0.505340    39A     -0.485066
      40A     -0.463965    41A     -0.434180    42A     -0.408583
      43A     -0.369287

  @DF-RHF Final Energy:  -819.48964561281718

   => Energetics <=

    Nuclear Repulsion Energy =            610.2950894713090975
    One-Electron Energy =               -2336.6087033091885132
    Two-Electron Energy =                 906.8239682250623446
    Total Energy =                       -819.4896456128171849
  Basis Set: (AUG-CC-PVTZ AUX)
    Blend: AUG-CC-PVTZ-RI
    Molecular point group: c1

    Geometry (in Angstrom), charge = 0, multiplicity = 1:

       Center              X                  Y                   Z               Mass
    ------------   -----------------  -----------------  -----------------  -----------------
         S            1.536993790736    -0.324405694974    -0.721525178953    31.972071174400
         O           -1.547207209264    -0.512650694974     1.085893821047    15.994914619570
         O            0.770738790736     1.675705305026     0.839881821047    15.994914619570
         C           -0.909486209264     0.948685305026    -0.718387178953    12.000000000000
         C           -3.252122209264    -0.124823694974    -0.569424178953    12.000000000000
         C           -1.844329409264     0.068630605026     0.016925821047    12.000000000000
         C            0.457430790736     0.923533305026    -0.071707178953    12.000000000000
         C           -4.185144209264    -0.964811694974     0.290986821047    12.000000000000
         C            2.928049790736    -0.103973694974     0.426194821047    12.000000000000
         C            4.032395790736    -1.100105694974     0.097048821047    12.000000000000
         H           -0.870144209264     0.650687305026    -1.773178178953     1.007825032230
         H           -1.286198209264     1.977622305026    -0.673729178953     1.007825032230
         H           -3.666412209264     0.876368305026    -0.748236178953     1.007825032230
         H           -3.123281209264    -0.570564694974    -1.565172178953     1.007825032230
         H           -5.163028209264    -1.060705694974    -0.187667178953     1.007825032230
         H           -3.772109209264    -1.963118694974     0.446010821047     1.007825032230
         H           -4.321185209264    -0.507550694974     1.273028821047     1.007825032230
         H            3.280534790736     0.925960305026     0.342461821047     1.007825032230
         H            2.550939790736    -0.244915694974     1.441278821047     1.007825032230
         H            3.678747790736    -2.129991694974     0.188492821047     1.007825032230
         H            4.410363790736    -0.954952694974    -0.918075178953     1.007825032230
         H            4.865642790736    -0.964457694974     0.791989821047     1.007825032230

  Basis Set: AUG-CC-PVTZ
    Blend: AUG-CC-PVTZ
  Basis Set: (AUG-CC-PVTZ AUX)
    Blend: AUG-CC-PVTZ-JKFIT
	 Reference Energy          =    -819.4896456128171849 [Eh]
	 Singles Energy            =      -0.0000000000000000 [Eh]
	 Same-Spin Energy          =      -0.4854298412283476 [Eh]
	 Opposite-Spin Energy      =      -1.5732965014724463 [Eh]
	 Correlation Energy        =      -2.0587263427007940 [Eh]
	 Total Energy              =    -821.5483719555179505 [Eh]

	 ================> DF-SCS-MP2 Energies <==================
	-----------------------------------------------------------
	 SCS Same-Spin Scale       =       0.3333333333333333 [-]
	 SCS Opposite-Spin Scale   =       1.2000000000000000 [-]
	 SCS Same-Spin Energy      =      -0.1618099470761158 [Eh]
	 SCS Opposite-Spin Energy  =      -1.8879558017669353 [Eh]
	 SCS Correlation Energy    =      -2.0497657488430514 [Eh]
	 SCS Total Energy          =    -821.5394113616601999 [Eh]
	-----------------------------------------------------------

  Dipole Moment: [D]
     X:    -0.5208      Y:    -0.0899      Z:    -2.7759     Total:     2.8257

*** Psi4 exiting successfully. Buy a developer a beer!
