                               Psi4 1.3.2 release

  ==> Input File <==

--------------------------------------------------------------------------
#psi4
#
memory 32 gb

molecule  {
0 1
  S        1.8142300     0.7226310    -0.3411240
  O       -1.8432130    -0.9348080    -0.8000930
  O        0.4941690    -1.0618130     1.1146640
  C       -0.8273310     0.8335030     0.4756360
  C       -3.3832440     0.5955310     0.2374230
  C       -1.8548593     0.1544331    -0.0203092
  C        0.4326040    -0.0039200     0.5084100
  C       -4.5116740    -0.2794210    -0.2844450
  C        3.0576300    -0.5565920    -0.0082180
  C        4.4432860    -0.0468870    -0.3740170
  H       -0.6942050     1.7459430    -0.1201930
  H       -1.0474180     1.1506300     1.5016930
  H       -3.4528060     0.7235440     1.3254800
  H       -3.4442640     1.6111560    -0.1826160
  H       -5.4818800     0.1657790    -0.0500790
  H       -4.4326880    -0.4035450    -1.3660960
  H       -4.4661600    -1.2732880     0.1669010
  H        2.9964590    -0.8086780     1.0500210
  H        2.8025100    -1.4530070    -0.5759610
  H        4.5013120     0.2245390    -1.4310650
  H        4.7086350     0.8297180     0.2214350
  H        5.1861620    -0.8265290    -0.1846820
units angstrom
no_reorient  #important for SAPT in psi4, default
symmetry c1  #important for SAPT in psi4, default
}

set PROPERTIES_ORIGIN ["COM"]
properties('MP2/aug-cc-pvtz', properties = ['dipole'])
--------------------------------------------------------------------------

    Molecular point group: c1
  Charge       = 0
  Multiplicity = 1
  Basis Set: AUG-CC-PVTZ
    Blend: AUG-CC-PVTZ
  Basis Set: (AUG-CC-PVTZ AUX)
    Blend: AUG-CC-PVTZ-JKFIT

    Orbital Energies [Eh]
    ---------------------

    Doubly Occupied:

       1A    -91.978531     2A    -20.562957     3A    -20.544000
       4A    -11.377141     5A    -11.351431     6A    -11.272000
       7A    -11.267258     8A    -11.253450     9A    -11.235075
      10A    -11.218785    11A     -8.980098    12A     -6.661255
      13A     -6.660120    14A     -6.659505    15A     -1.401859
      16A     -1.317338    17A     -1.128096    18A     -1.088933
      19A     -1.037349    20A     -0.985060    21A     -0.890083
      22A     -0.844879    23A     -0.779840    24A     -0.735883
      25A     -0.685383    26A     -0.671246    27A     -0.651555
      28A     -0.638928    29A     -0.630688    30A     -0.604608
      31A     -0.576723    32A     -0.564715    33A     -0.546146
      34A     -0.536829    35A     -0.529616    36A     -0.512269
      37A     -0.505771    38A     -0.500327    39A     -0.470270
      40A     -0.447210    41A     -0.430719    42A     -0.405869
      43A     -0.376848

  @DF-RHF Final Energy:  -819.42932219989120

   => Energetics <=

    Nuclear Repulsion Energy =            603.9932140938974499
    One-Electron Energy =               -2323.8117771642578191
    Two-Electron Energy =                 900.3892408704691661
    Total Energy =                       -819.4293221998912031
  Basis Set: (AUG-CC-PVTZ AUX)
    Blend: AUG-CC-PVTZ-RI
    Molecular point group: c1

    Geometry (in Angstrom), charge = 0, multiplicity = 1:

       Center              X                  Y                   Z               Mass
    ------------   -----------------  -----------------  -----------------  -----------------
         S            1.802625647615     0.714962114583    -0.346724969748    31.972071174400
         O           -1.854817352385    -0.942476885417    -0.805693969748    15.994914619570
         O            0.482564647615    -1.069481885417     1.109063030252    15.994914619570
         C           -0.838935352385     0.825834114583     0.470035030252    12.000000000000
         C           -3.394848352385     0.587862114583     0.231822030252    12.000000000000
         C           -1.866463652385     0.146764214583    -0.025910169748    12.000000000000
         C            0.420999647615    -0.011588885417     0.502809030252    12.000000000000
         C           -4.523278352385    -0.287089885417    -0.290045969748    12.000000000000
         C            3.046025647615    -0.564260885417    -0.013818969748    12.000000000000
         C            4.431681647615    -0.054555885417    -0.379617969748    12.000000000000
         H           -0.705809352385     1.738274114583    -0.125793969748     1.007825032230
         H           -1.059022352385     1.142961114583     1.496092030252     1.007825032230
         H           -3.464410352385     0.715875114583     1.319879030252     1.007825032230
         H           -3.455868352385     1.603487114583    -0.188216969748     1.007825032230
         H           -5.493484352385     0.158110114583    -0.055679969748     1.007825032230
         H           -4.444292352385    -0.411213885417    -1.371696969748     1.007825032230
         H           -4.477764352385    -1.280956885417     0.161300030252     1.007825032230
         H            2.984854647615    -0.816346885417     1.044420030252     1.007825032230
         H            2.790905647615    -1.460675885417    -0.581561969748     1.007825032230
         H            4.489707647615     0.216870114583    -1.436665969748     1.007825032230
         H            4.697030647615     0.822049114583     0.215834030252     1.007825032230
         H            5.174557647615    -0.834197885417    -0.190282969748     1.007825032230

  Basis Set: AUG-CC-PVTZ
    Blend: AUG-CC-PVTZ
  Basis Set: (AUG-CC-PVTZ AUX)
    Blend: AUG-CC-PVTZ-JKFIT
	 Reference Energy          =    -819.4293221998912031 [Eh]
	 Singles Energy            =      -0.0000000000000000 [Eh]
	 Same-Spin Energy          =      -0.4896038794746910 [Eh]
	 Opposite-Spin Energy      =      -1.5818631428637056 [Eh]
	 Correlation Energy        =      -2.0714670223383966 [Eh]
	 Total Energy              =    -821.5007892222296277 [Eh]

	 ================> DF-SCS-MP2 Energies <==================
	-----------------------------------------------------------
	 SCS Same-Spin Scale       =       0.3333333333333333 [-]
	 SCS Opposite-Spin Scale   =       1.2000000000000000 [-]
	 SCS Same-Spin Energy      =      -0.1632012931582303 [Eh]
	 SCS Opposite-Spin Energy  =      -1.8982357714364466 [Eh]
	 SCS Correlation Energy    =      -2.0614370645946769 [Eh]
	 SCS Total Energy          =    -821.4907592644858596 [Eh]
	-----------------------------------------------------------

  Dipole Moment: [D]
     X:     0.9643      Y:     3.1278      Z:     0.9311     Total:     3.4029

*** Psi4 exiting successfully. Buy a developer a beer!
