                               Psi4 1.3.2 release

  ==> Input File <==

--------------------------------------------------------------------------
#psi4
#
memory 32 gb

molecule  {
0 1
  S        1.8142300     0.7226310    -0.3411240
  O       -1.8432130    -0.9348080    -0.8000930
  O        0.4941690    -1.0618130     1.1146640
  C       -0.8273310     0.8335030     0.4756360
  C       -3.3832440     0.5955310     0.2374230
  C       -2.0126591     0.0408730    -0.0888155
  C        0.4326040    -0.0039200     0.5084100
  C       -4.5116740    -0.2794210    -0.2844450
  C        3.0576300    -0.5565920    -0.0082180
  C        4.4432860    -0.0468870    -0.3740170
  H       -0.6942050     1.7459430    -0.1201930
  H       -1.0474180     1.1506300     1.5016930
  H       -3.4528060     0.7235440     1.3254800
  H       -3.4532236     1.6119651    -0.1792481
  H       -5.4818800     0.1657790    -0.0500790
  H       -4.4326880    -0.4035450    -1.3660960
  H       -4.4661600    -1.2732880     0.1669010
  H        2.9964590    -0.8086780     1.0500210
  H        2.8025100    -1.4530070    -0.5759610
  H        4.5013120     0.2245390    -1.4310650
  H        4.7086350     0.8297180     0.2214350
  H        5.1861620    -0.8265290    -0.1846820
units angstrom
no_reorient  #important for SAPT in psi4, default
symmetry c1  #important for SAPT in psi4, default
}

set PROPERTIES_ORIGIN ["COM"]
properties('MP2/aug-cc-pvtz', properties = ['dipole'])
--------------------------------------------------------------------------

    Molecular point group: c1
  Charge       = 0
  Multiplicity = 1
  Basis Set: AUG-CC-PVTZ
    Blend: AUG-CC-PVTZ
  Basis Set: (AUG-CC-PVTZ AUX)
    Blend: AUG-CC-PVTZ-JKFIT

    Orbital Energies [Eh]
    ---------------------

    Doubly Occupied:

       1A    -91.971901     2A    -20.556224     3A    -20.554851
       4A    -11.367123     5A    -11.345970     6A    -11.266425
       7A    -11.262482     8A    -11.249715     9A    -11.231529
      10A    -11.222234    11A     -8.973517    12A     -6.654670
      13A     -6.653541    14A     -6.652928    15A     -1.398731
      16A     -1.386058    17A     -1.093462    18A     -1.076766
      19A     -1.042291    20A     -0.971683    21A     -0.895742
      22A     -0.837421    23A     -0.759585    24A     -0.727103
      25A     -0.678766    26A     -0.667952    27A     -0.647997
      28A     -0.637449    29A     -0.633951    30A     -0.609845
      31A     -0.594889    32A     -0.559660    33A     -0.546007
      34A     -0.533350    35A     -0.527186    36A     -0.521006
      37A     -0.512260    38A     -0.504459    39A     -0.490071
      40A     -0.465195    41A     -0.429508    42A     -0.405885
      43A     -0.370970

  @DF-RHF Final Energy:  -819.49520791700479

   => Energetics <=

    Nuclear Repulsion Energy =            603.4537753312441737
    One-Electron Energy =               -2322.9212492358942654
    Two-Electron Energy =                 899.9722659876451871
    Total Energy =                       -819.4952079170047909
  Basis Set: (AUG-CC-PVTZ AUX)
    Blend: AUG-CC-PVTZ-RI
    Molecular point group: c1

    Geometry (in Angstrom), charge = 0, multiplicity = 1:

       Center              X                  Y                   Z               Mass
    ------------   -----------------  -----------------  -----------------  -----------------
         S            1.814512922551     0.723471058101    -0.341609995208    31.972071174400
         O           -1.842930077449    -0.933967941899    -0.800578995208    15.994914619570
         O            0.494451922551    -1.060972941899     1.114178004792    15.994914619570
         C           -0.827048077449     0.834343058101     0.475150004792    12.000000000000
         C           -3.382961077449     0.596371058101     0.236937004792    12.000000000000
         C           -2.012376177449     0.041713058101    -0.089301495208    12.000000000000
         C            0.432886922551    -0.003079941899     0.507924004792    12.000000000000
         C           -4.511391077449    -0.278580941899    -0.284930995208    12.000000000000
         C            3.057912922551    -0.555751941899    -0.008703995208    12.000000000000
         C            4.443568922551    -0.046046941899    -0.374502995208    12.000000000000
         H           -0.693922077449     1.746783058101    -0.120678995208     1.007825032230
         H           -1.047135077449     1.151470058101     1.501207004792     1.007825032230
         H           -3.452523077449     0.724384058101     1.324994004792     1.007825032230
         H           -3.452940677449     1.612805158101    -0.179734095208     1.007825032230
         H           -5.481597077449     0.166619058101    -0.050564995208     1.007825032230
         H           -4.432405077449    -0.402704941899    -1.366581995208     1.007825032230
         H           -4.465877077449    -1.272447941899     0.166415004792     1.007825032230
         H            2.996741922551    -0.807837941899     1.049535004792     1.007825032230
         H            2.802792922551    -1.452166941899    -0.576446995208     1.007825032230
         H            4.501594922551     0.225379058101    -1.431550995208     1.007825032230
         H            4.708917922551     0.830558058101     0.220949004792     1.007825032230
         H            5.186444922551    -0.825688941899    -0.185167995208     1.007825032230

  Basis Set: AUG-CC-PVTZ
    Blend: AUG-CC-PVTZ
  Basis Set: (AUG-CC-PVTZ AUX)
    Blend: AUG-CC-PVTZ-JKFIT
	 Reference Energy          =    -819.4952079170047909 [Eh]
	 Singles Energy            =      -0.0000000000000000 [Eh]
	 Same-Spin Energy          =      -0.4840657739010720 [Eh]
	 Opposite-Spin Energy      =      -1.5707497526256671 [Eh]
	 Correlation Energy        =      -2.0548155265267392 [Eh]
	 Total Energy              =    -821.5500234435315861 [Eh]

	 ================> DF-SCS-MP2 Energies <==================
	-----------------------------------------------------------
	 SCS Same-Spin Scale       =       0.3333333333333333 [-]
	 SCS Opposite-Spin Scale   =       1.2000000000000000 [-]
	 SCS Same-Spin Energy      =      -0.1613552579670240 [Eh]
	 SCS Opposite-Spin Energy  =      -1.8848997031508004 [Eh]
	 SCS Correlation Energy    =      -2.0462549611178242 [Eh]
	 SCS Total Energy          =    -821.5414628781226156 [Eh]
	-----------------------------------------------------------

  Dipole Moment: [D]
     X:    -0.0248      Y:     2.8168      Z:     0.6731     Total:     2.8962

*** Psi4 exiting successfully. Buy a developer a beer!
