                               Psi4 1.3.2 release

  ==> Input File <==

--------------------------------------------------------------------------
#psi4
#
memory 32 gb

molecule  {
0 1
  S        1.8142300     0.7226310    -0.3411240
  O       -1.8432130    -0.9348080    -0.8000930
  O        0.4941690    -1.0618130     1.1146640
  C       -0.8273310     0.8335030     0.4756360
  C       -3.3832440     0.5955310     0.2374230
  C       -2.0096370     0.0521440    -0.0950140
  C        0.4326040    -0.0039200     0.5084100
  C       -4.4819113    -0.2704809    -0.3577199
  C        3.0576300    -0.5565920    -0.0082180
  C        4.4432860    -0.0468870    -0.3740170
  H       -0.6942050     1.7459430    -0.1201930
  H       -1.0474180     1.1506300     1.5016930
  H       -3.4055894     0.7562269     1.3231356
  H       -3.4442640     1.6111560    -0.1826160
  H       -5.4818800     0.1657790    -0.0500790
  H       -4.4326880    -0.4035450    -1.3660960
  H       -4.4661600    -1.2732880     0.1669010
  H        2.9964590    -0.8086780     1.0500210
  H        2.8025100    -1.4530070    -0.5759610
  H        4.5013120     0.2245390    -1.4310650
  H        4.7086350     0.8297180     0.2214350
  H        5.1861620    -0.8265290    -0.1846820
units angstrom
no_reorient  #important for SAPT in psi4, default
symmetry c1  #important for SAPT in psi4, default
}

set PROPERTIES_ORIGIN ["COM"]
properties('MP2/aug-cc-pvtz', properties = ['dipole'])
--------------------------------------------------------------------------

    Molecular point group: c1
  Charge       = 0
  Multiplicity = 1
  Basis Set: AUG-CC-PVTZ
    Blend: AUG-CC-PVTZ
  Basis Set: (AUG-CC-PVTZ AUX)
    Blend: AUG-CC-PVTZ-JKFIT

    Orbital Energies [Eh]
    ---------------------

    Doubly Occupied:

       1A    -91.972013     2A    -20.554959     3A    -20.554948
       4A    -11.367290     5A    -11.345063     6A    -11.266602
       7A    -11.262546     8A    -11.250909     9A    -11.231586
      10A    -11.224418    11A     -8.973626    12A     -6.654779
      13A     -6.653651    14A     -6.653037    15A     -1.397191
      16A     -1.383741    17A     -1.093964    18A     -1.077650
      19A     -1.042888    20A     -0.972090    21A     -0.897867
      22A     -0.837915    23A     -0.760397    24A     -0.726890
      25A     -0.677833    26A     -0.667877    27A     -0.648177
      28A     -0.639048    29A     -0.633840    30A     -0.609247
      31A     -0.595496    32A     -0.560245    33A     -0.544735
      34A     -0.540833    35A     -0.525825    36A     -0.523496
      37A     -0.508574    38A     -0.500442    39A     -0.486446
      40A     -0.465245    41A     -0.429046    42A     -0.405654
      43A     -0.371039

  @DF-RHF Final Energy:  -819.48645485018028

   => Energetics <=

    Nuclear Repulsion Energy =            603.7857410404346865
    One-Electron Energy =               -2323.5661537295445669
    Two-Electron Energy =                 900.2939578389296003
    Total Energy =                       -819.4864548501802801
  Basis Set: (AUG-CC-PVTZ AUX)
    Blend: AUG-CC-PVTZ-RI
    Molecular point group: c1

    Geometry (in Angstrom), charge = 0, multiplicity = 1:

       Center              X                  Y                   Z               Mass
    ------------   -----------------  -----------------  -----------------  -----------------
         S            1.811701194527     0.721755053982    -0.335615599540    31.972071174400
         O           -1.845741805473    -0.935683946018    -0.794584599540    15.994914619570
         O            0.491640194527    -1.062688946018     1.120172400460    15.994914619570
         C           -0.829859805473     0.832627053982     0.481144400460    12.000000000000
         C           -3.385772805473     0.594655053982     0.242931400460    12.000000000000
         C           -2.012165805473     0.051268053982    -0.089505599540    12.000000000000
         C            0.430075194527    -0.004795946018     0.513918400460    12.000000000000
         C           -4.484440105473    -0.271356846018    -0.352211499540    12.000000000000
         C            3.055101194527    -0.557467946018    -0.002709599540    12.000000000000
         C            4.440757194527    -0.047762946018    -0.368508599540    12.000000000000
         H           -0.696733805473     1.745067053982    -0.114684599540     1.007825032230
         H           -1.049946805473     1.149754053982     1.507201400460     1.007825032230
         H           -3.408118205473     0.755350953982     1.328644000460     1.007825032230
         H           -3.446792805473     1.610280053982    -0.177107599540     1.007825032230
         H           -5.484408805473     0.164903053982    -0.044570599540     1.007825032230
         H           -4.435216805473    -0.404420946018    -1.360587599540     1.007825032230
         H           -4.468688805473    -1.274163946018     0.172409400460     1.007825032230
         H            2.993930194527    -0.809553946018     1.055529400460     1.007825032230
         H            2.799981194527    -1.453882946018    -0.570452599540     1.007825032230
         H            4.498783194527     0.223663053982    -1.425556599540     1.007825032230
         H            4.706106194527     0.828842053982     0.226943400460     1.007825032230
         H            5.183633194527    -0.827404946018    -0.179173599540     1.007825032230

  Basis Set: AUG-CC-PVTZ
    Blend: AUG-CC-PVTZ
  Basis Set: (AUG-CC-PVTZ AUX)
    Blend: AUG-CC-PVTZ-JKFIT
	 Reference Energy          =    -819.4864548501802801 [Eh]
	 Singles Energy            =      -0.0000000000000000 [Eh]
	 Same-Spin Energy          =      -0.4844251113170166 [Eh]
	 Opposite-Spin Energy      =      -1.5714319944702191 [Eh]
	 Correlation Energy        =      -2.0558571057872355 [Eh]
	 Total Energy              =    -821.5423119559675342 [Eh]

	 ================> DF-SCS-MP2 Energies <==================
	-----------------------------------------------------------
	 SCS Same-Spin Scale       =       0.3333333333333333 [-]
	 SCS Opposite-Spin Scale   =       1.2000000000000000 [-]
	 SCS Same-Spin Energy      =      -0.1614750371056722 [Eh]
	 SCS Opposite-Spin Energy  =      -1.8857183933642627 [Eh]
	 SCS Correlation Energy    =      -2.0471934304699348 [Eh]
	 SCS Total Energy          =    -821.5336482806502545 [Eh]
	-----------------------------------------------------------

  Dipole Moment: [D]
     X:     0.0022      Y:     2.8505      Z:     0.6639     Total:     2.9268

*** Psi4 exiting successfully. Buy a developer a beer!
