                               Psi4 1.3.2 release

  ==> Input File <==

--------------------------------------------------------------------------
#psi4
#
memory 32 gb

molecule  {
0 1
  S        1.8142300     0.7226310    -0.3411240
  O       -1.8432130    -0.9348080    -0.8000930
  O        0.4941690    -1.0618130     1.1146640
  C       -0.8273310     0.8335030     0.4756360
  C       -3.3832440     0.5955310     0.2374230
  C       -2.0158540     0.0902408    -0.1318055
  C        0.4326040    -0.0039200     0.5084100
  C       -4.5116740    -0.2794210    -0.2844450
  C        3.0576300    -0.5565920    -0.0082180
  C        4.4432860    -0.0468870    -0.3740170
  H       -0.7239923     1.7353449    -0.1418459
  H       -1.0474180     1.1506300     1.5016930
  H       -3.4528060     0.7235440     1.3254800
  H       -3.4442640     1.6111560    -0.1826160
  H       -5.4818800     0.1657790    -0.0500790
  H       -4.4326880    -0.4035450    -1.3660960
  H       -4.4661600    -1.2732880     0.1669010
  H        2.9964590    -0.8086780     1.0500210
  H        2.8025100    -1.4530070    -0.5759610
  H        4.5013120     0.2245390    -1.4310650
  H        4.7086350     0.8297180     0.2214350
  H        5.1861620    -0.8265290    -0.1846820
units angstrom
no_reorient  #important for SAPT in psi4, default
symmetry c1  #important for SAPT in psi4, default
}

set PROPERTIES_ORIGIN ["COM"]
properties('MP2/aug-cc-pvtz', properties = ['dipole'])
--------------------------------------------------------------------------

    Molecular point group: c1
  Charge       = 0
  Multiplicity = 1
  Basis Set: AUG-CC-PVTZ
    Blend: AUG-CC-PVTZ
  Basis Set: (AUG-CC-PVTZ AUX)
    Blend: AUG-CC-PVTZ-JKFIT

    Orbital Energies [Eh]
    ---------------------

    Doubly Occupied:

       1A    -91.972149     2A    -20.555403     3A    -20.554409
       4A    -11.368031     5A    -11.346841     6A    -11.267391
       7A    -11.262530     8A    -11.250625     9A    -11.231586
      10A    -11.222859    11A     -8.973741    12A     -6.654892
      13A     -6.653764    14A     -6.653148    15A     -1.395466
      16A     -1.378046    17A     -1.094216    18A     -1.078535
      19A     -1.043253    20A     -0.972298    21A     -0.898037
      22A     -0.838024    23A     -0.761193    24A     -0.725725
      25A     -0.676053    26A     -0.669814    27A     -0.647635
      28A     -0.638511    29A     -0.633822    30A     -0.606188
      31A     -0.594993    32A     -0.559773    33A     -0.546448
      34A     -0.532639    35A     -0.526950    36A     -0.520676
      37A     -0.511121    38A     -0.504993    39A     -0.485128
      40A     -0.465123    41A     -0.429285    42A     -0.407592
      43A     -0.371036

  @DF-RHF Final Energy:  -819.49130983895918

   => Energetics <=

    Nuclear Repulsion Energy =            603.2243970326221643
    One-Electron Energy =               -2322.4715292027844953
    Two-Electron Energy =                 899.7558223312031487
    Total Energy =                       -819.4913098389591823
  Basis Set: (AUG-CC-PVTZ AUX)
    Blend: AUG-CC-PVTZ-RI
    Molecular point group: c1

    Geometry (in Angstrom), charge = 0, multiplicity = 1:

       Center              X                  Y                   Z               Mass
    ------------   -----------------  -----------------  -----------------  -----------------
         S            1.814883602508     0.719841591781    -0.338229320557    31.972071174400
         O           -1.842559397492    -0.937597408219    -0.797198320557    15.994914619570
         O            0.494822602508    -1.064602408219     1.117558679443    15.994914619570
         C           -0.826677397492     0.830713591781     0.478530679443    12.000000000000
         C           -3.382590397492     0.592741591781     0.240317679443    12.000000000000
         C           -2.015200397492     0.087451391781    -0.128910820557    12.000000000000
         C            0.433257602508    -0.006709408219     0.511304679443    12.000000000000
         C           -4.511020397492    -0.282210408219    -0.281550320557    12.000000000000
         C            3.058283602508    -0.559381408219    -0.005323320557    12.000000000000
         C            4.443939602508    -0.049676408219    -0.371122320557    12.000000000000
         H           -0.723338697492     1.732555491781    -0.138951220557     1.007825032230
         H           -1.046764397492     1.147840591781     1.504587679443     1.007825032230
         H           -3.452152397492     0.720754591781     1.328374679443     1.007825032230
         H           -3.443610397492     1.608366591781    -0.179721320557     1.007825032230
         H           -5.481226397492     0.162989591781    -0.047184320557     1.007825032230
         H           -4.432034397492    -0.406334408219    -1.363201320557     1.007825032230
         H           -4.465506397492    -1.276077408219     0.169795679443     1.007825032230
         H            2.997112602508    -0.811467408219     1.052915679443     1.007825032230
         H            2.803163602508    -1.455796408219    -0.573066320557     1.007825032230
         H            4.501965602508     0.221749591781    -1.428170320557     1.007825032230
         H            4.709288602508     0.826928591781     0.224329679443     1.007825032230
         H            5.186815602508    -0.829318408219    -0.181787320557     1.007825032230

  Basis Set: AUG-CC-PVTZ
    Blend: AUG-CC-PVTZ
  Basis Set: (AUG-CC-PVTZ AUX)
    Blend: AUG-CC-PVTZ-JKFIT
	 Reference Energy          =    -819.4913098389591823 [Eh]
	 Singles Energy            =      -0.0000000000000000 [Eh]
	 Same-Spin Energy          =      -0.4846588422578642 [Eh]
	 Opposite-Spin Energy      =      -1.5720068990406872 [Eh]
	 Correlation Energy        =      -2.0566657412985512 [Eh]
	 Total Energy              =    -821.5479755802576847 [Eh]

	 ================> DF-SCS-MP2 Energies <==================
	-----------------------------------------------------------
	 SCS Same-Spin Scale       =       0.3333333333333333 [-]
	 SCS Opposite-Spin Scale   =       1.2000000000000000 [-]
	 SCS Same-Spin Energy      =      -0.1615529474192881 [Eh]
	 SCS Opposite-Spin Energy  =      -1.8864082788488246 [Eh]
	 SCS Correlation Energy    =      -2.0479612262681126 [Eh]
	 SCS Total Energy          =    -821.5392710652272399 [Eh]
	-----------------------------------------------------------

  Dipole Moment: [D]
     X:    -0.0330      Y:     2.8695      Z:     0.6832     Total:     2.9499

*** Psi4 exiting successfully. Buy a developer a beer!
