                               Psi4 1.4a3.dev225

  ==> Input File <==

--------------------------------------------------------------------------
#psi4
#
memory 32 gb

molecule  {
0 1
  S        1.5586770    -0.2994370    -0.7152220
  O       -1.5255240    -0.4876820     1.0921970
  O        0.7924220     1.7006740     0.8461850
  C       -0.8878030     0.9736540    -0.7120840
  C       -3.2304390    -0.0998550    -0.5631210
  C       -1.8408292     0.0413607     0.0906694
  C        0.4791140     0.9485020    -0.0654040
  C       -4.1634610    -0.9398430     0.2972900
  C        2.9497330    -0.0790050     0.4324980
  C        4.0540790    -1.0751370     0.1033520
  H       -0.8484610     0.6756560    -1.7668750
  H       -1.2645150     2.0025910    -0.6674260
  H       -3.6447290     0.9013370    -0.7419330
  H       -3.1015980    -0.5455960    -1.5588690
  H       -5.1413450    -1.0357370    -0.1813640
  H       -3.7504260    -1.9381500     0.4523140
  H       -4.2995020    -0.4825820     1.2793320
  H        3.3022180     0.9509290     0.3487650
  H        2.5726230    -0.2199470     1.4475820
  H        3.7004310    -2.1050230     0.1947960
  H        4.4320470    -0.9299840    -0.9117720
  H        4.8873260    -0.9394890     0.7982930
units angstrom
no_reorient  #important for SAPT in psi4, default
symmetry c1  #important for SAPT in psi4, default
}

set PROPERTIES_ORIGIN ["COM"]
properties('MP2/aug-cc-pvtz', properties = ['dipole'])
--------------------------------------------------------------------------

    Molecular point group: c1
  Charge       = 0
  Multiplicity = 1
  Basis Set: AUG-CC-PVTZ
    Blend: AUG-CC-PVTZ
  Basis Set: (AUG-CC-PVTZ AUX)
    Blend: AUG-CC-PVTZ-JKFIT

    Orbital Energies [Eh]
    ---------------------

    Doubly Occupied:

       1A    -91.967875     2A    -20.563825     3A    -20.553922
       4A    -11.363621     5A    -11.346491     6A    -11.263175
       7A    -11.261335     8A    -11.250262     9A    -11.229934
      10A    -11.223445    11A     -8.969688    12A     -6.650881
      13A     -6.649737    14A     -6.649103    15A     -1.428565
      16A     -1.388975    17A     -1.090682    18A     -1.072392
      19A     -1.039929    20A     -0.967779    21A     -0.891972
      22A     -0.834738    23A     -0.758694    24A     -0.727595
      25A     -0.684212    26A     -0.668509    27A     -0.650946
      28A     -0.636675    29A     -0.632373    30A     -0.619206
      31A     -0.589632    32A     -0.559574    33A     -0.544684
      34A     -0.533426    35A     -0.532599    36A     -0.523344
      37A     -0.517149    38A     -0.504848    39A     -0.502489
      40A     -0.462405    41A     -0.427238    42A     -0.401004
      43A     -0.367971

  @DF-RHF Final Energy:  -819.49706661151117

   => Energetics <=

    Nuclear Repulsion Energy =            610.6710407170295412
    One-Electron Energy =               -2337.3304162488602742
    Two-Electron Energy =                 907.1623089203196741
    Total Energy =                       -819.4970666115111726
  Basis Set: (AUG-CC-PVTZ AUX)
    Blend: AUG-CC-PVTZ-RI
    Molecular point group: c1

    Geometry (in Angstrom), charge = 0, multiplicity = 1:

       Center              X                  Y                   Z               Mass
    ------------   -----------------  -----------------  -----------------  -----------------
         S            1.538357040296    -0.320489165883    -0.726581445555    31.972071174400
         O           -1.545843959704    -0.508734165883     1.080837554445    15.994914619570
         O            0.772102040296     1.679621834117     0.834825554445    15.994914619570
         C           -0.908122959704     0.952601834117    -0.723443445555    12.000000000000
         C           -3.250758959704    -0.120907165883    -0.574480445555    12.000000000000
         C           -1.861149159704     0.020308534117     0.079309954445    12.000000000000
         C            0.458794040296     0.927449834117    -0.076763445555    12.000000000000
         C           -4.183780959704    -0.960895165883     0.285930554445    12.000000000000
         C            2.929413040296    -0.100057165883     0.421138554445    12.000000000000
         C            4.033759040296    -1.096189165883     0.091992554445    12.000000000000
         H           -0.868780959704     0.654603834117    -1.778234445555     1.007825032230
         H           -1.284834959704     1.981538834117    -0.678785445555     1.007825032230
         H           -3.665048959704     0.880284834117    -0.753292445555     1.007825032230
         H           -3.121917959704    -0.566648165883    -1.570228445555     1.007825032230
         H           -5.161664959704    -1.056789165883    -0.192723445555     1.007825032230
         H           -3.770745959704    -1.959202165883     0.440954554445     1.007825032230
         H           -4.319821959704    -0.503634165883     1.267972554445     1.007825032230
         H            3.281898040296     0.929876834117     0.337405554445     1.007825032230
         H            2.552303040296    -0.240999165883     1.436222554445     1.007825032230
         H            3.680111040296    -2.126075165883     0.183436554445     1.007825032230
         H            4.411727040296    -0.951036165883    -0.923131445555     1.007825032230
         H            4.867006040296    -0.960541165883     0.786933554445     1.007825032230

  Basis Set: AUG-CC-PVTZ
    Blend: AUG-CC-PVTZ
  Basis Set: (AUG-CC-PVTZ AUX)
    Blend: AUG-CC-PVTZ-JKFIT
	 Reference Energy          =    -819.4970666115111726 [Eh]
	 Singles Energy            =      -0.0000000000000000 [Eh]
	 Same-Spin Energy          =      -0.4832385993935371 [Eh]
	 Opposite-Spin Energy      =      -1.5685151097850667 [Eh]
	 Correlation Energy        =      -2.0517537091786040 [Eh]
	 Total Energy              =    -821.5488203206897424 [Eh]

	 ================> DF-SCS-MP2 Energies <==================
	-----------------------------------------------------------
	 SCS Same-Spin Scale       =       0.3333333333333333 [-]
	 SCS Opposite-Spin Scale   =       1.2000000000000000 [-]
	 SCS Same-Spin Energy      =      -0.1610795331311790 [Eh]
	 SCS Opposite-Spin Energy  =      -1.8822181317420799 [Eh]
	 SCS Correlation Energy    =      -2.0432976648732590 [Eh]
	 SCS Total Energy          =    -821.5403642763844800 [Eh]
	-----------------------------------------------------------

  Dipole Moment: [D]
     X:    -0.7497      Y:    -0.3080      Z:    -2.5199     Total:     2.6470

*** Psi4 exiting successfully. Buy a developer a beer!
