                               Psi4 1.4a3.dev225

  ==> Input File <==

--------------------------------------------------------------------------
#psi4
#
memory 32 gb

molecule  {
0 1
  S        1.5586770    -0.2994370    -0.7152220
  O       -1.5255240    -0.4876820     1.0921970
  O        0.7924220     1.7006740     0.8461850
  C       -0.8878030     0.9736540    -0.7120840
  C       -3.2304390    -0.0998550    -0.5631210
  C       -1.8858298     0.0341187     0.0729270
  C        0.4791140     0.9485020    -0.0654040
  C       -4.1634610    -0.9398430     0.2972900
  C        2.9497330    -0.0790050     0.4324980
  C        4.0540790    -1.0751370     0.1033520
  H       -0.8484610     0.6756560    -1.7668750
  H       -1.2645150     2.0025910    -0.6674260
  H       -3.6447290     0.9013370    -0.7419330
  H       -3.1015980    -0.5455960    -1.5588690
  H       -5.1413450    -1.0357370    -0.1813640
  H       -3.7504260    -1.9381500     0.4523140
  H       -4.2995020    -0.4825820     1.2793320
  H        3.3022180     0.9509290     0.3487650
  H        2.5726230    -0.2199470     1.4475820
  H        3.7004310    -2.1050230     0.1947960
  H        4.4320470    -0.9299840    -0.9117720
  H        4.8873260    -0.9394890     0.7982930
units angstrom
no_reorient  #important for SAPT in psi4, default
symmetry c1  #important for SAPT in psi4, default
}

set PROPERTIES_ORIGIN ["COM"]
properties('MP2/aug-cc-pvtz', properties = ['dipole'])
--------------------------------------------------------------------------

    Molecular point group: c1
  Charge       = 0
  Multiplicity = 1
  Basis Set: AUG-CC-PVTZ
    Blend: AUG-CC-PVTZ
  Basis Set: (AUG-CC-PVTZ AUX)
    Blend: AUG-CC-PVTZ-JKFIT

    Orbital Energies [Eh]
    ---------------------

    Doubly Occupied:

       1A    -91.966765     2A    -20.562239     3A    -20.552804
       4A    -11.362785     5A    -11.349242     6A    -11.262771
       7A    -11.260412     8A    -11.252808     9A    -11.229235
      10A    -11.225948    11A     -8.968568    12A     -6.649761
      13A     -6.648621    14A     -6.647984    15A     -1.411397
      16A     -1.387210    17A     -1.090187    18A     -1.078237
      19A     -1.039458    20A     -0.966431    21A     -0.899777
      22A     -0.834132    23A     -0.757921    24A     -0.725830
      25A     -0.681549    26A     -0.667537    27A     -0.648610
      28A     -0.638545    29A     -0.631885    30A     -0.616727
      31A     -0.587796    32A     -0.558848    33A     -0.545865
      34A     -0.532595    35A     -0.528788    36A     -0.524251
      37A     -0.514851    38A     -0.503919    39A     -0.501039
      40A     -0.461225    41A     -0.428103    42A     -0.403600
      43A     -0.366701

  @DF-RHF Final Energy:  -819.49585916172339

   => Energetics <=

    Nuclear Repulsion Energy =            610.1804770419429360
    One-Electron Energy =               -2336.4067590452677905
    Two-Electron Energy =                 906.7304228416013530
    Total Energy =                       -819.4958591617233878
  Basis Set: (AUG-CC-PVTZ AUX)
    Blend: AUG-CC-PVTZ-RI
    Molecular point group: c1

    Geometry (in Angstrom), charge = 0, multiplicity = 1:

       Center              X                  Y                   Z               Mass
    ------------   -----------------  -----------------  -----------------  -----------------
         S            1.541730908642    -0.319946205243    -0.725251229475    31.972071174400
         O           -1.542470091358    -0.508191205243     1.082167770525    15.994914619570
         O            0.775475908642     1.680164794757     0.836155770525    15.994914619570
         C           -0.904749091358     0.953144794757    -0.722113229475    12.000000000000
         C           -3.247385091358    -0.120364205243    -0.573150229475    12.000000000000
         C           -1.902775891358     0.013609494757     0.062897770525    12.000000000000
         C            0.462167908642     0.927992794757    -0.075433229475    12.000000000000
         C           -4.180407091358    -0.960352205243     0.287260770525    12.000000000000
         C            2.932786908642    -0.099514205243     0.422468770525    12.000000000000
         C            4.037132908642    -1.095646205243     0.093322770525    12.000000000000
         H           -0.865407091358     0.655146794757    -1.776904229475     1.007825032230
         H           -1.281461091358     1.982081794757    -0.677455229475     1.007825032230
         H           -3.661675091358     0.880827794757    -0.751962229475     1.007825032230
         H           -3.118544091358    -0.566105205243    -1.568898229475     1.007825032230
         H           -5.158291091358    -1.056246205243    -0.191393229475     1.007825032230
         H           -3.767372091358    -1.958659205243     0.442284770525     1.007825032230
         H           -4.316448091358    -0.503091205243     1.269302770525     1.007825032230
         H            3.285271908642     0.930419794757     0.338735770525     1.007825032230
         H            2.555676908642    -0.240456205243     1.437552770525     1.007825032230
         H            3.683484908642    -2.125532205243     0.184766770525     1.007825032230
         H            4.415100908642    -0.950493205243    -0.921801229475     1.007825032230
         H            4.870379908642    -0.959998205243     0.788263770525     1.007825032230

  Basis Set: AUG-CC-PVTZ
    Blend: AUG-CC-PVTZ
  Basis Set: (AUG-CC-PVTZ AUX)
    Blend: AUG-CC-PVTZ-JKFIT
	 Reference Energy          =    -819.4958591617233878 [Eh]
	 Singles Energy            =      -0.0000000000000000 [Eh]
	 Same-Spin Energy          =      -0.4839639332955640 [Eh]
	 Opposite-Spin Energy      =      -1.5700043727737785 [Eh]
	 Correlation Energy        =      -2.0539683060693426 [Eh]
	 Total Energy              =    -821.5498274677927384 [Eh]

	 ================> DF-SCS-MP2 Energies <==================
	-----------------------------------------------------------
	 SCS Same-Spin Scale       =       0.3333333333333333 [-]
	 SCS Opposite-Spin Scale   =       1.2000000000000000 [-]
	 SCS Same-Spin Energy      =      -0.1613213110985213 [Eh]
	 SCS Opposite-Spin Energy  =      -1.8840052473285340 [Eh]
	 SCS Correlation Energy    =      -2.0453265584270555 [Eh]
	 SCS Total Energy          =    -821.5411857201504517 [Eh]
	-----------------------------------------------------------

  Dipole Moment: [D]
     X:    -1.0116      Y:    -0.3544      Z:    -2.5914     Total:     2.8043

*** Psi4 exiting successfully. Buy a developer a beer!
