                               Psi4 1.3.2 release

  ==> Input File <==

--------------------------------------------------------------------------
#psi4
#
memory 32 gb

molecule  {
0 1
  S        1.8142300     0.7226310    -0.3411240
  O       -1.8538037    -0.9359038    -0.8009779
  O        0.4941690    -1.0618130     1.1146640
  C       -0.8358188     0.8419002     0.4815680
  C       -3.3832440     0.5955310     0.2374230
  C       -2.0096370     0.0521440    -0.0950140
  C        0.4326040    -0.0039200     0.5084100
  C       -4.5116740    -0.2794210    -0.2844450
  C        3.0576300    -0.5565920    -0.0082180
  C        4.4432860    -0.0468870    -0.3740170
  H       -0.6942050     1.7459430    -0.1201930
  H       -1.0474180     1.1506300     1.5016930
  H       -3.4528060     0.7235440     1.3254800
  H       -3.4442640     1.6111560    -0.1826160
  H       -5.4818800     0.1657790    -0.0500790
  H       -4.4326880    -0.4035450    -1.3660960
  H       -4.4661600    -1.2732880     0.1669010
  H        2.9964590    -0.8086780     1.0500210
  H        2.8025100    -1.4530070    -0.5759610
  H        4.5013120     0.2245390    -1.4310650
  H        4.7086350     0.8297180     0.2214350
  H        5.1861620    -0.8265290    -0.1846820
units angstrom
no_reorient  #important for SAPT in psi4, default
symmetry c1  #important for SAPT in psi4, default
}

set PROPERTIES_ORIGIN ["COM"]
properties('MP2/aug-cc-pvtz', properties = ['dipole'])
--------------------------------------------------------------------------

    Molecular point group: c1
  Charge       = 0
  Multiplicity = 1
  Basis Set: AUG-CC-PVTZ
    Blend: AUG-CC-PVTZ
  Basis Set: (AUG-CC-PVTZ AUX)
    Blend: AUG-CC-PVTZ-JKFIT

    Orbital Energies [Eh]
    ---------------------

    Doubly Occupied:

       1A    -91.972424     2A    -20.555839     3A    -20.555546
       4A    -11.368164     5A    -11.346042     6A    -11.266981
       7A    -11.262853     8A    -11.248950     9A    -11.231812
      10A    -11.221695    11A     -8.974023    12A     -6.655175
      13A     -6.654048    14A     -6.653434    15A     -1.397305
      16A     -1.384140    17A     -1.093786    18A     -1.077226
      19A     -1.041777    20A     -0.972454    21A     -0.895386
      22A     -0.837854    23A     -0.758968    24A     -0.727469
      25A     -0.677798    26A     -0.669015    27A     -0.647517
      28A     -0.637593    29A     -0.633926    30A     -0.608975
      31A     -0.596428    32A     -0.559940    33A     -0.546145
      34A     -0.532891    35A     -0.527260    36A     -0.520447
      37A     -0.512188    38A     -0.504977    39A     -0.488856
      40A     -0.465452    41A     -0.429944    42A     -0.405665
      43A     -0.371393

  @DF-RHF Final Energy:  -819.49463504119774

   => Energetics <=

    Nuclear Repulsion Energy =            603.1643901470122273
    One-Electron Energy =               -2322.3385191854554250
    Two-Electron Energy =                 899.6794939972454586
    Total Energy =                       -819.4946350411977392
  Basis Set: (AUG-CC-PVTZ AUX)
    Blend: AUG-CC-PVTZ-RI
    Molecular point group: c1

    Geometry (in Angstrom), charge = 0, multiplicity = 1:

       Center              X                  Y                   Z               Mass
    ------------   -----------------  -----------------  -----------------  -----------------
         S            1.815924655409     0.722111059024    -0.341480376951    31.972071174400
         O           -1.852109044591    -0.936423740976    -0.801334276951    15.994914619570
         O            0.495863655409    -1.062332940976     1.114307623049    15.994914619570
         C           -0.834124144591     0.841380259024     0.481211623049    12.000000000000
         C           -3.381549344591     0.595011059024     0.237066623049    12.000000000000
         C           -2.007942344591     0.051624059024    -0.095370376951    12.000000000000
         C            0.434298655409    -0.004439940976     0.508053623049    12.000000000000
         C           -4.509979344591    -0.279940940976    -0.284801376951    12.000000000000
         C            3.059324655409    -0.557111940976    -0.008574376951    12.000000000000
         C            4.444980655409    -0.047406940976    -0.374373376951    12.000000000000
         H           -0.692510344591     1.745423059024    -0.120549376951     1.007825032230
         H           -1.045723344591     1.150110059024     1.501336623049     1.007825032230
         H           -3.451111344591     0.723024059024     1.325123623049     1.007825032230
         H           -3.442569344591     1.610636059024    -0.182972376951     1.007825032230
         H           -5.480185344591     0.165259059024    -0.050435376951     1.007825032230
         H           -4.430993344591    -0.404064940976    -1.366452376951     1.007825032230
         H           -4.464465344591    -1.273807940976     0.166544623049     1.007825032230
         H            2.998153655409    -0.809197940976     1.049664623049     1.007825032230
         H            2.804204655409    -1.453526940976    -0.576317376951     1.007825032230
         H            4.503006655409     0.224019059024    -1.431421376951     1.007825032230
         H            4.710329655409     0.829198059024     0.221078623049     1.007825032230
         H            5.187856655409    -0.827048940976    -0.185038376951     1.007825032230

  Basis Set: AUG-CC-PVTZ
    Blend: AUG-CC-PVTZ
  Basis Set: (AUG-CC-PVTZ AUX)
    Blend: AUG-CC-PVTZ-JKFIT
	 Reference Energy          =    -819.4946350411977392 [Eh]
	 Singles Energy            =      -0.0000000000000000 [Eh]
	 Same-Spin Energy          =      -0.4841538299467308 [Eh]
	 Opposite-Spin Energy      =      -1.5710041388964915 [Eh]
	 Correlation Energy        =      -2.0551579688432224 [Eh]
	 Total Energy              =    -821.5497930100409576 [Eh]

	 ================> DF-SCS-MP2 Energies <==================
	-----------------------------------------------------------
	 SCS Same-Spin Scale       =       0.3333333333333333 [-]
	 SCS Opposite-Spin Scale   =       1.2000000000000000 [-]
	 SCS Same-Spin Energy      =      -0.1613846099822436 [Eh]
	 SCS Opposite-Spin Energy  =      -1.8852049666757897 [Eh]
	 SCS Correlation Energy    =      -2.0465895766580333 [Eh]
	 SCS Total Energy          =    -821.5412246178557325 [Eh]
	-----------------------------------------------------------

  Dipole Moment: [D]
     X:     0.0586      Y:     2.8303      Z:     0.6874     Total:     2.9132

*** Psi4 exiting successfully. Buy a developer a beer!
