                               Psi4 1.3.2 release

  ==> Input File <==

--------------------------------------------------------------------------
#psi4
#
memory 32 gb

molecule  {
0 1
  S        1.8142300     0.7226310    -0.3411240
  O       -1.8432130    -0.9348080    -0.8000930
  O        0.4941690    -1.0618130     1.1146640
  C       -0.8273310     0.8335030     0.4756360
  C       -3.3832440     0.5955310     0.2374230
  C       -2.0059878     0.0334497    -0.0763547
  C        0.4326040    -0.0039200     0.5084100
  C       -4.5116740    -0.2794210    -0.2844450
  C        3.0576300    -0.5565920    -0.0082180
  C        4.4432860    -0.0468870    -0.3740170
  H       -0.6793699     1.7508259    -0.1090927
  H       -1.0474180     1.1506300     1.5016930
  H       -3.4528060     0.7235440     1.3254800
  H       -3.4442640     1.6111560    -0.1826160
  H       -5.4818800     0.1657790    -0.0500790
  H       -4.4326880    -0.4035450    -1.3660960
  H       -4.4661600    -1.2732880     0.1669010
  H        2.9964590    -0.8086780     1.0500210
  H        2.8025100    -1.4530070    -0.5759610
  H        4.5013120     0.2245390    -1.4310650
  H        4.7086350     0.8297180     0.2214350
  H        5.1861620    -0.8265290    -0.1846820
units angstrom
no_reorient  #important for SAPT in psi4, default
symmetry c1  #important for SAPT in psi4, default
}

set PROPERTIES_ORIGIN ["COM"]
properties('MP2/aug-cc-pvtz', properties = ['dipole'])
--------------------------------------------------------------------------

    Molecular point group: c1
  Charge       = 0
  Multiplicity = 1
  Basis Set: AUG-CC-PVTZ
    Blend: AUG-CC-PVTZ
  Basis Set: (AUG-CC-PVTZ AUX)
    Blend: AUG-CC-PVTZ-JKFIT

    Orbital Energies [Eh]
    ---------------------

    Doubly Occupied:

       1A    -91.972112     2A    -20.556318     3A    -20.554960
       4A    -11.367195     5A    -11.346041     6A    -11.266654
       7A    -11.262666     8A    -11.249611     9A    -11.231662
      10A    -11.222003    11A     -8.973733    12A     -6.654887
      13A     -6.653758    14A     -6.653145    15A     -1.398783
      16A     -1.385924    17A     -1.093826    18A     -1.076446
      19A     -1.042391    20A     -0.972039    21A     -0.895149
      22A     -0.837562    23A     -0.759635    24A     -0.727563
      25A     -0.679029    26A     -0.667570    27A     -0.648325
      28A     -0.637185    29A     -0.633925    30A     -0.609572
      31A     -0.595023    32A     -0.559799    33A     -0.545951
      34A     -0.533395    35A     -0.527213    36A     -0.520817
      37A     -0.512275    38A     -0.504431    39A     -0.489844
      40A     -0.465399    41A     -0.429879    42A     -0.405748
      43A     -0.371199

  @DF-RHF Final Energy:  -819.49483452693801

   => Energetics <=

    Nuclear Repulsion Energy =            603.5199031473428022
    One-Electron Energy =               -2323.0481920904749131
    Two-Electron Energy =                 900.0334544161941039
    Total Energy =                       -819.4948345269380070
  Basis Set: (AUG-CC-PVTZ AUX)
    Blend: AUG-CC-PVTZ-RI
    Molecular point group: c1

    Geometry (in Angstrom), charge = 0, multiplicity = 1:

       Center              X                  Y                   Z               Mass
    ------------   -----------------  -----------------  -----------------  -----------------
         S            1.813862921153     0.724001959961    -0.342592918073    31.972071174400
         O           -1.843580078847    -0.933437040039    -0.801561918073    15.994914619570
         O            0.493801921153    -1.060442040039     1.113195081927    15.994914619570
         C           -0.827698078847     0.834873959961     0.474167081927    12.000000000000
         C           -3.383611078847     0.596901959961     0.235954081927    12.000000000000
         C           -2.006354878847     0.034820659961    -0.077823618073    12.000000000000
         C            0.432236921153    -0.002549040039     0.506941081927    12.000000000000
         C           -4.512041078847    -0.278050040039    -0.285913918073    12.000000000000
         C            3.057262921153    -0.555221040039    -0.009686918073    12.000000000000
         C            4.442918921153    -0.045516040039    -0.375485918073    12.000000000000
         H           -0.679736978847     1.752196859961    -0.110561618073     1.007825032230
         H           -1.047785078847     1.152000959961     1.500224081927     1.007825032230
         H           -3.453173078847     0.724914959961     1.324011081927     1.007825032230
         H           -3.444631078847     1.612526959961    -0.184084918073     1.007825032230
         H           -5.482247078847     0.167149959961    -0.051547918073     1.007825032230
         H           -4.433055078847    -0.402174040039    -1.367564918073     1.007825032230
         H           -4.466527078847    -1.271917040039     0.165432081927     1.007825032230
         H            2.996091921153    -0.807307040039     1.048552081927     1.007825032230
         H            2.802142921153    -1.451636040039    -0.577429918073     1.007825032230
         H            4.500944921153     0.225909959961    -1.432533918073     1.007825032230
         H            4.708267921153     0.831088959961     0.219966081927     1.007825032230
         H            5.185794921153    -0.825158040039    -0.186150918073     1.007825032230

  Basis Set: AUG-CC-PVTZ
    Blend: AUG-CC-PVTZ
  Basis Set: (AUG-CC-PVTZ AUX)
    Blend: AUG-CC-PVTZ-JKFIT
	 Reference Energy          =    -819.4948345269380070 [Eh]
	 Singles Energy            =      -0.0000000000000000 [Eh]
	 Same-Spin Energy          =      -0.4840870214371565 [Eh]
	 Opposite-Spin Energy      =      -1.5708257947666289 [Eh]
	 Correlation Energy        =      -2.0549128162037853 [Eh]
	 Total Energy              =    -821.5497473431418030 [Eh]

	 ================> DF-SCS-MP2 Energies <==================
	-----------------------------------------------------------
	 SCS Same-Spin Scale       =       0.3333333333333333 [-]
	 SCS Opposite-Spin Scale   =       1.2000000000000000 [-]
	 SCS Same-Spin Energy      =      -0.1613623404790522 [Eh]
	 SCS Opposite-Spin Energy  =      -1.8849909537199545 [Eh]
	 SCS Correlation Energy    =      -2.0463532941990068 [Eh]
	 SCS Total Energy          =    -821.5411878211369867 [Eh]
	-----------------------------------------------------------

  Dipole Moment: [D]
     X:     0.0219      Y:     2.8145      Z:     0.6825     Total:     2.8961

*** Psi4 exiting successfully. Buy a developer a beer!
