                               Psi4 1.4a3.dev225

  ==> Input File <==

--------------------------------------------------------------------------
#psi4
#
memory 32 gb

molecule  {
0 1
  S        1.5586770    -0.2994370    -0.7152220
  O       -1.5255240    -0.4876820     1.0921970
  O        0.7924220     1.7006740     0.8461850
  C       -0.8878030     0.9736540    -0.7120840
  C       -3.2304390    -0.0998550    -0.5631210
  C       -1.8542380     0.0638590     0.0480780
  C        0.4486769     0.9836862    -0.0470831
  C       -4.1634610    -0.9398430     0.2972900
  C        2.9497330    -0.0790050     0.4324980
  C        4.0540790    -1.0751370     0.1033520
  H       -0.8484610     0.6756560    -1.7668750
  H       -1.2645150     2.0025910    -0.6674260
  H       -3.6447290     0.9013370    -0.7419330
  H       -3.1015980    -0.5455960    -1.5588690
  H       -5.1413450    -1.0357370    -0.1813640
  H       -3.7504260    -1.9381500     0.4523140
  H       -4.2995020    -0.4825820     1.2793320
  H        3.3022180     0.9509290     0.3487650
  H        2.5726230    -0.2199470     1.4475820
  H        3.7004310    -2.1050230     0.1947960
  H        4.4320470    -0.9299840    -0.9117720
  H        4.8873260    -0.9394890     0.7982930
units angstrom
no_reorient  #important for SAPT in psi4, default
symmetry c1  #important for SAPT in psi4, default
}

set PROPERTIES_ORIGIN ["COM"]
properties('MP2/aug-cc-pvtz', properties = ['dipole'])
--------------------------------------------------------------------------

    Molecular point group: c1
  Charge       = 0
  Multiplicity = 1
  Basis Set: AUG-CC-PVTZ
    Blend: AUG-CC-PVTZ
  Basis Set: (AUG-CC-PVTZ AUX)
    Blend: AUG-CC-PVTZ-JKFIT

    Orbital Energies [Eh]
    ---------------------

    Doubly Occupied:

       1A    -91.961125     2A    -20.562126     3A    -20.561273
       4A    -11.366589     5A    -11.352238     6A    -11.268077
       7A    -11.258165     8A    -11.253831     9A    -11.227366
      10A    -11.225588    11A     -8.962382    12A     -6.643497
      13A     -6.642470    14A     -6.641793    15A     -1.414541
      16A     -1.392598    17A     -1.092700    18A     -1.074351
      19A     -1.046751    20A     -0.960572    21A     -0.899877
      22A     -0.830998    23A     -0.764015    24A     -0.729649
      25A     -0.681425    26A     -0.673656    27A     -0.657303
      28A     -0.639081    29A     -0.629608    30A     -0.614349
      31A     -0.591386    32A     -0.561506    33A     -0.550545
      34A     -0.534142    35A     -0.525942    36A     -0.523475
      37A     -0.514077    38A     -0.506597    39A     -0.495495
      40A     -0.459690    41A     -0.432862    42A     -0.401180
      43A     -0.362416

  @DF-RHF Final Energy:  -819.49609507097216

   => Energetics <=

    Nuclear Repulsion Energy =            610.0448362054394238
    One-Electron Energy =               -2336.1072460205459720
    Two-Electron Energy =                 906.5663147441343881
    Total Energy =                       -819.4960950709721601
  Basis Set: (AUG-CC-PVTZ AUX)
    Blend: AUG-CC-PVTZ-RI
    Molecular point group: c1

    Geometry (in Angstrom), charge = 0, multiplicity = 1:

       Center              X                  Y                   Z               Mass
    ------------   -----------------  -----------------  -----------------  -----------------
         S            1.541644336335    -0.324813845129    -0.724761792668    31.972071174400
         O           -1.542556663665    -0.513058845129     1.082657207332    15.994914619570
         O            0.775389336335     1.675297154871     0.836645207332    15.994914619570
         C           -0.904835663665     0.948277154871    -0.721623792668    12.000000000000
         C           -3.247471663665    -0.125231845129    -0.572660792668    12.000000000000
         C           -1.871270663665     0.038482154871     0.038538207332    12.000000000000
         C            0.431644236335     0.958309354871    -0.056622892668    12.000000000000
         C           -4.180493663665    -0.965219845129     0.287750207332    12.000000000000
         C            2.932700336335    -0.104381845129     0.422958207332    12.000000000000
         C            4.037046336335    -1.100513845129     0.093812207332    12.000000000000
         H           -0.865493663665     0.650279154871    -1.776414792668     1.007825032230
         H           -1.281547663665     1.977214154871    -0.676965792668     1.007825032230
         H           -3.661761663665     0.875960154871    -0.751472792668     1.007825032230
         H           -3.118630663665    -0.570972845129    -1.568408792668     1.007825032230
         H           -5.158377663665    -1.061113845129    -0.190903792668     1.007825032230
         H           -3.767458663665    -1.963526845129     0.442774207332     1.007825032230
         H           -4.316534663665    -0.507958845129     1.269792207332     1.007825032230
         H            3.285185336335     0.925552154871     0.339225207332     1.007825032230
         H            2.555590336335    -0.245323845129     1.438042207332     1.007825032230
         H            3.683398336335    -2.130399845129     0.185256207332     1.007825032230
         H            4.415014336335    -0.955360845129    -0.921311792668     1.007825032230
         H            4.870293336335    -0.964865845129     0.788753207332     1.007825032230

  Basis Set: AUG-CC-PVTZ
    Blend: AUG-CC-PVTZ
  Basis Set: (AUG-CC-PVTZ AUX)
    Blend: AUG-CC-PVTZ-JKFIT
	 Reference Energy          =    -819.4960950709721601 [Eh]
	 Singles Energy            =      -0.0000000000000000 [Eh]
	 Same-Spin Energy          =      -0.4839379911079566 [Eh]
	 Opposite-Spin Energy      =      -1.5702085261389054 [Eh]
	 Correlation Energy        =      -2.0541465172468620 [Eh]
	 Total Energy              =    -821.5502415882190235 [Eh]

	 ================> DF-SCS-MP2 Energies <==================
	-----------------------------------------------------------
	 SCS Same-Spin Scale       =       0.3333333333333333 [-]
	 SCS Opposite-Spin Scale   =       1.2000000000000000 [-]
	 SCS Same-Spin Energy      =      -0.1613126637026522 [Eh]
	 SCS Opposite-Spin Energy  =      -1.8842502313666865 [Eh]
	 SCS Correlation Energy    =      -2.0455628950693385 [Eh]
	 SCS Total Energy          =    -821.5416579660414982 [Eh]
	-----------------------------------------------------------

  Dipole Moment: [D]
     X:    -1.1135      Y:     0.0718      Z:    -2.5428     Total:     2.7768

*** Psi4 exiting successfully. Buy a developer a beer!
