                               Psi4 1.3.2 release

  ==> Input File <==

--------------------------------------------------------------------------
#psi4
#
memory 32 gb

molecule  {
0 1
  S        1.8318759     0.6986808    -0.3323427
  O       -1.8432130    -0.9348080    -0.8000930
  O        0.5147431    -1.0634378     1.1093651
  C       -0.8273310     0.8335030     0.4756360
  C       -3.3832440     0.5955310     0.2374230
  C       -2.0096370     0.0521440    -0.0950140
  C        0.4326040    -0.0039200     0.5084100
  C       -4.5116740    -0.2794210    -0.2844450
  C        3.0576300    -0.5565920    -0.0082180
  C        4.4432860    -0.0468870    -0.3740170
  H       -0.6942050     1.7459430    -0.1201930
  H       -1.0474180     1.1506300     1.5016930
  H       -3.4528060     0.7235440     1.3254800
  H       -3.4442640     1.6111560    -0.1826160
  H       -5.4818800     0.1657790    -0.0500790
  H       -4.4326880    -0.4035450    -1.3660960
  H       -4.4661600    -1.2732880     0.1669010
  H        2.9964590    -0.8086780     1.0500210
  H        2.8025100    -1.4530070    -0.5759610
  H        4.5013120     0.2245390    -1.4310650
  H        4.7086350     0.8297180     0.2214350
  H        5.1861620    -0.8265290    -0.1846820
units angstrom
no_reorient  #important for SAPT in psi4, default
symmetry c1  #important for SAPT in psi4, default
}

set PROPERTIES_ORIGIN ["COM"]
properties('MP2/aug-cc-pvtz', properties = ['dipole'])
--------------------------------------------------------------------------

    Molecular point group: c1
  Charge       = 0
  Multiplicity = 1
  Basis Set: AUG-CC-PVTZ
    Blend: AUG-CC-PVTZ
  Basis Set: (AUG-CC-PVTZ AUX)
    Blend: AUG-CC-PVTZ-JKFIT

    Orbital Energies [Eh]
    ---------------------

    Doubly Occupied:

       1A    -91.969465     2A    -20.556443     3A    -20.554783
       4A    -11.367670     5A    -11.347049     6A    -11.268660
       7A    -11.259304     8A    -11.250580     9A    -11.231387
      10A    -11.222809    11A     -8.971665    12A     -6.652846
      13A     -6.651770    14A     -6.651102    15A     -1.397792
      16A     -1.384775    17A     -1.096588    18A     -1.079259
      19A     -1.043464    20A     -0.971652    21A     -0.897235
      22A     -0.837826    23A     -0.760193    24A     -0.727380
      25A     -0.679188    26A     -0.669664    27A     -0.649039
      28A     -0.638557    29A     -0.634850    30A     -0.609307
      31A     -0.596038    32A     -0.558935    33A     -0.546659
      34A     -0.533813    35A     -0.527247    36A     -0.521415
      37A     -0.512189    38A     -0.504793    39A     -0.489404
      40A     -0.467854    41A     -0.430032    42A     -0.405837
      43A     -0.368540

  @DF-RHF Final Energy:  -819.49443850671480

   => Energetics <=

    Nuclear Repulsion Energy =            604.0926015174477470
    One-Electron Energy =               -2324.1839620910077429
    Two-Electron Energy =                 900.5969220668451953
    Total Energy =                       -819.4944385067148005
  Basis Set: (AUG-CC-PVTZ AUX)
    Blend: AUG-CC-PVTZ-RI
    Molecular point group: c1

    Geometry (in Angstrom), charge = 0, multiplicity = 1:

       Center              X                  Y                   Z               Mass
    ------------   -----------------  -----------------  -----------------  -----------------
         S            1.826294918537     0.703627485067    -0.333567341611    31.972071174400
         O           -1.848793981463    -0.929861314933    -0.801317641611    15.994914619570
         O            0.509162118537    -1.058491114933     1.108140458389    15.994914619570
         C           -0.832911981463     0.838449685067     0.474411358389    12.000000000000
         C           -3.388824981463     0.600477685067     0.236198358389    12.000000000000
         C           -2.015217981463     0.057090685067    -0.096238641611    12.000000000000
         C            0.427023018537     0.001026685067     0.507185358389    12.000000000000
         C           -4.517254981463    -0.274474314933    -0.285669641611    12.000000000000
         C            3.052049018537    -0.551645314933    -0.009442641611    12.000000000000
         C            4.437705018537    -0.041940314933    -0.375241641611    12.000000000000
         H           -0.699785981463     1.750889685067    -0.121417641611     1.007825032230
         H           -1.052998981463     1.155576685067     1.500468358389     1.007825032230
         H           -3.458386981463     0.728490685067     1.324255358389     1.007825032230
         H           -3.449844981463     1.616102685067    -0.183840641611     1.007825032230
         H           -5.487460981463     0.170725685067    -0.051303641611     1.007825032230
         H           -4.438268981463    -0.398598314933    -1.367320641611     1.007825032230
         H           -4.471740981463    -1.268341314933     0.165676358389     1.007825032230
         H            2.990878018537    -0.803731314933     1.048796358389     1.007825032230
         H            2.796929018537    -1.448060314933    -0.577185641611     1.007825032230
         H            4.495731018537     0.229485685067    -1.432289641611     1.007825032230
         H            4.703054018537     0.834664685067     0.220210358389     1.007825032230
         H            5.180581018537    -0.821582314933    -0.185906641611     1.007825032230

  Basis Set: AUG-CC-PVTZ
    Blend: AUG-CC-PVTZ
  Basis Set: (AUG-CC-PVTZ AUX)
    Blend: AUG-CC-PVTZ-JKFIT
	 Reference Energy          =    -819.4944385067148005 [Eh]
	 Singles Energy            =      -0.0000000000000000 [Eh]
	 Same-Spin Energy          =      -0.4844001539077261 [Eh]
	 Opposite-Spin Energy      =      -1.5708696801909472 [Eh]
	 Correlation Energy        =      -2.0552698340986733 [Eh]
	 Total Energy              =    -821.5497083408134813 [Eh]

	 ================> DF-SCS-MP2 Energies <==================
	-----------------------------------------------------------
	 SCS Same-Spin Scale       =       0.3333333333333333 [-]
	 SCS Opposite-Spin Scale   =       1.2000000000000000 [-]
	 SCS Same-Spin Energy      =      -0.1614667179692420 [Eh]
	 SCS Opposite-Spin Energy  =      -1.8850436162291366 [Eh]
	 SCS Correlation Energy    =      -2.0465103341983788 [Eh]
	 SCS Total Energy          =    -821.5409488409131882 [Eh]
	-----------------------------------------------------------

  Dipole Moment: [D]
     X:    -0.0882      Y:     2.8325      Z:     0.7033     Total:     2.9199

*** Psi4 exiting successfully. Buy a developer a beer!
