                               Psi4 1.4a3.dev225

  ==> Input File <==

--------------------------------------------------------------------------
#psi4
#
memory 32 gb

molecule  {
0 1
  S        1.5586770    -0.2994370    -0.7152220
  O       -1.5255240    -0.4876820     1.0921970
  O        0.7924220     1.7006740     0.8461850
  C       -0.8878030     0.9736540    -0.7120840
  C       -3.2304390    -0.0998550    -0.5631210
  C       -1.8542380     0.0638590     0.0480780
  C        0.4912888     0.9344283    -0.0727324
  C       -4.1634610    -0.9398430     0.2972900
  C        2.9497330    -0.0790050     0.4324980
  C        4.0540790    -1.0751370     0.1033520
  H       -0.8484610     0.6756560    -1.7668750
  H       -1.2645150     2.0025910    -0.6674260
  H       -3.6447290     0.9013370    -0.7419330
  H       -3.1015980    -0.5455960    -1.5588690
  H       -5.1413450    -1.0357370    -0.1813640
  H       -3.7504260    -1.9381500     0.4523140
  H       -4.2995020    -0.4825820     1.2793320
  H        3.3022180     0.9509290     0.3487650
  H        2.5726230    -0.2199470     1.4475820
  H        3.7004310    -2.1050230     0.1947960
  H        4.4320470    -0.9299840    -0.9117720
  H        4.8873260    -0.9394890     0.7982930
units angstrom
no_reorient  #important for SAPT in psi4, default
symmetry c1  #important for SAPT in psi4, default
}

set PROPERTIES_ORIGIN ["COM"]
properties('MP2/aug-cc-pvtz', properties = ['dipole'])
--------------------------------------------------------------------------

    Molecular point group: c1
  Charge       = 0
  Multiplicity = 1
  Basis Set: AUG-CC-PVTZ
    Blend: AUG-CC-PVTZ
  Basis Set: (AUG-CC-PVTZ AUX)
    Blend: AUG-CC-PVTZ-JKFIT

    Orbital Energies [Eh]
    ---------------------

    Doubly Occupied:

       1A    -91.971100     2A    -20.558445     3A    -20.552210
       4A    -11.365080     5A    -11.349004     6A    -11.265923
       7A    -11.262896     8A    -11.251862     9A    -11.231090
      10A    -11.224160    11A     -8.973163    12A     -6.654393
      13A     -6.653193    14A     -6.652575    15A     -1.393681
      16A     -1.378955    17A     -1.094685    18A     -1.077259
      19A     -1.042283    20A     -0.973374    21A     -0.896975
      22A     -0.838077    23A     -0.759812    24A     -0.725573
      25A     -0.677407    26A     -0.668389    27A     -0.647012
      28A     -0.635481    29A     -0.633394    30A     -0.609198
      31A     -0.590843    32A     -0.559349    33A     -0.544779
      34A     -0.530121    35A     -0.526553    36A     -0.522006
      37A     -0.512439    38A     -0.502809    39A     -0.493295
      40A     -0.463701    41A     -0.432037    42A     -0.407907
      43A     -0.370105

  @DF-RHF Final Energy:  -819.49414048721985

   => Energetics <=

    Nuclear Repulsion Energy =            610.3062379940148503
    One-Electron Energy =               -2336.6555692524375445
    Two-Electron Energy =                 906.8551907712029561
    Total Energy =                       -819.4941404872198518
  Basis Set: (AUG-CC-PVTZ AUX)
    Blend: AUG-CC-PVTZ-RI
    Molecular point group: c1

    Geometry (in Angstrom), charge = 0, multiplicity = 1:

       Center              X                  Y                   Z               Mass
    ------------   -----------------  -----------------  -----------------  -----------------
         S            1.538449558030    -0.321120790600    -0.722838765833    31.972071174400
         O           -1.545751441970    -0.509365790600     1.084580234167    15.994914619570
         O            0.772194558030     1.678990209400     0.838568234167    15.994914619570
         C           -0.908030441970     0.951970209400    -0.719700765833    12.000000000000
         C           -3.250666441970    -0.121538790600    -0.570737765833    12.000000000000
         C           -1.874465441970     0.042175209400     0.040461234167    12.000000000000
         C            0.471061358030     0.912744509400    -0.080349165833    12.000000000000
         C           -4.183688441970    -0.961526790600     0.289673234167    12.000000000000
         C            2.929505558030    -0.100688790600     0.424881234167    12.000000000000
         C            4.033851558030    -1.096820790600     0.095735234167    12.000000000000
         H           -0.868688441970     0.653972209400    -1.774491765833     1.007825032230
         H           -1.284742441970     1.980907209400    -0.675042765833     1.007825032230
         H           -3.664956441970     0.879653209400    -0.749549765833     1.007825032230
         H           -3.121825441970    -0.567279790600    -1.566485765833     1.007825032230
         H           -5.161572441970    -1.057420790600    -0.188980765833     1.007825032230
         H           -3.770653441970    -1.959833790600     0.444697234167     1.007825032230
         H           -4.319729441970    -0.504265790600     1.271715234167     1.007825032230
         H            3.281990558030     0.929245209400     0.341148234167     1.007825032230
         H            2.552395558030    -0.241630790600     1.439965234167     1.007825032230
         H            3.680203558030    -2.126706790600     0.187179234167     1.007825032230
         H            4.411819558030    -0.951667790600    -0.919388765833     1.007825032230
         H            4.867098558030    -0.961172790600     0.790676234167     1.007825032230

  Basis Set: AUG-CC-PVTZ
    Blend: AUG-CC-PVTZ
  Basis Set: (AUG-CC-PVTZ AUX)
    Blend: AUG-CC-PVTZ-JKFIT
	 Reference Energy          =    -819.4941404872198518 [Eh]
	 Singles Energy            =      -0.0000000000000000 [Eh]
	 Same-Spin Energy          =      -0.4848591902427889 [Eh]
	 Opposite-Spin Energy      =      -1.5719690115794176 [Eh]
	 Correlation Energy        =      -2.0568282018222064 [Eh]
	 Total Energy              =    -821.5509686890420653 [Eh]

	 ================> DF-SCS-MP2 Energies <==================
	-----------------------------------------------------------
	 SCS Same-Spin Scale       =       0.3333333333333333 [-]
	 SCS Opposite-Spin Scale   =       1.2000000000000000 [-]
	 SCS Same-Spin Energy      =      -0.1616197300809296 [Eh]
	 SCS Opposite-Spin Energy  =      -1.8863628138953010 [Eh]
	 SCS Correlation Energy    =      -2.0479825439762305 [Eh]
	 SCS Total Energy          =    -821.5421230311960699 [Eh]
	-----------------------------------------------------------

  Dipole Moment: [D]
     X:    -0.6153      Y:    -0.3243      Z:    -2.7457     Total:     2.8324

*** Psi4 exiting successfully. Buy a developer a beer!
