                               Psi4 1.3.2 release

  ==> Input File <==

--------------------------------------------------------------------------
#psi4
#
memory 32 gb

molecule  {
0 1
  S        1.8142300     0.7226310    -0.3411240
  O       -1.8432130    -0.9348080    -0.8000930
  O        0.4941690    -1.0618130     1.1146640
  C       -0.8273310     0.8335030     0.4756360
  C       -3.3832440     0.5955310     0.2374230
  C       -2.0041306     0.0624458    -0.0888382
  C        0.4326040    -0.0039200     0.5084100
  C       -4.5205212    -0.2709655    -0.2793224
  C        3.0576300    -0.5565920    -0.0082180
  C        4.4432860    -0.0468870    -0.3740170
  H       -0.6942050     1.7459430    -0.1201930
  H       -1.0474180     1.1506300     1.5016930
  H       -3.4528060     0.7235440     1.3254800
  H       -3.4442640     1.6111560    -0.1826160
  H       -5.4818800     0.1657790    -0.0500790
  H       -4.4326880    -0.4035450    -1.3660960
  H       -4.4661600    -1.2732880     0.1669010
  H        2.9964590    -0.8086780     1.0500210
  H        2.8025100    -1.4530070    -0.5759610
  H        4.5013120     0.2245390    -1.4310650
  H        4.7086350     0.8297180     0.2214350
  H        5.1861620    -0.8265290    -0.1846820
units angstrom
no_reorient  #important for SAPT in psi4, default
symmetry c1  #important for SAPT in psi4, default
}

set PROPERTIES_ORIGIN ["COM"]
properties('MP2/aug-cc-pvtz', properties = ['dipole'])
--------------------------------------------------------------------------

    Molecular point group: c1
  Charge       = 0
  Multiplicity = 1
  Basis Set: AUG-CC-PVTZ
    Blend: AUG-CC-PVTZ
  Basis Set: (AUG-CC-PVTZ AUX)
    Blend: AUG-CC-PVTZ-JKFIT

    Orbital Energies [Eh]
    ---------------------

    Doubly Occupied:

       1A    -91.972568     2A    -20.555585     3A    -20.554558
       4A    -11.368164     5A    -11.346975     6A    -11.267810
       7A    -11.262926     8A    -11.250150     9A    -11.231858
      10A    -11.222289    11A     -8.974173    12A     -6.655326
      13A     -6.654198    14A     -6.653584    15A     -1.396040
      16A     -1.378179    17A     -1.094942    18A     -1.077995
      19A     -1.043544    20A     -0.973037    21A     -0.896828
      22A     -0.838310    23A     -0.761094    24A     -0.726947
      25A     -0.677552    26A     -0.668821    27A     -0.648525
      28A     -0.637137    29A     -0.633692    30A     -0.606236
      31A     -0.595609    32A     -0.560080    33A     -0.547816
      34A     -0.534879    35A     -0.526722    36A     -0.519314
      37A     -0.510174    38A     -0.503820    39A     -0.484768
      40A     -0.465545    41A     -0.430824    42A     -0.407656
      43A     -0.371515

  @DF-RHF Final Energy:  -819.49298288003865

   => Energetics <=

    Nuclear Repulsion Energy =            603.3074532654496807
    One-Electron Energy =               -2322.6253468797194728
    Two-Electron Energy =                 899.8249107342312527
    Total Energy =                       -819.4929828800386531
  Basis Set: (AUG-CC-PVTZ AUX)
    Blend: AUG-CC-PVTZ-RI
    Molecular point group: c1

    Geometry (in Angstrom), charge = 0, multiplicity = 1:

       Center              X                  Y                   Z               Mass
    ------------   -----------------  -----------------  -----------------  -----------------
         S            1.814480400711     0.721224815435    -0.341971147667    31.972071174400
         O           -1.842962599289    -0.936214184565    -0.800940147667    15.994914619570
         O            0.494419400711    -1.063219184565     1.113816852333    15.994914619570
         C           -0.827080599289     0.832096815435     0.474788852333    12.000000000000
         C           -3.382993599289     0.594124815435     0.236575852333    12.000000000000
         C           -2.003880199289     0.061039615435    -0.089685347667    12.000000000000
         C            0.432854400711    -0.005326184565     0.507562852333    12.000000000000
         C           -4.520270799289    -0.272371684565    -0.280169547667    12.000000000000
         C            3.057880400711    -0.557998184565    -0.009065147667    12.000000000000
         C            4.443536400711    -0.048293184565    -0.374864147667    12.000000000000
         H           -0.693954599289     1.744536815435    -0.121040147667     1.007825032230
         H           -1.047167599289     1.149223815435     1.500845852333     1.007825032230
         H           -3.452555599289     0.722137815435     1.324632852333     1.007825032230
         H           -3.444013599289     1.609749815435    -0.183463147667     1.007825032230
         H           -5.481629599289     0.164372815435    -0.050926147667     1.007825032230
         H           -4.432437599289    -0.404951184565    -1.366943147667     1.007825032230
         H           -4.465909599289    -1.274694184565     0.166053852333     1.007825032230
         H            2.996709400711    -0.810084184565     1.049173852333     1.007825032230
         H            2.802760400711    -1.454413184565    -0.576808147667     1.007825032230
         H            4.501562400711     0.223132815435    -1.431912147667     1.007825032230
         H            4.708885400711     0.828311815435     0.220587852333     1.007825032230
         H            5.186412400711    -0.827935184565    -0.185529147667     1.007825032230

  Basis Set: AUG-CC-PVTZ
    Blend: AUG-CC-PVTZ
  Basis Set: (AUG-CC-PVTZ AUX)
    Blend: AUG-CC-PVTZ-JKFIT
	 Reference Energy          =    -819.4929828800386531 [Eh]
	 Singles Energy            =      -0.0000000000000000 [Eh]
	 Same-Spin Energy          =      -0.4845483007183096 [Eh]
	 Opposite-Spin Energy      =      -1.5717955921595845 [Eh]
	 Correlation Energy        =      -2.0563438928778943 [Eh]
	 Total Energy              =    -821.5493267729165154 [Eh]

	 ================> DF-SCS-MP2 Energies <==================
	-----------------------------------------------------------
	 SCS Same-Spin Scale       =       0.3333333333333333 [-]
	 SCS Opposite-Spin Scale   =       1.2000000000000000 [-]
	 SCS Same-Spin Energy      =      -0.1615161002394365 [Eh]
	 SCS Opposite-Spin Energy  =      -1.8861547105915013 [Eh]
	 SCS Correlation Energy    =      -2.0476708108309376 [Eh]
	 SCS Total Energy          =    -821.5406536908695898 [Eh]
	-----------------------------------------------------------

  Dipole Moment: [D]
     X:     0.0511      Y:     2.8715      Z:     0.7117     Total:     2.9588

*** Psi4 exiting successfully. Buy a developer a beer!
