                               Psi4 1.3.2 release

  ==> Input File <==

--------------------------------------------------------------------------
#psi4
#
memory 32 gb

molecule  {
0 1
  S        1.8142300     0.7226310    -0.3411240
  O       -1.8432130    -0.9348080    -0.8000930
  O        0.4941690    -1.0618130     1.1146640
  C       -0.8273310     0.8335030     0.4756360
  C       -3.3832440     0.5955310     0.2374230
  C       -1.9781820     0.1145481    -0.0575959
  C        0.4326040    -0.0039200     0.5084100
  C       -4.5634450    -0.2277114    -0.2531268
  C        3.0576300    -0.5565920    -0.0082180
  C        4.4432860    -0.0468870    -0.3740170
  H       -0.6942050     1.7459430    -0.1201930
  H       -1.0474180     1.1506300     1.5016930
  H       -3.4528060     0.7235440     1.3254800
  H       -3.4442640     1.6111560    -0.1826160
  H       -5.4818800     0.1657790    -0.0500790
  H       -4.4326880    -0.4035450    -1.3660960
  H       -4.4661600    -1.2732880     0.1669010
  H        2.9964590    -0.8086780     1.0500210
  H        2.8025100    -1.4530070    -0.5759610
  H        4.5013120     0.2245390    -1.4310650
  H        4.7086350     0.8297180     0.2214350
  H        5.1861620    -0.8265290    -0.1846820
units angstrom
no_reorient  #important for SAPT in psi4, default
symmetry c1  #important for SAPT in psi4, default
}

set PROPERTIES_ORIGIN ["COM"]
properties('MP2/aug-cc-pvtz', properties = ['dipole'])
--------------------------------------------------------------------------

    Molecular point group: c1
  Charge       = 0
  Multiplicity = 1
  Basis Set: AUG-CC-PVTZ
    Blend: AUG-CC-PVTZ
  Basis Set: (AUG-CC-PVTZ AUX)
    Blend: AUG-CC-PVTZ-JKFIT

    Orbital Energies [Eh]
    ---------------------

    Doubly Occupied:

       1A    -91.974712     2A    -20.557859     3A    -20.549752
       4A    -11.371568     5A    -11.351981     6A    -11.271734
       7A    -11.264393     8A    -11.252570     9A    -11.232924
      10A    -11.223428    11A     -8.976284    12A     -6.657438
      13A     -6.656312    14A     -6.655693    15A     -1.396439
      16A     -1.344174    17A     -1.101659    18A     -1.082556
      19A     -1.047240    20A     -0.977564    21A     -0.901148
      22A     -0.841643    23A     -0.767435    24A     -0.727379
      25A     -0.676575    26A     -0.671278    27A     -0.651687
      28A     -0.636761    29A     -0.632076    30A     -0.599176
      31A     -0.593705    32A     -0.563897    33A     -0.560287
      34A     -0.538453    35A     -0.526733    36A     -0.511445
      37A     -0.506254    38A     -0.491569    39A     -0.468281
      40A     -0.462880    41A     -0.433543    42A     -0.412387
      43A     -0.373246

  @DF-RHF Final Energy:  -819.46976176180419

   => Energetics <=

    Nuclear Repulsion Energy =            602.7102426931089667
    One-Electron Energy =               -2321.3717807327161609
    Two-Electron Energy =                 899.1917762778030010
    Total Energy =                       -819.4697617618041932
  Basis Set: (AUG-CC-PVTZ AUX)
    Blend: AUG-CC-PVTZ-RI
    Molecular point group: c1

    Geometry (in Angstrom), charge = 0, multiplicity = 1:

       Center              X                  Y                   Z               Mass
    ------------   -----------------  -----------------  -----------------  -----------------
         S            1.815753096852     0.714075578767    -0.346277488309    31.972071174400
         O           -1.841689903148    -0.943363421233    -0.805246488309    15.994914619570
         O            0.495692096852    -1.070368421233     1.109510511691    15.994914619570
         C           -0.825807903148     0.824947578767     0.470482511691    12.000000000000
         C           -3.381720903148     0.586975578767     0.232269511691    12.000000000000
         C           -1.976658903148     0.105992678767    -0.062749388309    12.000000000000
         C            0.434127096852    -0.012475421233     0.503256511691    12.000000000000
         C           -4.561921903148    -0.236266821233    -0.258280288309    12.000000000000
         C            3.059153096852    -0.565147421233    -0.013371488309    12.000000000000
         C            4.444809096852    -0.055442421233    -0.379170488309    12.000000000000
         H           -0.692681903148     1.737387578767    -0.125346488309     1.007825032230
         H           -1.045894903148     1.142074578767     1.496539511691     1.007825032230
         H           -3.451282903148     0.714988578767     1.320326511691     1.007825032230
         H           -3.442740903148     1.602600578767    -0.187769488309     1.007825032230
         H           -5.480356903148     0.157223578767    -0.055232488309     1.007825032230
         H           -4.431164903148    -0.412100421233    -1.371249488309     1.007825032230
         H           -4.464636903148    -1.281843421233     0.161747511691     1.007825032230
         H            2.997982096852    -0.817233421233     1.044867511691     1.007825032230
         H            2.804033096852    -1.461562421233    -0.581114488309     1.007825032230
         H            4.502835096852     0.215983578767    -1.436218488309     1.007825032230
         H            4.710158096852     0.821162578767     0.216281511691     1.007825032230
         H            5.187685096852    -0.835084421233    -0.189835488309     1.007825032230

  Basis Set: AUG-CC-PVTZ
    Blend: AUG-CC-PVTZ
  Basis Set: (AUG-CC-PVTZ AUX)
    Blend: AUG-CC-PVTZ-JKFIT
	 Reference Energy          =    -819.4697617618041932 [Eh]
	 Singles Energy            =      -0.0000000000000000 [Eh]
	 Same-Spin Energy          =      -0.4866722270046921 [Eh]
	 Opposite-Spin Energy      =      -1.5763642761866594 [Eh]
	 Correlation Energy        =      -2.0630365031913516 [Eh]
	 Total Energy              =    -821.5327982649955629 [Eh]

	 ================> DF-SCS-MP2 Energies <==================
	-----------------------------------------------------------
	 SCS Same-Spin Scale       =       0.3333333333333333 [-]
	 SCS Opposite-Spin Scale   =       1.2000000000000000 [-]
	 SCS Same-Spin Energy      =      -0.1622240756682307 [Eh]
	 SCS Opposite-Spin Energy  =      -1.8916371314239913 [Eh]
	 SCS Correlation Energy    =      -2.0538612070922220 [Eh]
	 SCS Total Energy          =    -821.5236229688964613 [Eh]
	-----------------------------------------------------------

  Dipole Moment: [D]
     X:     0.2799      Y:     3.0346      Z:     0.8386     Total:     3.1608

*** Psi4 exiting successfully. Buy a developer a beer!
