                               Psi4 1.3.2 release

  ==> Input File <==

--------------------------------------------------------------------------
#psi4
#
memory 32 gb

molecule  {
0 1
  S        1.8142300     0.7226310    -0.3411240
  O       -1.8432130    -0.9348080    -0.8000930
  O        0.4941690    -1.0618130     1.1146640
  C       -0.8273310     0.8335030     0.4756360
  C       -3.3832440     0.5955310     0.2374230
  C       -1.9189176     0.0162562    -0.1169697
  C        0.4326040    -0.0039200     0.5084100
  C       -4.5116740    -0.2794210    -0.2844450
  C        3.0576300    -0.5565920    -0.0082180
  C        4.4432860    -0.0468870    -0.3740170
  H       -0.6942050     1.7459430    -0.1201930
  H       -1.0474180     1.1506300     1.5016930
  H       -3.4528060     0.7235440     1.3254800
  H       -3.4442640     1.6111560    -0.1826160
  H       -5.4818800     0.1657790    -0.0500790
  H       -4.4326880    -0.4035450    -1.3660960
  H       -4.4661600    -1.2732880     0.1669010
  H        2.9964590    -0.8086780     1.0500210
  H        2.8025100    -1.4530070    -0.5759610
  H        4.5013120     0.2245390    -1.4310650
  H        4.7086350     0.8297180     0.2214350
  H        5.1861620    -0.8265290    -0.1846820
units angstrom
no_reorient  #important for SAPT in psi4, default
symmetry c1  #important for SAPT in psi4, default
}

set PROPERTIES_ORIGIN ["COM"]
properties('MP2/aug-cc-pvtz', properties = ['dipole'])
--------------------------------------------------------------------------

    Molecular point group: c1
  Charge       = 0
  Multiplicity = 1
  Basis Set: AUG-CC-PVTZ
    Blend: AUG-CC-PVTZ
  Basis Set: (AUG-CC-PVTZ AUX)
    Blend: AUG-CC-PVTZ-JKFIT

    Orbital Energies [Eh]
    ---------------------

    Doubly Occupied:

       1A    -91.973884     2A    -20.559883     3A    -20.558131
       4A    -11.369336     5A    -11.341985     6A    -11.267660
       7A    -11.264125     8A    -11.243442     9A    -11.232829
      10A    -11.217242    11A     -8.975522    12A     -6.656674
      13A     -6.655534    14A     -6.654930    15A     -1.426231
      16A     -1.394770    17A     -1.097108    18A     -1.074663
      19A     -1.035022    20A     -0.974677    21A     -0.881214
      22A     -0.837590    23A     -0.762178    24A     -0.732266
      25A     -0.683068    26A     -0.671879    27A     -0.654558
      28A     -0.637378    29A     -0.629787    30A     -0.616069
      31A     -0.595682    32A     -0.561917    33A     -0.547227
      34A     -0.535403    35A     -0.530583    36A     -0.520015
      37A     -0.515122    38A     -0.505954    39A     -0.494865
      40A     -0.467380    41A     -0.427079    42A     -0.395770
      43A     -0.373165

  @DF-RHF Final Energy:  -819.48910831698026

   => Energetics <=

    Nuclear Repulsion Energy =            604.4184722525263851
    One-Electron Energy =               -2324.7155670092683977
    Two-Electron Energy =                 900.8079864397616348
    Total Energy =                       -819.4891083169802641
  Basis Set: (AUG-CC-PVTZ AUX)
    Blend: AUG-CC-PVTZ-RI
    Molecular point group: c1

    Geometry (in Angstrom), charge = 0, multiplicity = 1:

       Center              X                  Y                   Z               Mass
    ------------   -----------------  -----------------  -----------------  -----------------
         S            1.807428345151     0.725321769102    -0.339477959679    31.972071174400
         O           -1.850014654849    -0.932117230898    -0.798446959679    15.994914619570
         O            0.487367345151    -1.059122230898     1.116310040321    15.994914619570
         C           -0.834132654849     0.836193769102     0.477282040321    12.000000000000
         C           -3.390045654849     0.598221769102     0.239069040321    12.000000000000
         C           -1.925719254849     0.018946969102    -0.115323659679    12.000000000000
         C            0.425802345151    -0.001229230898     0.510056040321    12.000000000000
         C           -4.518475654849    -0.276730230898    -0.282798959679    12.000000000000
         C            3.050828345151    -0.553901230898    -0.006571959679    12.000000000000
         C            4.436484345151    -0.044196230898    -0.372370959679    12.000000000000
         H           -0.701006654849     1.748633769102    -0.118546959679     1.007825032230
         H           -1.054219654849     1.153320769102     1.503339040321     1.007825032230
         H           -3.459607654849     0.726234769102     1.327126040321     1.007825032230
         H           -3.451065654849     1.613846769102    -0.180969959679     1.007825032230
         H           -5.488681654849     0.168469769102    -0.048432959679     1.007825032230
         H           -4.439489654849    -0.400854230898    -1.364449959679     1.007825032230
         H           -4.472961654849    -1.270597230898     0.168547040321     1.007825032230
         H            2.989657345151    -0.805987230898     1.051667040321     1.007825032230
         H            2.795708345151    -1.450316230898    -0.574314959679     1.007825032230
         H            4.494510345151     0.227229769102    -1.429418959679     1.007825032230
         H            4.701833345151     0.832408769102     0.223081040321     1.007825032230
         H            5.179360345151    -0.823838230898    -0.183035959679     1.007825032230

  Basis Set: AUG-CC-PVTZ
    Blend: AUG-CC-PVTZ
  Basis Set: (AUG-CC-PVTZ AUX)
    Blend: AUG-CC-PVTZ-JKFIT
	 Reference Energy          =    -819.4891083169802641 [Eh]
	 Singles Energy            =      -0.0000000000000000 [Eh]
	 Same-Spin Energy          =      -0.4831949965963948 [Eh]
	 Opposite-Spin Energy      =      -1.5687989461369165 [Eh]
	 Correlation Energy        =      -2.0519939427333114 [Eh]
	 Total Energy              =    -821.5411022597136252 [Eh]

	 ================> DF-SCS-MP2 Energies <==================
	-----------------------------------------------------------
	 SCS Same-Spin Scale       =       0.3333333333333333 [-]
	 SCS Opposite-Spin Scale   =       1.2000000000000000 [-]
	 SCS Same-Spin Energy      =      -0.1610649988654649 [Eh]
	 SCS Opposite-Spin Energy  =      -1.8825587353642996 [Eh]
	 SCS Correlation Energy    =      -2.0436237342297647 [Eh]
	 SCS Total Energy          =    -821.5327320512100187 [Eh]
	-----------------------------------------------------------

  Dipole Moment: [D]
     X:     0.5431      Y:     2.6936      Z:     0.5947     Total:     2.8114

*** Psi4 exiting successfully. Buy a developer a beer!
