                               Psi4 1.3.2 release

  ==> Input File <==

--------------------------------------------------------------------------
#psi4
#
memory 32 gb

molecule  {
0 1
  S        1.8142300     0.7226310    -0.3411240
  O       -1.8432130    -0.9348080    -0.8000930
  O        0.4941690    -1.0618130     1.1146640
  C       -0.8273310     0.8335030     0.4756360
  C       -3.3832440     0.5955310     0.2374230
  C       -2.0096370     0.0521440    -0.0950140
  C        0.4326040    -0.0039200     0.5084100
  C       -4.5116740    -0.2794210    -0.2844450
  C        2.9891133    -0.4861013    -0.0265626
  C        4.4432860    -0.0468870    -0.3740170
  H       -0.6942050     1.7459430    -0.1201930
  H       -1.0474180     1.1506300     1.5016930
  H       -3.4528060     0.7235440     1.3254800
  H       -3.4442640     1.6111560    -0.1826160
  H       -5.4818800     0.1657790    -0.0500790
  H       -4.4326880    -0.4035450    -1.3660960
  H       -4.4661600    -1.2732880     0.1669010
  H        2.9964590    -0.8086780     1.0500210
  H        2.8025100    -1.4530070    -0.5759610
  H        4.5013120     0.2245390    -1.4310650
  H        4.7086350     0.8297180     0.2214350
  H        5.1861620    -0.8265290    -0.1846820
units angstrom
no_reorient  #important for SAPT in psi4, default
symmetry c1  #important for SAPT in psi4, default
}

set PROPERTIES_ORIGIN ["COM"]
properties('MP2/aug-cc-pvtz', properties = ['dipole'])
--------------------------------------------------------------------------

    Molecular point group: c1
  Charge       = 0
  Multiplicity = 1
  Basis Set: AUG-CC-PVTZ
    Blend: AUG-CC-PVTZ
  Basis Set: (AUG-CC-PVTZ AUX)
    Blend: AUG-CC-PVTZ-JKFIT

    Orbital Energies [Eh]
    ---------------------

    Doubly Occupied:

       1A    -91.974213     2A    -20.557250     3A    -20.556385
       4A    -11.368605     5A    -11.346935     6A    -11.268171
       7A    -11.261368     8A    -11.250536     9A    -11.232998
      10A    -11.222790    11A     -8.977291    12A     -6.658593
      13A     -6.657429    14A     -6.656669    15A     -1.398819
      16A     -1.385095    17A     -1.102963    18A     -1.079585
      19A     -1.042562    20A     -0.971380    21A     -0.897954
      22A     -0.833275    23A     -0.759378    24A     -0.728444
      25A     -0.680968    26A     -0.671814    27A     -0.649543
      28A     -0.639088    29A     -0.625515    30A     -0.608736
      31A     -0.596255    32A     -0.557873    33A     -0.546965
      34A     -0.533995    35A     -0.521319    36A     -0.518903
      37A     -0.508145    38A     -0.500213    39A     -0.489106
      40A     -0.479923    41A     -0.431566    42A     -0.407811
      43A     -0.368612

  @DF-RHF Final Energy:  -819.48480151412514

   => Energetics <=

    Nuclear Repulsion Energy =            605.1804262167287334
    One-Electron Energy =               -2326.2803743467043205
    Two-Electron Energy =                 901.6151466158503354
    Total Energy =                       -819.4848015141251381
  Basis Set: (AUG-CC-PVTZ AUX)
    Blend: AUG-CC-PVTZ-RI
    Molecular point group: c1

    Geometry (in Angstrom), charge = 0, multiplicity = 1:

       Center              X                  Y                   Z               Mass
    ------------   -----------------  -----------------  -----------------  -----------------
         S            1.819366889024     0.717346163134    -0.339748697758    31.972071174400
         O           -1.838076110976    -0.940092836866    -0.798717697758    15.994914619570
         O            0.499305889024    -1.067097836866     1.116039302242    15.994914619570
         C           -0.822194110976     0.828218163134     0.477011302242    12.000000000000
         C           -3.378107110976     0.590246163134     0.238798302242    12.000000000000
         C           -2.004500110976     0.046859163134    -0.093638697758    12.000000000000
         C            0.437740889024    -0.009204836866     0.509785302242    12.000000000000
         C           -4.506537110976    -0.284705836866    -0.283069697758    12.000000000000
         C            2.994250189024    -0.491386136866    -0.025187297758    12.000000000000
         C            4.448422889024    -0.052171836866    -0.372641697758    12.000000000000
         H           -0.689068110976     1.740658163134    -0.118817697758     1.007825032230
         H           -1.042281110976     1.145345163134     1.503068302242     1.007825032230
         H           -3.447669110976     0.718259163134     1.326855302242     1.007825032230
         H           -3.439127110976     1.605871163134    -0.181240697758     1.007825032230
         H           -5.476743110976     0.160494163134    -0.048703697758     1.007825032230
         H           -4.427551110976    -0.408829836866    -1.364720697758     1.007825032230
         H           -4.461023110976    -1.278572836866     0.168276302242     1.007825032230
         H            3.001595889024    -0.813962836866     1.051396302242     1.007825032230
         H            2.807646889024    -1.458291836866    -0.574585697758     1.007825032230
         H            4.506448889024     0.219254163134    -1.429689697758     1.007825032230
         H            4.713771889024     0.824433163134     0.222810302242     1.007825032230
         H            5.191298889024    -0.831813836866    -0.183306697758     1.007825032230

  Basis Set: AUG-CC-PVTZ
    Blend: AUG-CC-PVTZ
  Basis Set: (AUG-CC-PVTZ AUX)
    Blend: AUG-CC-PVTZ-JKFIT
	 Reference Energy          =    -819.4848015141251381 [Eh]
	 Singles Energy            =      -0.0000000000000000 [Eh]
	 Same-Spin Energy          =      -0.4851798774186850 [Eh]
	 Opposite-Spin Energy      =      -1.5722149575005719 [Eh]
	 Correlation Energy        =      -2.0573948349192568 [Eh]
	 Total Energy              =    -821.5421963490443886 [Eh]

	 ================> DF-SCS-MP2 Energies <==================
	-----------------------------------------------------------
	 SCS Same-Spin Scale       =       0.3333333333333333 [-]
	 SCS Opposite-Spin Scale   =       1.2000000000000000 [-]
	 SCS Same-Spin Energy      =      -0.1617266258062283 [Eh]
	 SCS Opposite-Spin Energy  =      -1.8866579490006863 [Eh]
	 SCS Correlation Energy    =      -2.0483845748069145 [Eh]
	 SCS Total Energy          =    -821.5331860889320978 [Eh]
	-----------------------------------------------------------

  Dipole Moment: [D]
     X:    -0.1373      Y:     2.8980      Z:     0.6875     Total:     2.9816

*** Psi4 exiting successfully. Buy a developer a beer!
