                               Psi4 1.4a3.dev225

  ==> Input File <==

--------------------------------------------------------------------------
#psi4
#
memory 32 gb

molecule  {
0 1
  S        1.5586770    -0.2994370    -0.7152220
  O       -1.5255240    -0.4876820     1.0921970
  O        0.7924220     1.7006740     0.8461850
  C       -0.8878030     0.9736540    -0.7120840
  C       -3.2304390    -0.0998550    -0.5631210
  C       -1.8416013     0.0757551     0.0381384
  C        0.4791140     0.9485020    -0.0654040
  C       -4.1634610    -0.9398430     0.2972900
  C        2.9497330    -0.0790050     0.4324980
  C        4.0540790    -1.0751370     0.1033520
  H       -0.8484610     0.6756560    -1.7668750
  H       -1.2645150     2.0025910    -0.6674260
  H       -3.6447290     0.9013370    -0.7419330
  H       -3.1015980    -0.5455960    -1.5588690
  H       -5.1413450    -1.0357370    -0.1813640
  H       -3.7504260    -1.9381500     0.4523140
  H       -4.2995020    -0.4825820     1.2793320
  H        3.3022180     0.9509290     0.3487650
  H        2.5726230    -0.2199470     1.4475820
  H        3.7004310    -2.1050230     0.1947960
  H        4.4320470    -0.9299840    -0.9117720
  H        4.8873260    -0.9394890     0.7982930
units angstrom
no_reorient  #important for SAPT in psi4, default
symmetry c1  #important for SAPT in psi4, default
}

set PROPERTIES_ORIGIN ["COM"]
properties('MP2/aug-cc-pvtz', properties = ['dipole'])
--------------------------------------------------------------------------

    Molecular point group: c1
  Charge       = 0
  Multiplicity = 1
  Basis Set: AUG-CC-PVTZ
    Blend: AUG-CC-PVTZ
  Basis Set: (AUG-CC-PVTZ AUX)
    Blend: AUG-CC-PVTZ-JKFIT

    Orbital Energies [Eh]
    ---------------------

    Doubly Occupied:

       1A    -91.969024     2A    -20.558121     3A    -20.555811
       4A    -11.366418     5A    -11.350329     6A    -11.267534
       7A    -11.262014     8A    -11.252414     9A    -11.230367
      10A    -11.224072    11A     -8.970804    12A     -6.651998
      13A     -6.650854    14A     -6.650216    15A     -1.394666
      16A     -1.381280    17A     -1.095017    18A     -1.077128
      19A     -1.044415    20A     -0.971020    21A     -0.897016
      22A     -0.836820    23A     -0.762540    24A     -0.726980
      25A     -0.677375    26A     -0.671036    27A     -0.649872
      28A     -0.635967    29A     -0.632651    30A     -0.607842
      31A     -0.592277    32A     -0.560307    33A     -0.546125
      34A     -0.530563    35A     -0.526025    36A     -0.521507
      37A     -0.511797    38A     -0.504782    39A     -0.490529
      40A     -0.463239    41A     -0.433258    42A     -0.407529
      43A     -0.368584

  @DF-RHF Final Energy:  -819.49400044521485

   => Energetics <=

    Nuclear Repulsion Energy =            610.2499497619913882
    One-Electron Energy =               -2336.5316546500766890
    Two-Electron Energy =                 906.7877044428703357
    Total Energy =                       -819.4940004452148514
  Basis Set: (AUG-CC-PVTZ AUX)
    Blend: AUG-CC-PVTZ-RI
    Molecular point group: c1

    Geometry (in Angstrom), charge = 0, multiplicity = 1:

       Center              X                  Y                   Z               Mass
    ------------   -----------------  -----------------  -----------------  -----------------
         S            1.538414927607    -0.323067846555    -0.722642994110    31.972071174400
         O           -1.545786072393    -0.511312846555     1.084776005890    15.994914619570
         O            0.772159927607     1.677043153445     0.838764005890    15.994914619570
         C           -0.908065072393     0.950023153445    -0.719504994110    12.000000000000
         C           -3.250701072393    -0.123485846555    -0.570541994110    12.000000000000
         C           -1.861863372393     0.052124253445     0.030717405890    12.000000000000
         C            0.458851927607     0.924871153445    -0.072824994110    12.000000000000
         C           -4.183723072393    -0.963473846555     0.289869005890    12.000000000000
         C            2.929470927607    -0.102635846555     0.425077005890    12.000000000000
         C            4.033816927607    -1.098767846555     0.095931005890    12.000000000000
         H           -0.868723072393     0.652025153445    -1.774295994110     1.007825032230
         H           -1.284777072393     1.978960153445    -0.674846994110     1.007825032230
         H           -3.664991072393     0.877706153445    -0.749353994110     1.007825032230
         H           -3.121860072393    -0.569226846555    -1.566289994110     1.007825032230
         H           -5.161607072393    -1.059367846555    -0.188784994110     1.007825032230
         H           -3.770688072393    -1.961780846555     0.444893005890     1.007825032230
         H           -4.319764072393    -0.506212846555     1.271911005890     1.007825032230
         H            3.281955927607     0.927298153445     0.341344005890     1.007825032230
         H            2.552360927607    -0.243577846555     1.440161005890     1.007825032230
         H            3.680168927607    -2.128653846555     0.187375005890     1.007825032230
         H            4.411784927607    -0.953614846555    -0.919192994110     1.007825032230
         H            4.867063927607    -0.963119846555     0.790872005890     1.007825032230

  Basis Set: AUG-CC-PVTZ
    Blend: AUG-CC-PVTZ
  Basis Set: (AUG-CC-PVTZ AUX)
    Blend: AUG-CC-PVTZ-JKFIT
	 Reference Energy          =    -819.4940004452148514 [Eh]
	 Singles Energy            =      -0.0000000000000000 [Eh]
	 Same-Spin Energy          =      -0.4848618007835199 [Eh]
	 Opposite-Spin Energy      =      -1.5720856707477926 [Eh]
	 Correlation Energy        =      -2.0569474715313127 [Eh]
	 Total Energy              =    -821.5509479167461677 [Eh]

	 ================> DF-SCS-MP2 Energies <==================
	-----------------------------------------------------------
	 SCS Same-Spin Scale       =       0.3333333333333333 [-]
	 SCS Opposite-Spin Scale   =       1.2000000000000000 [-]
	 SCS Same-Spin Energy      =      -0.1616206002611733 [Eh]
	 SCS Opposite-Spin Energy  =      -1.8865028048973511 [Eh]
	 SCS Correlation Energy    =      -2.0481234051585244 [Eh]
	 SCS Total Energy          =    -821.5421238503734003 [Eh]
	-----------------------------------------------------------

  Dipole Moment: [D]
     X:    -0.6570      Y:    -0.1631      Z:    -2.7254     Total:     2.8082

*** Psi4 exiting successfully. Buy a developer a beer!
