                               Psi4 1.3.2 release

  ==> Input File <==

--------------------------------------------------------------------------
#psi4
#
memory 32 gb

molecule  {
0 1
  S        1.8142300     0.7226310    -0.3411240
  O       -1.8432130    -0.9348080    -0.8000930
  O        0.4840261    -1.0606127     1.1176948
  C       -0.8334096     0.8245496     0.4832033
  C       -3.3832440     0.5955310     0.2374230
  C       -2.0096370     0.0521440    -0.0950140
  C        0.4326040    -0.0039200     0.5084100
  C       -4.5116740    -0.2794210    -0.2844450
  C        3.0576300    -0.5565920    -0.0082180
  C        4.4432860    -0.0468870    -0.3740170
  H       -0.6942050     1.7459430    -0.1201930
  H       -1.0474180     1.1506300     1.5016930
  H       -3.4528060     0.7235440     1.3254800
  H       -3.4442640     1.6111560    -0.1826160
  H       -5.4818800     0.1657790    -0.0500790
  H       -4.4326880    -0.4035450    -1.3660960
  H       -4.4661600    -1.2732880     0.1669010
  H        2.9964590    -0.8086780     1.0500210
  H        2.8025100    -1.4530070    -0.5759610
  H        4.5013120     0.2245390    -1.4310650
  H        4.7086350     0.8297180     0.2214350
  H        5.1861620    -0.8265290    -0.1846820
units angstrom
no_reorient  #important for SAPT in psi4, default
symmetry c1  #important for SAPT in psi4, default
}

set PROPERTIES_ORIGIN ["COM"]
properties('MP2/aug-cc-pvtz', properties = ['dipole'])
--------------------------------------------------------------------------

    Molecular point group: c1
  Charge       = 0
  Multiplicity = 1
  Basis Set: AUG-CC-PVTZ
    Blend: AUG-CC-PVTZ
  Basis Set: (AUG-CC-PVTZ AUX)
    Blend: AUG-CC-PVTZ-JKFIT

    Orbital Energies [Eh]
    ---------------------

    Doubly Occupied:

       1A    -91.973008     2A    -20.555013     3A    -20.554877
       4A    -11.367152     5A    -11.345405     6A    -11.266533
       7A    -11.263158     8A    -11.249496     9A    -11.232037
      10A    -11.222043    11A     -8.974560    12A     -6.655714
      13A     -6.654584    14A     -6.653968    15A     -1.397348
      16A     -1.383638    17A     -1.094078    18A     -1.077440
      19A     -1.042251    20A     -0.972753    21A     -0.895964
      22A     -0.838048    23A     -0.760617    24A     -0.726358
      25A     -0.678223    26A     -0.668034    27A     -0.648114
      28A     -0.637630    29A     -0.634184    30A     -0.608563
      31A     -0.593641    32A     -0.559536    33A     -0.546062
      34A     -0.532972    35A     -0.527580    36A     -0.520713
      37A     -0.511330    38A     -0.504734    39A     -0.488120
      40A     -0.465722    41A     -0.429776    42A     -0.406883
      43A     -0.371672

  @DF-RHF Final Energy:  -819.49453079696173

   => Energetics <=

    Nuclear Repulsion Energy =            603.4779557903585783
    One-Electron Energy =               -2322.9659046462847982
    Two-Electron Energy =                 899.9934180589646076
    Total Energy =                       -819.4945307969617261
  Basis Set: (AUG-CC-PVTZ AUX)
    Blend: AUG-CC-PVTZ-RI
    Molecular point group: c1

    Geometry (in Angstrom), charge = 0, multiplicity = 1:

       Center              X                  Y                   Z               Mass
    ------------   -----------------  -----------------  -----------------  -----------------
         S            1.815699278243     0.723182443352    -0.341994290766    31.972071174400
         O           -1.841743721757    -0.934256556648    -0.800963290766    15.994914619570
         O            0.485495378243    -1.060061256648     1.116824509234    15.994914619570
         C           -0.831940321757     0.825101043352     0.482333009234    12.000000000000
         C           -3.381774721757     0.596082443352     0.236552709234    12.000000000000
         C           -2.008167721757     0.052695443352    -0.095884290766    12.000000000000
         C            0.434073278243    -0.003368556648     0.507539709234    12.000000000000
         C           -4.510204721757    -0.278869556648    -0.285315290766    12.000000000000
         C            3.059099278243    -0.556040556648    -0.009088290766    12.000000000000
         C            4.444755278243    -0.046335556648    -0.374887290766    12.000000000000
         H           -0.692735721757     1.746494443352    -0.121063290766     1.007825032230
         H           -1.045948721757     1.151181443352     1.500822709234     1.007825032230
         H           -3.451336721757     0.724095443352     1.324609709234     1.007825032230
         H           -3.442794721757     1.611707443352    -0.183486290766     1.007825032230
         H           -5.480410721757     0.166330443352    -0.050949290766     1.007825032230
         H           -4.431218721757    -0.402993556648    -1.366966290766     1.007825032230
         H           -4.464690721757    -1.272736556648     0.166030709234     1.007825032230
         H            2.997928278243    -0.808126556648     1.049150709234     1.007825032230
         H            2.803979278243    -1.452455556648    -0.576831290766     1.007825032230
         H            4.502781278243     0.225090443352    -1.431935290766     1.007825032230
         H            4.710104278243     0.830269443352     0.220564709234     1.007825032230
         H            5.187631278243    -0.825977556648    -0.185552290766     1.007825032230

  Basis Set: AUG-CC-PVTZ
    Blend: AUG-CC-PVTZ
  Basis Set: (AUG-CC-PVTZ AUX)
    Blend: AUG-CC-PVTZ-JKFIT
	 Reference Energy          =    -819.4945307969617261 [Eh]
	 Singles Energy            =      -0.0000000000000000 [Eh]
	 Same-Spin Energy          =      -0.4842026499008815 [Eh]
	 Opposite-Spin Energy      =      -1.5710800617620926 [Eh]
	 Correlation Energy        =      -2.0552827116629739 [Eh]
	 Total Energy              =    -821.5498135086246521 [Eh]

	 ================> DF-SCS-MP2 Energies <==================
	-----------------------------------------------------------
	 SCS Same-Spin Scale       =       0.3333333333333333 [-]
	 SCS Opposite-Spin Scale   =       1.2000000000000000 [-]
	 SCS Same-Spin Energy      =      -0.1614008833002938 [Eh]
	 SCS Opposite-Spin Energy  =      -1.8852960741145111 [Eh]
	 SCS Correlation Energy    =      -2.0466969574148051 [Eh]
	 SCS Total Energy          =    -821.5412277543765640 [Eh]
	-----------------------------------------------------------

  Dipole Moment: [D]
     X:     0.0622      Y:     2.8352      Z:     0.6822     Total:     2.9168

*** Psi4 exiting successfully. Buy a developer a beer!
