                               Psi4 1.3.2 release

  ==> Input File <==

--------------------------------------------------------------------------
#psi4
#
memory 32 gb

molecule  {
0 1
  S        1.8142300     0.7226310    -0.3411240
  O       -1.8432130    -0.9348080    -0.8000930
  O        0.4941690    -1.0618130     1.1146640
  C       -0.8273310     0.8335030     0.4756360
  C       -3.3832440     0.5955310     0.2374230
  C       -2.0096370     0.0521440    -0.0950140
  C        0.4326040    -0.0039200     0.5084100
  C       -4.5020929    -0.2767064    -0.3090389
  C        3.0576300    -0.5565920    -0.0082180
  C        4.4432860    -0.0468870    -0.3740170
  H       -0.6942050     1.7459430    -0.1201930
  H       -1.0474180     1.1506300     1.5016930
  H       -3.4370819     0.7344817     1.3250297
  H       -3.4442640     1.6111560    -0.1826160
  H       -5.4818800     0.1657790    -0.0500790
  H       -4.4326880    -0.4035450    -1.3660960
  H       -4.4661600    -1.2732880     0.1669010
  H        2.9964590    -0.8086780     1.0500210
  H        2.8025100    -1.4530070    -0.5759610
  H        4.5013120     0.2245390    -1.4310650
  H        4.7086350     0.8297180     0.2214350
  H        5.1861620    -0.8265290    -0.1846820
units angstrom
no_reorient  #important for SAPT in psi4, default
symmetry c1  #important for SAPT in psi4, default
}

set PROPERTIES_ORIGIN ["COM"]
properties('MP2/aug-cc-pvtz', properties = ['dipole'])
--------------------------------------------------------------------------

    Molecular point group: c1
  Charge       = 0
  Multiplicity = 1
  Basis Set: AUG-CC-PVTZ
    Blend: AUG-CC-PVTZ
  Basis Set: (AUG-CC-PVTZ AUX)
    Blend: AUG-CC-PVTZ-JKFIT

    Orbital Energies [Eh]
    ---------------------

    Doubly Occupied:

       1A    -91.972070     2A    -20.555328     3A    -20.555037
       4A    -11.367388     5A    -11.345725     6A    -11.266731
       7A    -11.262583     8A    -11.250108     9A    -11.231610
      10A    -11.222746    11A     -8.973682    12A     -6.654835
      13A     -6.653706    14A     -6.653093    15A     -1.397298
      16A     -1.383870    17A     -1.093918    18A     -1.077273
      19A     -1.042680    20A     -0.972071    21A     -0.896488
      22A     -0.837730    23A     -0.760049    24A     -0.726889
      25A     -0.677985    26A     -0.668116    27A     -0.648057
      28A     -0.638020    29A     -0.633876    30A     -0.608563
      31A     -0.595029    32A     -0.559875    33A     -0.545097
      34A     -0.530671    35A     -0.528818    36A     -0.522971
      37A     -0.512414    38A     -0.504177    39A     -0.488497
      40A     -0.465278    41A     -0.429511    42A     -0.406158
      43A     -0.371094

  @DF-RHF Final Energy:  -819.49389797959907

   => Energetics <=

    Nuclear Repulsion Energy =            603.5493053083720270
    One-Electron Energy =               -2323.1121811147986591
    Two-Electron Energy =                 900.0689778268276768
    Total Energy =                       -819.4938979795990690
  Basis Set: (AUG-CC-PVTZ AUX)
    Blend: AUG-CC-PVTZ-RI
    Molecular point group: c1

    Geometry (in Angstrom), charge = 0, multiplicity = 1:

       Center              X                  Y                   Z               Mass
    ------------   -----------------  -----------------  -----------------  -----------------
         S            1.813412585982     0.722358726928    -0.339277328253    31.972071174400
         O           -1.844030414018    -0.935080273072    -0.798246328253    15.994914619570
         O            0.493351585982    -1.062085273072     1.116510671747    15.994914619570
         C           -0.828148414018     0.833230726928     0.477482671747    12.000000000000
         C           -3.384061414018     0.595258726928     0.239269671747    12.000000000000
         C           -2.010454414018     0.051871726928    -0.093167328253    12.000000000000
         C            0.431786585982    -0.004192273072     0.510256671747    12.000000000000
         C           -4.502910314018    -0.276978673072    -0.307192228253    12.000000000000
         C            3.056812585982    -0.556864273072    -0.006371328253    12.000000000000
         C            4.442468585982    -0.047159273072    -0.372170328253    12.000000000000
         H           -0.695022414018     1.745670726928    -0.118346328253     1.007825032230
         H           -1.048235414018     1.150357726928     1.503539671747     1.007825032230
         H           -3.437899314018     0.734209426928     1.326876371747     1.007825032230
         H           -3.445081414018     1.610883726928    -0.180769328253     1.007825032230
         H           -5.482697414018     0.165506726928    -0.048232328253     1.007825032230
         H           -4.433505414018    -0.403817273072    -1.364249328253     1.007825032230
         H           -4.466977414018    -1.273560273072     0.168747671747     1.007825032230
         H            2.995641585982    -0.808950273072     1.051867671747     1.007825032230
         H            2.801692585982    -1.453279273072    -0.574114328253     1.007825032230
         H            4.500494585982     0.224266726928    -1.429218328253     1.007825032230
         H            4.707817585982     0.829445726928     0.223281671747     1.007825032230
         H            5.185344585982    -0.826801273072    -0.182835328253     1.007825032230

  Basis Set: AUG-CC-PVTZ
    Blend: AUG-CC-PVTZ
  Basis Set: (AUG-CC-PVTZ AUX)
    Blend: AUG-CC-PVTZ-JKFIT
	 Reference Energy          =    -819.4938979795990690 [Eh]
	 Singles Energy            =      -0.0000000000000000 [Eh]
	 Same-Spin Energy          =      -0.4842506882284753 [Eh]
	 Opposite-Spin Energy      =      -1.5710941633232403 [Eh]
	 Correlation Energy        =      -2.0553448515517156 [Eh]
	 Total Energy              =    -821.5492428311507638 [Eh]

	 ================> DF-SCS-MP2 Energies <==================
	-----------------------------------------------------------
	 SCS Same-Spin Scale       =       0.3333333333333333 [-]
	 SCS Opposite-Spin Scale   =       1.2000000000000000 [-]
	 SCS Same-Spin Energy      =      -0.1614168960761584 [Eh]
	 SCS Opposite-Spin Energy  =      -1.8853129959878883 [Eh]
	 SCS Correlation Energy    =      -2.0467298920640467 [Eh]
	 SCS Total Energy          =    -821.5406278716631050 [Eh]
	-----------------------------------------------------------

  Dipole Moment: [D]
     X:    -0.0006      Y:     2.8390      Z:     0.6746     Total:     2.9180

*** Psi4 exiting successfully. Buy a developer a beer!
