                               Psi4 1.4a3.dev225

  ==> Input File <==

--------------------------------------------------------------------------
#psi4
#
memory 32 gb

molecule  {
0 1
  S        1.5586770    -0.2994370    -0.7152220
  O       -1.5255240    -0.4876820     1.0921970
  O        0.7924220     1.7006740     0.8461850
  C       -0.8878030     0.9736540    -0.7120840
  C       -3.2304390    -0.0998550    -0.5631210
  C       -1.8542380     0.0638590     0.0480780
  C        0.4791140     0.9485020    -0.0654040
  C       -4.1634610    -0.9398430     0.2972900
  C        2.9497330    -0.0790050     0.4324980
  C        4.0540790    -1.0751370     0.1033520
  H       -0.8484610     0.6756560    -1.7668750
  H       -1.2645150     2.0025910    -0.6674260
  H       -3.6522740     0.9195707    -0.7451895
  H       -3.1015980    -0.5455960    -1.5588690
  H       -5.1413450    -1.0357370    -0.1813640
  H       -3.7504260    -1.9381500     0.4523140
  H       -4.2995020    -0.4825820     1.2793320
  H        3.3022180     0.9509290     0.3487650
  H        2.5726230    -0.2199470     1.4475820
  H        3.7004310    -2.1050230     0.1947960
  H        4.4320470    -0.9299840    -0.9117720
  H        4.8873260    -0.9394890     0.7982930
units angstrom
no_reorient  #important for SAPT in psi4, default
symmetry c1  #important for SAPT in psi4, default
}

set PROPERTIES_ORIGIN ["COM"]
properties('MP2/aug-cc-pvtz', properties = ['dipole'])
--------------------------------------------------------------------------

    Molecular point group: c1
  Charge       = 0
  Multiplicity = 1
  Basis Set: AUG-CC-PVTZ
    Blend: AUG-CC-PVTZ
  Basis Set: (AUG-CC-PVTZ AUX)
    Blend: AUG-CC-PVTZ-JKFIT

    Orbital Energies [Eh]
    ---------------------

    Doubly Occupied:

       1A    -91.968404     2A    -20.559359     3A    -20.554991
       4A    -11.365399     5A    -11.350064     6A    -11.266357
       7A    -11.261577     8A    -11.254788     9A    -11.230061
      10A    -11.224764    11A     -8.970191    12A     -6.651385
      13A     -6.650242    14A     -6.649604    15A     -1.396869
      16A     -1.385655    17A     -1.093126    18A     -1.076490
      19A     -1.043150    20A     -0.969750    21A     -0.897434
      22A     -0.835935    23A     -0.760225    24A     -0.726476
      25A     -0.678026    26A     -0.669707    27A     -0.649230
      28A     -0.635602    29A     -0.632436    30A     -0.610734
      31A     -0.590781    32A     -0.559894    33A     -0.546122
      34A     -0.531001    35A     -0.526402    36A     -0.521875
      37A     -0.512541    38A     -0.504461    39A     -0.493156
      40A     -0.462696    41A     -0.432274    42A     -0.406661
      43A     -0.368083

  @DF-RHF Final Energy:  -819.49515655736025

   => Energetics <=

    Nuclear Repulsion Energy =            610.1304047815424383
    One-Electron Energy =               -2336.3031675143829489
    Two-Electron Energy =                 906.6776061754802640
    Total Energy =                       -819.4951565573602466
  Basis Set: (AUG-CC-PVTZ AUX)
    Blend: AUG-CC-PVTZ-RI
    Molecular point group: c1

    Geometry (in Angstrom), charge = 0, multiplicity = 1:

       Center              X                  Y                   Z               Mass
    ------------   -----------------  -----------------  -----------------  -----------------
         S            1.539409858369    -0.322290762437    -0.723367698976    31.972071174400
         O           -1.544791141631    -0.510535762437     1.084051301024    15.994914619570
         O            0.773154858369     1.677820237563     0.838039301024    15.994914619570
         C           -0.907070141631     0.950800237563    -0.720229698976    12.000000000000
         C           -3.249706141631    -0.122708762437    -0.571266698976    12.000000000000
         C           -1.873505141631     0.041005237563     0.039932301024    12.000000000000
         C            0.459846858369     0.925648237563    -0.073549698976    12.000000000000
         C           -4.182728141631    -0.962696762437     0.289144301024    12.000000000000
         C            2.930465858369    -0.101858762437     0.424352301024    12.000000000000
         C            4.034811858369    -1.097990762437     0.095206301024    12.000000000000
         H           -0.867728141631     0.652802237563    -1.775020698976     1.007825032230
         H           -1.283782141631     1.979737237563    -0.675571698976     1.007825032230
         H           -3.671541141631     0.896716937563    -0.753335198976     1.007825032230
         H           -3.120865141631    -0.568449762437    -1.567014698976     1.007825032230
         H           -5.160612141631    -1.058590762437    -0.189509698976     1.007825032230
         H           -3.769693141631    -1.961003762437     0.444168301024     1.007825032230
         H           -4.318769141631    -0.505435762437     1.271186301024     1.007825032230
         H            3.282950858369     0.928075237563     0.340619301024     1.007825032230
         H            2.553355858369    -0.242800762437     1.439436301024     1.007825032230
         H            3.681163858369    -2.127876762437     0.186650301024     1.007825032230
         H            4.412779858369    -0.952837762437    -0.919917698976     1.007825032230
         H            4.868058858369    -0.962342762437     0.790147301024     1.007825032230

  Basis Set: AUG-CC-PVTZ
    Blend: AUG-CC-PVTZ
  Basis Set: (AUG-CC-PVTZ AUX)
    Blend: AUG-CC-PVTZ-JKFIT
	 Reference Energy          =    -819.4951565573602466 [Eh]
	 Singles Energy            =      -0.0000000000000000 [Eh]
	 Same-Spin Energy          =      -0.4845515202400943 [Eh]
	 Opposite-Spin Energy      =      -1.5715148628087108 [Eh]
	 Correlation Energy        =      -2.0560663830488051 [Eh]
	 Total Energy              =    -821.5512229404090476 [Eh]

	 ================> DF-SCS-MP2 Energies <==================
	-----------------------------------------------------------
	 SCS Same-Spin Scale       =       0.3333333333333333 [-]
	 SCS Opposite-Spin Scale   =       1.2000000000000000 [-]
	 SCS Same-Spin Energy      =      -0.1615171734133648 [Eh]
	 SCS Opposite-Spin Energy  =      -1.8858178353704529 [Eh]
	 SCS Correlation Energy    =      -2.0473350087838176 [Eh]
	 SCS Total Energy          =    -821.5424915661440082 [Eh]
	-----------------------------------------------------------

  Dipole Moment: [D]
     X:    -0.7537      Y:    -0.2231      Z:    -2.6855     Total:     2.7981

*** Psi4 exiting successfully. Buy a developer a beer!
