                               Psi4 1.3.2 release

  ==> Input File <==

--------------------------------------------------------------------------
#psi4
#
memory 32 gb

molecule  {
0 1
  S        1.8142300     0.7226310    -0.3411240
  O       -1.8432130    -0.9348080    -0.8000930
  O        0.4941690    -1.0618130     1.1146640
  C       -0.8273310     0.8335030     0.4756360
  C       -3.3832440     0.5955310     0.2374230
  C       -2.0209632     0.0316653    -0.1072892
  C        0.4326040    -0.0039200     0.5084100
  C       -4.4937224    -0.2961314    -0.2945707
  C        3.0576300    -0.5565920    -0.0082180
  C        4.4432860    -0.0468870    -0.3740170
  H       -0.6942050     1.7459430    -0.1201930
  H       -1.0474180     1.1506300     1.5016930
  H       -3.4528060     0.7235440     1.3254800
  H       -3.4442640     1.6111560    -0.1826160
  H       -5.4818800     0.1657790    -0.0500790
  H       -4.4326880    -0.4035450    -1.3660960
  H       -4.4661600    -1.2732880     0.1669010
  H        2.9964590    -0.8086780     1.0500210
  H        2.8025100    -1.4530070    -0.5759610
  H        4.5013120     0.2245390    -1.4310650
  H        4.7086350     0.8297180     0.2214350
  H        5.1861620    -0.8265290    -0.1846820
units angstrom
no_reorient  #important for SAPT in psi4, default
symmetry c1  #important for SAPT in psi4, default
}

set PROPERTIES_ORIGIN ["COM"]
properties('MP2/aug-cc-pvtz', properties = ['dipole'])
--------------------------------------------------------------------------

    Molecular point group: c1
  Charge       = 0
  Multiplicity = 1
  Basis Set: AUG-CC-PVTZ
    Blend: AUG-CC-PVTZ
  Basis Set: (AUG-CC-PVTZ AUX)
    Blend: AUG-CC-PVTZ-JKFIT

    Orbital Energies [Eh]
    ---------------------

    Doubly Occupied:

       1A    -91.971167     2A    -20.557660     3A    -20.554063
       4A    -11.366005     5A    -11.344501     6A    -11.264624
       7A    -11.261961     8A    -11.249609     9A    -11.231157
      10A    -11.222585    11A     -8.972792    12A     -6.653945
      13A     -6.652815    14A     -6.652203    15A     -1.406719
      16A     -1.389254    17A     -1.092128    18A     -1.075822
      19A     -1.040836    20A     -0.970202    21A     -0.895022
      22A     -0.836533    23A     -0.758186    24A     -0.726940
      25A     -0.679637    26A     -0.667380    27A     -0.647561
      28A     -0.639177    29A     -0.634200    30A     -0.613011
      31A     -0.594191    32A     -0.559258    33A     -0.544953
      34A     -0.530113    35A     -0.527693    36A     -0.522740
      37A     -0.514913    38A     -0.505716    39A     -0.495970
      40A     -0.464734    41A     -0.427248    42A     -0.403513
      43A     -0.370326

  @DF-RHF Final Energy:  -819.49544765628161

   => Energetics <=

    Nuclear Repulsion Energy =            603.7101529438234593
    One-Electron Energy =               -2323.4330731570967146
    Two-Electron Energy =                 900.2274725569916427
    Total Energy =                       -819.4954476562816126
  Basis Set: (AUG-CC-PVTZ AUX)
    Blend: AUG-CC-PVTZ-RI
    Molecular point group: c1

    Geometry (in Angstrom), charge = 0, multiplicity = 1:

       Center              X                  Y                   Z               Mass
    ------------   -----------------  -----------------  -----------------  -----------------
         S            1.813733196302     0.725419332576    -0.339444581320    31.972071174400
         O           -1.843709803698    -0.932019667424    -0.798413581320    15.994914619570
         O            0.493672196302    -1.059024667424     1.116343418680    15.994914619570
         C           -0.827827803698     0.836291332576     0.477315418680    12.000000000000
         C           -3.383740803698     0.598319332576     0.239102418680    12.000000000000
         C           -2.021460003698     0.034453632576    -0.105609781320    12.000000000000
         C            0.432107196302    -0.001131667424     0.510089418680    12.000000000000
         C           -4.494219203698    -0.293343067424    -0.292891281320    12.000000000000
         C            3.057133196302    -0.553803667424    -0.006538581320    12.000000000000
         C            4.442789196302    -0.044098667424    -0.372337581320    12.000000000000
         H           -0.694701803698     1.748731332576    -0.118513581320     1.007825032230
         H           -1.047914803698     1.153418332576     1.503372418680     1.007825032230
         H           -3.453302803698     0.726332332576     1.327159418680     1.007825032230
         H           -3.444760803698     1.613944332576    -0.180936581320     1.007825032230
         H           -5.482376803698     0.168567332576    -0.048399581320     1.007825032230
         H           -4.433184803698    -0.400756667424    -1.364416581320     1.007825032230
         H           -4.466656803698    -1.270499667424     0.168580418680     1.007825032230
         H            2.995962196302    -0.805889667424     1.051700418680     1.007825032230
         H            2.802013196302    -1.450218667424    -0.574281581320     1.007825032230
         H            4.500815196302     0.227327332576    -1.429385581320     1.007825032230
         H            4.708138196302     0.832506332576     0.223114418680     1.007825032230
         H            5.185665196302    -0.823740667424    -0.183002581320     1.007825032230

  Basis Set: AUG-CC-PVTZ
    Blend: AUG-CC-PVTZ
  Basis Set: (AUG-CC-PVTZ AUX)
    Blend: AUG-CC-PVTZ-JKFIT
	 Reference Energy          =    -819.4954476562816126 [Eh]
	 Singles Energy            =      -0.0000000000000000 [Eh]
	 Same-Spin Energy          =      -0.4836414917780365 [Eh]
	 Opposite-Spin Energy      =      -1.5697689995694803 [Eh]
	 Correlation Energy        =      -2.0534104913475169 [Eh]
	 Total Energy              =    -821.5488581476291756 [Eh]

	 ================> DF-SCS-MP2 Energies <==================
	-----------------------------------------------------------
	 SCS Same-Spin Scale       =       0.3333333333333333 [-]
	 SCS Opposite-Spin Scale   =       1.2000000000000000 [-]
	 SCS Same-Spin Energy      =      -0.1612138305926788 [Eh]
	 SCS Opposite-Spin Energy  =      -1.8837227994833763 [Eh]
	 SCS Correlation Energy    =      -2.0449366300760552 [Eh]
	 SCS Total Energy          =    -821.5403842863577211 [Eh]
	-----------------------------------------------------------

  Dipole Moment: [D]
     X:    -0.1047      Y:     2.7561      Z:     0.6214     Total:     2.8272

*** Psi4 exiting successfully. Buy a developer a beer!
