                               Psi4 1.3.2 release

  ==> Input File <==

--------------------------------------------------------------------------
#psi4
#
memory 32 gb

molecule  {
0 1
  S        1.8142300     0.7226310    -0.3411240
  O       -1.8010104    -0.9303674    -0.7950525
  O        0.4941690    -1.0618130     1.1146640
  C       -0.8273310     0.8335030     0.4756360
  C       -3.3602540     0.6336384     0.2659264
  C       -2.0096370     0.0521440    -0.0950140
  C        0.4326040    -0.0039200     0.5084100
  C       -4.5116740    -0.2794210    -0.2844450
  C        3.0576300    -0.5565920    -0.0082180
  C        4.4432860    -0.0468870    -0.3740170
  H       -0.6942050     1.7459430    -0.1201930
  H       -1.0474180     1.1506300     1.5016930
  H       -3.4528060     0.7235440     1.3254800
  H       -3.4442640     1.6111560    -0.1826160
  H       -5.4818800     0.1657790    -0.0500790
  H       -4.4326880    -0.4035450    -1.3660960
  H       -4.4661600    -1.2732880     0.1669010
  H        2.9964590    -0.8086780     1.0500210
  H        2.8025100    -1.4530070    -0.5759610
  H        4.5013120     0.2245390    -1.4310650
  H        4.7086350     0.8297180     0.2214350
  H        5.1861620    -0.8265290    -0.1846820
units angstrom
no_reorient  #important for SAPT in psi4, default
symmetry c1  #important for SAPT in psi4, default
}

set PROPERTIES_ORIGIN ["COM"]
properties('MP2/aug-cc-pvtz', properties = ['dipole'])
--------------------------------------------------------------------------

    Molecular point group: c1
  Charge       = 0
  Multiplicity = 1
  Basis Set: AUG-CC-PVTZ
    Blend: AUG-CC-PVTZ
  Basis Set: (AUG-CC-PVTZ AUX)
    Blend: AUG-CC-PVTZ-JKFIT

    Orbital Energies [Eh]
    ---------------------

    Doubly Occupied:

       1A    -91.970848     2A    -20.557539     3A    -20.553437
       4A    -11.365716     5A    -11.347145     6A    -11.263400
       7A    -11.261682     8A    -11.249875     9A    -11.230930
      10A    -11.225830    11A     -8.972472    12A     -6.653627
      13A     -6.652499    14A     -6.651885    15A     -1.397112
      16A     -1.383534    17A     -1.092985    18A     -1.076629
      19A     -1.038321    20A     -0.970511    21A     -0.896978
      22A     -0.837381    23A     -0.762653    24A     -0.726398
      25A     -0.677738    26A     -0.668526    27A     -0.646672
      28A     -0.640784    29A     -0.634004    30A     -0.609371
      31A     -0.594015    32A     -0.558859    33A     -0.541960
      34A     -0.532480    35A     -0.527226    36A     -0.516993
      37A     -0.514385    38A     -0.505204    39A     -0.492516
      40A     -0.464233    41A     -0.429330    42A     -0.404737
      43A     -0.369979

  @DF-RHF Final Energy:  -819.49173851817091

   => Energetics <=

    Nuclear Repulsion Energy =            603.5762184559639536
    One-Electron Energy =               -2323.1991154982929402
    Two-Electron Energy =                 900.1311585241580815
    Total Energy =                       -819.4917385181709051
  Basis Set: (AUG-CC-PVTZ AUX)
    Blend: AUG-CC-PVTZ-RI
    Molecular point group: c1

    Geometry (in Angstrom), charge = 0, multiplicity = 1:

       Center              X                  Y                   Z               Mass
    ------------   -----------------  -----------------  -----------------  -----------------
         S            1.808288831403     0.719330299795    -0.343764786921    31.972071174400
         O           -1.806951568597    -0.933668100205    -0.797693286921    15.994914619570
         O            0.488227831403    -1.065113700205     1.112023213079    15.994914619570
         C           -0.833272168597     0.830202299795     0.472995213079    12.000000000000
         C           -3.366195168597     0.630337699795     0.263285613079    12.000000000000
         C           -2.015578168597     0.048843299795    -0.097654786921    12.000000000000
         C            0.426662831403    -0.007220700205     0.505769213079    12.000000000000
         C           -4.517615168597    -0.282721700205    -0.287085786921    12.000000000000
         C            3.051688831403    -0.559892700205    -0.010858786921    12.000000000000
         C            4.437344831403    -0.050187700205    -0.376657786921    12.000000000000
         H           -0.700146168597     1.742642299795    -0.122833786921     1.007825032230
         H           -1.053359168597     1.147329299795     1.499052213079     1.007825032230
         H           -3.458747168597     0.720243299795     1.322839213079     1.007825032230
         H           -3.450205168597     1.607855299795    -0.185256786921     1.007825032230
         H           -5.487821168597     0.162478299795    -0.052719786921     1.007825032230
         H           -4.438629168597    -0.406845700205    -1.368736786921     1.007825032230
         H           -4.472101168597    -1.276588700205     0.164260213079     1.007825032230
         H            2.990517831403    -0.811978700205     1.047380213079     1.007825032230
         H            2.796568831403    -1.456307700205    -0.578601786921     1.007825032230
         H            4.495370831403     0.221238299795    -1.433705786921     1.007825032230
         H            4.702693831403     0.826417299795     0.218794213079     1.007825032230
         H            5.180220831403    -0.829829700205    -0.187322786921     1.007825032230

  Basis Set: AUG-CC-PVTZ
    Blend: AUG-CC-PVTZ
  Basis Set: (AUG-CC-PVTZ AUX)
    Blend: AUG-CC-PVTZ-JKFIT
	 Reference Energy          =    -819.4917385181709051 [Eh]
	 Singles Energy            =      -0.0000000000000000 [Eh]
	 Same-Spin Energy          =      -0.4840426852337090 [Eh]
	 Opposite-Spin Energy      =      -1.5711352199383986 [Eh]
	 Correlation Energy        =      -2.0551779051721075 [Eh]
	 Total Energy              =    -821.5469164233429638 [Eh]

	 ================> DF-SCS-MP2 Energies <==================
	-----------------------------------------------------------
	 SCS Same-Spin Scale       =       0.3333333333333333 [-]
	 SCS Opposite-Spin Scale   =       1.2000000000000000 [-]
	 SCS Same-Spin Energy      =      -0.1613475617445697 [Eh]
	 SCS Opposite-Spin Energy  =      -1.8853622639260781 [Eh]
	 SCS Correlation Energy    =      -2.0467098256706477 [Eh]
	 SCS Total Energy          =    -821.5384483438415373 [Eh]
	-----------------------------------------------------------

  Dipole Moment: [D]
     X:    -0.1470      Y:     2.8232      Z:     0.6681     Total:     2.9049

*** Psi4 exiting successfully. Buy a developer a beer!
