                               Psi4 1.3.2 release

  ==> Input File <==

--------------------------------------------------------------------------
#psi4
#
memory 32 gb

molecule  {
0 1
  S        1.8142300     0.7226310    -0.3411240
  O       -1.8432130    -0.9348080    -0.8000930
  O        0.4941690    -1.0618130     1.1146640
  C       -0.8273310     0.8335030     0.4756360
  C       -3.3832440     0.5955310     0.2374230
  C       -2.0223507     0.0073170    -0.0700730
  C        0.4326040    -0.0039200     0.5084100
  C       -4.5116740    -0.2794210    -0.2844450
  C        3.0576300    -0.5565920    -0.0082180
  C        4.4432860    -0.0468870    -0.3740170
  H       -0.6942050     1.7459430    -0.1201930
  H       -1.0474180     1.1506300     1.5016930
  H       -3.4528060     0.7235440     1.3254800
  H       -3.4800677     1.6139279    -0.1689551
  H       -5.4818800     0.1657790    -0.0500790
  H       -4.4326880    -0.4035450    -1.3660960
  H       -4.4661600    -1.2732880     0.1669010
  H        2.9964590    -0.8086780     1.0500210
  H        2.8025100    -1.4530070    -0.5759610
  H        4.5013120     0.2245390    -1.4310650
  H        4.7086350     0.8297180     0.2214350
  H        5.1861620    -0.8265290    -0.1846820
units angstrom
no_reorient  #important for SAPT in psi4, default
symmetry c1  #important for SAPT in psi4, default
}

set PROPERTIES_ORIGIN ["COM"]
properties('MP2/aug-cc-pvtz', properties = ['dipole'])
--------------------------------------------------------------------------

    Molecular point group: c1
  Charge       = 0
  Multiplicity = 1
  Basis Set: AUG-CC-PVTZ
    Blend: AUG-CC-PVTZ
  Basis Set: (AUG-CC-PVTZ AUX)
    Blend: AUG-CC-PVTZ-JKFIT

    Orbital Energies [Eh]
    ---------------------

    Doubly Occupied:

       1A    -91.971234     2A    -20.558372     3A    -20.554077
       4A    -11.366092     5A    -11.345916     6A    -11.265202
       7A    -11.262065     8A    -11.249350     9A    -11.231208
      10A    -11.222090    11A     -8.972864    12A     -6.654018
      13A     -6.652889    14A     -6.652277    15A     -1.405550
      16A     -1.389100    17A     -1.092147    18A     -1.075619
      19A     -1.040951    20A     -0.970371    21A     -0.894582
      22A     -0.836566    23A     -0.758461    24A     -0.727562
      25A     -0.680733    26A     -0.666936    27A     -0.647689
      28A     -0.636943    29A     -0.634039    30A     -0.613033
      31A     -0.594208    32A     -0.559237    33A     -0.545937
      34A     -0.534043    35A     -0.527611    36A     -0.521447
      37A     -0.513529    38A     -0.503907    39A     -0.493308
      40A     -0.464800    41A     -0.428433    42A     -0.404129
      43A     -0.370440

  @DF-RHF Final Energy:  -819.49469024722089

   => Energetics <=

    Nuclear Repulsion Energy =            603.4754901902781512
    One-Electron Energy =               -2322.9624367129531493
    Two-Electron Energy =                 899.9922562754541104
    Total Energy =                       -819.4946902472208876
  Basis Set: (AUG-CC-PVTZ AUX)
    Blend: AUG-CC-PVTZ-RI
    Molecular point group: c1

    Geometry (in Angstrom), charge = 0, multiplicity = 1:

       Center              X                  Y                   Z               Mass
    ------------   -----------------  -----------------  -----------------  -----------------
         S            1.815408568665     0.725974521512    -0.343080004679    31.972071174400
         O           -1.842034431335    -0.931464478488    -0.802049004679    15.994914619570
         O            0.495347568665    -1.058469478488     1.112707995321    15.994914619570
         C           -0.826152431335     0.836846521512     0.473679995321    12.000000000000
         C           -3.382065431335     0.598874521512     0.235466995321    12.000000000000
         C           -2.021172131335     0.010660521512    -0.072029004679    12.000000000000
         C            0.433782568665    -0.000576478488     0.506453995321    12.000000000000
         C           -4.510495431335    -0.276077478488    -0.286401004679    12.000000000000
         C            3.058808568665    -0.553248478488    -0.010174004679    12.000000000000
         C            4.444464568665    -0.043543478488    -0.375973004679    12.000000000000
         H           -0.693026431335     1.749286521512    -0.122149004679     1.007825032230
         H           -1.046239431335     1.153973521512     1.499736995321     1.007825032230
         H           -3.451627431335     0.726887521512     1.323523995321     1.007825032230
         H           -3.478889131335     1.617271421512    -0.170911104679     1.007825032230
         H           -5.480701431335     0.169122521512    -0.052035004679     1.007825032230
         H           -4.431509431335    -0.400201478488    -1.368052004679     1.007825032230
         H           -4.464981431335    -1.269944478488     0.164944995321     1.007825032230
         H            2.997637568665    -0.805334478488     1.048064995321     1.007825032230
         H            2.803688568665    -1.449663478488    -0.577917004679     1.007825032230
         H            4.502490568665     0.227882521512    -1.433021004679     1.007825032230
         H            4.709813568665     0.833061521512     0.219478995321     1.007825032230
         H            5.187340568665    -0.823185478488    -0.186638004679     1.007825032230

  Basis Set: AUG-CC-PVTZ
    Blend: AUG-CC-PVTZ
  Basis Set: (AUG-CC-PVTZ AUX)
    Blend: AUG-CC-PVTZ-JKFIT
	 Reference Energy          =    -819.4946902472208876 [Eh]
	 Singles Energy            =      -0.0000000000000000 [Eh]
	 Same-Spin Energy          =      -0.4837187502023595 [Eh]
	 Opposite-Spin Energy      =      -1.5700540158752962 [Eh]
	 Correlation Energy        =      -2.0537727660776559 [Eh]
	 Total Energy              =    -821.5484630132984876 [Eh]

	 ================> DF-SCS-MP2 Energies <==================
	-----------------------------------------------------------
	 SCS Same-Spin Scale       =       0.3333333333333333 [-]
	 SCS Opposite-Spin Scale   =       1.2000000000000000 [-]
	 SCS Same-Spin Energy      =      -0.1612395834007865 [Eh]
	 SCS Opposite-Spin Energy  =      -1.8840648190503555 [Eh]
	 SCS Correlation Energy    =      -2.0453044024511420 [Eh]
	 SCS Total Energy          =    -821.5399946496720531 [Eh]
	-----------------------------------------------------------

  Dipole Moment: [D]
     X:    -0.1084      Y:     2.7598      Z:     0.6432     Total:     2.8358

*** Psi4 exiting successfully. Buy a developer a beer!
