                               Psi4 1.3.2 release

  ==> Input File <==

--------------------------------------------------------------------------
#psi4
#
memory 32 gb

molecule  {
0 1
  S        1.8142300     0.7226310    -0.3411240
  O       -1.8432130    -0.9348080    -0.8000930
  O        0.4941690    -1.0618130     1.1146640
  C       -0.8273310     0.8335030     0.4756360
  C       -3.3832440     0.5955310     0.2374230
  C       -2.0096370     0.0521440    -0.0950140
  C        0.4326040    -0.0039200     0.5084100
  C       -4.5116740    -0.2794210    -0.2844450
  C        3.0576300    -0.5565920    -0.0082180
  C        4.4432860    -0.0468870    -0.3740170
  H       -0.7184571     1.5797204    -0.0116486
  H       -1.0474180     1.1506300     1.5016930
  H       -3.4528060     0.7235440     1.3254800
  H       -3.4442640     1.6111560    -0.1826160
  H       -5.4818800     0.1657790    -0.0500790
  H       -4.4326880    -0.4035450    -1.3660960
  H       -4.4661600    -1.2732880     0.1669010
  H        2.9964590    -0.8086780     1.0500210
  H        2.8025100    -1.4530070    -0.5759610
  H        4.5013120     0.2245390    -1.4310650
  H        4.7086350     0.8297180     0.2214350
  H        5.1861620    -0.8265290    -0.1846820
units angstrom
no_reorient  #important for SAPT in psi4, default
symmetry c1  #important for SAPT in psi4, default
}

set PROPERTIES_ORIGIN ["COM"]
properties('MP2/aug-cc-pvtz', properties = ['dipole'])
--------------------------------------------------------------------------

    Molecular point group: c1
  Charge       = 0
  Multiplicity = 1
  Basis Set: AUG-CC-PVTZ
    Blend: AUG-CC-PVTZ
  Basis Set: (AUG-CC-PVTZ AUX)
    Blend: AUG-CC-PVTZ-JKFIT

    Orbital Energies [Eh]
    ---------------------

    Doubly Occupied:

       1A    -91.972106     2A    -20.555497     3A    -20.553738
       4A    -11.366082     5A    -11.345372     6A    -11.263051
       7A    -11.250097     8A    -11.243491     9A    -11.231771
      10A    -11.222412    11A     -8.973763    12A     -6.654932
      13A     -6.653806    14A     -6.653192    15A     -1.396619
      16A     -1.383412    17A     -1.102425    18A     -1.080771
      19A     -1.050312    20A     -0.973861    21A     -0.897620
      22A     -0.839483    23A     -0.759672    24A     -0.744557
      25A     -0.687587    26A     -0.672095    27A     -0.647297
      28A     -0.637862    29A     -0.634124    30A     -0.614799
      31A     -0.604061    32A     -0.560783    33A     -0.546013
      34A     -0.533025    35A     -0.527118    36A     -0.520914
      37A     -0.514843    38A     -0.504671    39A     -0.489482
      40A     -0.465411    41A     -0.429852    42A     -0.405854
      43A     -0.371176

  @DF-RHF Final Energy:  -819.46227475017827

   => Energetics <=

    Nuclear Repulsion Energy =            604.5707394792283367
    One-Electron Energy =               -2324.9960104952806432
    Two-Electron Energy =                 900.9629962658739259
    Total Energy =                       -819.4622747501782669
  Basis Set: (AUG-CC-PVTZ AUX)
    Blend: AUG-CC-PVTZ-RI
    Molecular point group: c1

    Geometry (in Angstrom), charge = 0, multiplicity = 1:

       Center              X                  Y                   Z               Mass
    ------------   -----------------  -----------------  -----------------  -----------------
         S            1.814382636516     0.723677778059    -0.341807535749    31.972071174400
         O           -1.843060363484    -0.933761221941    -0.800776535749    15.994914619570
         O            0.494321636516    -1.060766221941     1.113980464251    15.994914619570
         C           -0.827178363484     0.834549778059     0.474952464251    12.000000000000
         C           -3.383091363484     0.596577778059     0.236739464251    12.000000000000
         C           -2.009484363484     0.053190778059    -0.095697535749    12.000000000000
         C            0.432756636516    -0.002873221941     0.507726464251    12.000000000000
         C           -4.511521363484    -0.278374221941    -0.285128535749    12.000000000000
         C            3.057782636516    -0.555545221941    -0.008901535749    12.000000000000
         C            4.443438636516    -0.045840221941    -0.374700535749    12.000000000000
         H           -0.718304463484     1.580767178059    -0.012332135749     1.007825032230
         H           -1.047265363484     1.151676778059     1.501009464251     1.007825032230
         H           -3.452653363484     0.724590778059     1.324796464251     1.007825032230
         H           -3.444111363484     1.612202778059    -0.183299535749     1.007825032230
         H           -5.481727363484     0.166825778059    -0.050762535749     1.007825032230
         H           -4.432535363484    -0.402498221941    -1.366779535749     1.007825032230
         H           -4.466007363484    -1.272241221941     0.166217464251     1.007825032230
         H            2.996611636516    -0.807631221941     1.049337464251     1.007825032230
         H            2.802662636516    -1.451960221941    -0.576644535749     1.007825032230
         H            4.501464636516     0.225585778059    -1.431748535749     1.007825032230
         H            4.708787636516     0.830764778059     0.220751464251     1.007825032230
         H            5.186314636516    -0.825482221941    -0.185365535749     1.007825032230

  Basis Set: AUG-CC-PVTZ
    Blend: AUG-CC-PVTZ
  Basis Set: (AUG-CC-PVTZ AUX)
    Blend: AUG-CC-PVTZ-JKFIT
	 Reference Energy          =    -819.4622747501782669 [Eh]
	 Singles Energy            =      -0.0000000000000000 [Eh]
	 Same-Spin Energy          =      -0.4840137196478644 [Eh]
	 Opposite-Spin Energy      =      -1.5703138790777320 [Eh]
	 Correlation Energy        =      -2.0543275987255964 [Eh]
	 Total Energy              =    -821.5166023489039162 [Eh]

	 ================> DF-SCS-MP2 Energies <==================
	-----------------------------------------------------------
	 SCS Same-Spin Scale       =       0.3333333333333333 [-]
	 SCS Opposite-Spin Scale   =       1.2000000000000000 [-]
	 SCS Same-Spin Energy      =      -0.1613379065492881 [Eh]
	 SCS Opposite-Spin Energy  =      -1.8843766548932783 [Eh]
	 SCS Correlation Energy    =      -2.0457145614425665 [Eh]
	 SCS Total Energy          =    -821.5079893116208041 [Eh]
	-----------------------------------------------------------

  Dipole Moment: [D]
     X:    -0.0156      Y:     2.8384      Z:     0.6830     Total:     2.9195

*** Psi4 exiting successfully. Buy a developer a beer!
