                               Psi4 1.4a3.dev225

  ==> Input File <==

--------------------------------------------------------------------------
#psi4
#
memory 32 gb

molecule  {
0 1
  S        1.5586770    -0.2994370    -0.7152220
  O       -1.5255240    -0.4876820     1.0921970
  O        0.7924220     1.7006740     0.8461850
  C       -0.8878030     0.9736540    -0.7120840
  C       -3.2304390    -0.0998550    -0.5631210
  C       -1.8542380     0.0638590     0.0480780
  C        0.4663015     0.9177426    -0.1026827
  C       -4.1634610    -0.9398430     0.2972900
  C        2.9497330    -0.0790050     0.4324980
  C        4.0540790    -1.0751370     0.1033520
  H       -0.8484610     0.6756560    -1.7668750
  H       -1.2645150     2.0025910    -0.6674260
  H       -3.6447290     0.9013370    -0.7419330
  H       -3.1015980    -0.5455960    -1.5588690
  H       -5.1413450    -1.0357370    -0.1813640
  H       -3.7504260    -1.9381500     0.4523140
  H       -4.2995020    -0.4825820     1.2793320
  H        3.3022180     0.9509290     0.3487650
  H        2.5726230    -0.2199470     1.4475820
  H        3.7004310    -2.1050230     0.1947960
  H        4.4320470    -0.9299840    -0.9117720
  H        4.8873260    -0.9394890     0.7982930
units angstrom
no_reorient  #important for SAPT in psi4, default
symmetry c1  #important for SAPT in psi4, default
}

set PROPERTIES_ORIGIN ["COM"]
properties('MP2/aug-cc-pvtz', properties = ['dipole'])
--------------------------------------------------------------------------

    Molecular point group: c1
  Charge       = 0
  Multiplicity = 1
  Basis Set: AUG-CC-PVTZ
    Blend: AUG-CC-PVTZ
  Basis Set: (AUG-CC-PVTZ AUX)
    Blend: AUG-CC-PVTZ-JKFIT

    Orbital Energies [Eh]
    ---------------------

    Doubly Occupied:

       1A    -91.973747     2A    -20.559886     3A    -20.547456
       4A    -11.367151     5A    -11.350842     6A    -11.266869
       7A    -11.263790     8A    -11.253020     9A    -11.231911
      10A    -11.224919    11A     -8.975703    12A     -6.656946
      13A     -6.655768    14A     -6.655177    15A     -1.393535
      16A     -1.354450    17A     -1.097967    18A     -1.079073
      19A     -1.047285    20A     -0.975181    21A     -0.899612
      22A     -0.839670    23A     -0.762759    24A     -0.726019
      25A     -0.679240    26A     -0.668926    27A     -0.645542
      28A     -0.634331    29A     -0.631395    30A     -0.608944
      31A     -0.589914    32A     -0.556420    33A     -0.542622
      34A     -0.527726    35A     -0.526466    36A     -0.522234
      37A     -0.511766    38A     -0.495249    39A     -0.493354
      40A     -0.465380    41A     -0.432524    42A     -0.411116
      43A     -0.369745

  @DF-RHF Final Energy:  -819.48658553557834

   => Energetics <=

    Nuclear Repulsion Energy =            610.2389960932752047
    One-Electron Energy =               -2336.5079025631134755
    Two-Electron Energy =                 906.7823209342600421
    Total Energy =                       -819.4865855355783424
  Basis Set: (AUG-CC-PVTZ AUX)
    Blend: AUG-CC-PVTZ-RI
    Molecular point group: c1

    Geometry (in Angstrom), charge = 0, multiplicity = 1:

       Center              X                  Y                   Z               Mass
    ------------   -----------------  -----------------  -----------------  -----------------
         S            1.540322952174    -0.319869799390    -0.720593276459    31.972071174400
         O           -1.543878047826    -0.508114799390     1.086825723541    15.994914619570
         O            0.774067952174     1.680241200610     0.840813723541    15.994914619570
         C           -0.906157047826     0.953221200610    -0.717455276459    12.000000000000
         C           -3.248793047826    -0.120287799390    -0.568492276459    12.000000000000
         C           -1.872592047826     0.043426200610     0.042706723541    12.000000000000
         C            0.447947452174     0.897309800610    -0.108053976459    12.000000000000
         C           -4.181815047826    -0.960275799390     0.291918723541    12.000000000000
         C            2.931378952174    -0.099437799390     0.427126723541    12.000000000000
         C            4.035724952174    -1.095569799390     0.097980723541    12.000000000000
         H           -0.866815047826     0.655223200610    -1.772246276459     1.007825032230
         H           -1.282869047826     1.982158200610    -0.672797276459     1.007825032230
         H           -3.663083047826     0.880904200610    -0.747304276459     1.007825032230
         H           -3.119952047826    -0.566028799390    -1.564240276459     1.007825032230
         H           -5.159699047826    -1.056169799390    -0.186735276459     1.007825032230
         H           -3.768780047826    -1.958582799390     0.446942723541     1.007825032230
         H           -4.317856047826    -0.503014799390     1.273960723541     1.007825032230
         H            3.283863952174     0.930496200610     0.343393723541     1.007825032230
         H            2.554268952174    -0.240379799390     1.442210723541     1.007825032230
         H            3.682076952174    -2.125455799390     0.189424723541     1.007825032230
         H            4.413692952174    -0.950416799390    -0.917143276459     1.007825032230
         H            4.868971952174    -0.959921799390     0.792921723541     1.007825032230

  Basis Set: AUG-CC-PVTZ
    Blend: AUG-CC-PVTZ
  Basis Set: (AUG-CC-PVTZ AUX)
    Blend: AUG-CC-PVTZ-JKFIT
	 Reference Energy          =    -819.4865855355783424 [Eh]
	 Singles Energy            =      -0.0000000000000000 [Eh]
	 Same-Spin Energy          =      -0.4861567238114498 [Eh]
	 Opposite-Spin Energy      =      -1.5744744283155661 [Eh]
	 Correlation Energy        =      -2.0606311521270158 [Eh]
	 Total Energy              =    -821.5472166877053724 [Eh]

	 ================> DF-SCS-MP2 Energies <==================
	-----------------------------------------------------------
	 SCS Same-Spin Scale       =       0.3333333333333333 [-]
	 SCS Opposite-Spin Scale   =       1.2000000000000000 [-]
	 SCS Same-Spin Energy      =      -0.1620522412704833 [Eh]
	 SCS Opposite-Spin Energy  =      -1.8893693139786791 [Eh]
	 SCS Correlation Energy    =      -2.0514215552491626 [Eh]
	 SCS Total Energy          =    -821.5380070908274774 [Eh]
	-----------------------------------------------------------

  Dipole Moment: [D]
     X:    -0.6583      Y:    -0.4492      Z:    -2.8396     Total:     2.9493

*** Psi4 exiting successfully. Buy a developer a beer!
