                               Psi4 1.3.2 release

  ==> Input File <==

--------------------------------------------------------------------------
#psi4
#
memory 32 gb

molecule  {
0 1
  S        1.8142300     0.7226310    -0.3411240
  O       -1.8432130    -0.9348080    -0.8000930
  O        0.4941690    -1.0618130     1.1146640
  C       -0.8273310     0.8335030     0.4756360
  C       -3.3832440     0.5955310     0.2374230
  C       -1.9976135    -0.0032021    -0.0385374
  C        0.4326040    -0.0039200     0.5084100
  C       -4.5116740    -0.2794210    -0.2844450
  C        3.0576300    -0.5565920    -0.0082180
  C        4.4432860    -0.0468870    -0.3740170
  H       -0.6498395     1.7597522    -0.0863611
  H       -1.0474180     1.1506300     1.5016930
  H       -3.4528060     0.7235440     1.3254800
  H       -3.4442640     1.6111560    -0.1826160
  H       -5.4818800     0.1657790    -0.0500790
  H       -4.4326880    -0.4035450    -1.3660960
  H       -4.4661600    -1.2732880     0.1669010
  H        2.9964590    -0.8086780     1.0500210
  H        2.8025100    -1.4530070    -0.5759610
  H        4.5013120     0.2245390    -1.4310650
  H        4.7086350     0.8297180     0.2214350
  H        5.1861620    -0.8265290    -0.1846820
units angstrom
no_reorient  #important for SAPT in psi4, default
symmetry c1  #important for SAPT in psi4, default
}

set PROPERTIES_ORIGIN ["COM"]
properties('MP2/aug-cc-pvtz', properties = ['dipole'])
--------------------------------------------------------------------------

    Molecular point group: c1
  Charge       = 0
  Multiplicity = 1
  Basis Set: AUG-CC-PVTZ
    Blend: AUG-CC-PVTZ
  Basis Set: (AUG-CC-PVTZ AUX)
    Blend: AUG-CC-PVTZ-JKFIT

    Orbital Energies [Eh]
    ---------------------

    Doubly Occupied:

       1A    -91.972144     2A    -20.558184     3A    -20.554729
       4A    -11.366720     5A    -11.346563     6A    -11.266527
       7A    -11.262793     8A    -11.249249     9A    -11.231740
      10A    -11.221378    11A     -8.973782    12A     -6.654938
      13A     -6.653809    14A     -6.653198    15A     -1.401976
      16A     -1.388214    17A     -1.093710    18A     -1.074924
      19A     -1.041689    20A     -0.971975    21A     -0.893005
      22A     -0.837304    23A     -0.759189    24A     -0.728865
      25A     -0.680535    26A     -0.666221    27A     -0.648652
      28A     -0.636389    29A     -0.633689    30A     -0.610842
      31A     -0.594717    32A     -0.559809    33A     -0.545746
      34A     -0.533767    35A     -0.527403    36A     -0.520748
      37A     -0.512980    38A     -0.503884    39A     -0.491128
      40A     -0.465590    41A     -0.429848    42A     -0.404238
      43A     -0.371356

  @DF-RHF Final Energy:  -819.49183414693266

   => Energetics <=

    Nuclear Repulsion Energy =            603.6323863283867013
    One-Electron Energy =               -2323.2601456579609476
    Two-Electron Energy =                 900.1359251826415857
    Total Energy =                       -819.4918341469326606
  Basis Set: (AUG-CC-PVTZ AUX)
    Blend: AUG-CC-PVTZ-RI
    Molecular point group: c1

    Geometry (in Angstrom), charge = 0, multiplicity = 1:

       Center              X                  Y                   Z               Mass
    ------------   -----------------  -----------------  -----------------  -----------------
         S            1.813049123242     0.726693680282    -0.345571361048    31.972071174400
         O           -1.844393876758    -0.930745319718    -0.804540361048    15.994914619570
         O            0.492988123242    -1.057750319718     1.110216638952    15.994914619570
         C           -0.828511876758     0.837565680282     0.471188638952    12.000000000000
         C           -3.384424876758     0.599593680282     0.232975638952    12.000000000000
         C           -1.998794376758     0.000860580282    -0.042984761048    12.000000000000
         C            0.431423123242     0.000142680282     0.503962638952    12.000000000000
         C           -4.512854876758    -0.275358319718    -0.288892361048    12.000000000000
         C            3.056449123242    -0.552529319718    -0.012665361048    12.000000000000
         C            4.442105123242    -0.042824319718    -0.378464361048    12.000000000000
         H           -0.651020376758     1.763814880282    -0.090808461048     1.007825032230
         H           -1.048598876758     1.154692680282     1.497245638952     1.007825032230
         H           -3.453986876758     0.727606680282     1.321032638952     1.007825032230
         H           -3.445444876758     1.615218680282    -0.187063361048     1.007825032230
         H           -5.483060876758     0.169841680282    -0.054526361048     1.007825032230
         H           -4.433868876758    -0.399482319718    -1.370543361048     1.007825032230
         H           -4.467340876758    -1.269225319718     0.162453638952     1.007825032230
         H            2.995278123242    -0.804615319718     1.045573638952     1.007825032230
         H            2.801329123242    -1.448944319718    -0.580408361048     1.007825032230
         H            4.500131123242     0.228601680282    -1.435512361048     1.007825032230
         H            4.707454123242     0.833780680282     0.216987638952     1.007825032230
         H            5.184981123242    -0.822466319718    -0.189129361048     1.007825032230

  Basis Set: AUG-CC-PVTZ
    Blend: AUG-CC-PVTZ
  Basis Set: (AUG-CC-PVTZ AUX)
    Blend: AUG-CC-PVTZ-JKFIT
	 Reference Energy          =    -819.4918341469326606 [Eh]
	 Singles Energy            =      -0.0000000000000000 [Eh]
	 Same-Spin Energy          =      -0.4840163487475496 [Eh]
	 Opposite-Spin Energy      =      -1.5708305115303987 [Eh]
	 Correlation Energy        =      -2.0548468602779484 [Eh]
	 Total Energy              =    -821.5466810072106227 [Eh]

	 ================> DF-SCS-MP2 Energies <==================
	-----------------------------------------------------------
	 SCS Same-Spin Scale       =       0.3333333333333333 [-]
	 SCS Opposite-Spin Scale   =       1.2000000000000000 [-]
	 SCS Same-Spin Energy      =      -0.1613387829158499 [Eh]
	 SCS Opposite-Spin Energy  =      -1.8849966138364782 [Eh]
	 SCS Correlation Energy    =      -2.0463353967523279 [Eh]
	 SCS Total Energy          =    -821.5381695436849441 [Eh]
	-----------------------------------------------------------

  Dipole Moment: [D]
     X:     0.0701      Y:     2.7703      Z:     0.6820     Total:     2.8539

*** Psi4 exiting successfully. Buy a developer a beer!
