                               Psi4 1.3.2 release

  ==> Input File <==

--------------------------------------------------------------------------
#psi4
#
memory 32 gb

molecule  {
0 1
  S        1.8142300     0.7226310    -0.3411240
  O       -1.8432130    -0.9348080    -0.8000930
  O        0.4941690    -1.0618130     1.1146640
  C       -0.8273310     0.8335030     0.4756360
  C       -3.3832440     0.5955310     0.2374230
  C       -2.0096370     0.0521440    -0.0950140
  C        0.4875450    -0.0753468     0.5315805
  C       -4.5116740    -0.2794210    -0.2844450
  C        2.9914965    -0.6047813     0.0400604
  C        4.4432860    -0.0468870    -0.3740170
  H       -0.6942050     1.7459430    -0.1201930
  H       -1.0474180     1.1506300     1.5016930
  H       -3.4528060     0.7235440     1.3254800
  H       -3.4442640     1.6111560    -0.1826160
  H       -5.4818800     0.1657790    -0.0500790
  H       -4.4326880    -0.4035450    -1.3660960
  H       -4.4661600    -1.2732880     0.1669010
  H        2.9964590    -0.8086780     1.0500210
  H        2.8025100    -1.4530070    -0.5759610
  H        4.5013120     0.2245390    -1.4310650
  H        4.7086350     0.8297180     0.2214350
  H        5.1861620    -0.8265290    -0.1846820
units angstrom
no_reorient  #important for SAPT in psi4, default
symmetry c1  #important for SAPT in psi4, default
}

set PROPERTIES_ORIGIN ["COM"]
properties('MP2/aug-cc-pvtz', properties = ['dipole'])
--------------------------------------------------------------------------

    Molecular point group: c1
  Charge       = 0
  Multiplicity = 1
  Basis Set: AUG-CC-PVTZ
    Blend: AUG-CC-PVTZ
  Basis Set: (AUG-CC-PVTZ AUX)
    Blend: AUG-CC-PVTZ-JKFIT

    Orbital Energies [Eh]
    ---------------------

    Doubly Occupied:

       1A    -91.970511     2A    -20.563755     3A    -20.551882
       4A    -11.361206     5A    -11.341132     6A    -11.260667
       7A    -11.258987     8A    -11.246582     9A    -11.233581
      10A    -11.220177    11A     -8.972359    12A     -6.653504
      13A     -6.652188    14A     -6.651562    15A     -1.450286
      16A     -1.384583    17A     -1.086745    18A     -1.070854
      19A     -1.027037    20A     -0.963837    21A     -0.889674
      22A     -0.843829    23A     -0.754401    24A     -0.728364
      25A     -0.677476    26A     -0.666692    27A     -0.656446
      28A     -0.645364    29A     -0.636486    30A     -0.609520
      31A     -0.593718    32A     -0.563801    33A     -0.559871
      34A     -0.535485    35A     -0.526580    36A     -0.518091
      37A     -0.510694    38A     -0.501964    39A     -0.487042
      40A     -0.470015    41A     -0.426591    42A     -0.392793
      43A     -0.375852

  @DF-RHF Final Energy:  -819.48142296018523

   => Energetics <=

    Nuclear Repulsion Energy =            603.9496307633780816
    One-Electron Energy =               -2323.8777396256132306
    Two-Electron Energy =                 900.4466859020499214
    Total Energy =                       -819.4814229601852276
  Basis Set: (AUG-CC-PVTZ AUX)
    Blend: AUG-CC-PVTZ-RI
    Molecular point group: c1

    Geometry (in Angstrom), charge = 0, multiplicity = 1:

       Center              X                  Y                   Z               Mass
    ------------   -----------------  -----------------  -----------------  -----------------
         S            1.815069072909     0.731599202315    -0.346480862382    31.972071174400
         O           -1.842373927091    -0.925839797685    -0.805449862382    15.994914619570
         O            0.495008072909    -1.052844797685     1.109307137618    15.994914619570
         C           -0.826491927091     0.842471202315     0.470279137618    12.000000000000
         C           -3.382404927091     0.604499202315     0.232066137618    12.000000000000
         C           -2.008797927091     0.061112202315    -0.100370862382    12.000000000000
         C            0.488384072909    -0.066378597685     0.526223637618    12.000000000000
         C           -4.510834927091    -0.270452797685    -0.289801862382    12.000000000000
         C            2.992335572909    -0.595813097685     0.034703537618    12.000000000000
         C            4.444125072909    -0.037918797685    -0.379373862382    12.000000000000
         H           -0.693365927091     1.754911202315    -0.125549862382     1.007825032230
         H           -1.046578927091     1.159598202315     1.496336137618     1.007825032230
         H           -3.451966927091     0.732512202315     1.320123137618     1.007825032230
         H           -3.443424927091     1.620124202315    -0.187972862382     1.007825032230
         H           -5.481040927091     0.174747202315    -0.055435862382     1.007825032230
         H           -4.431848927091    -0.394576797685    -1.371452862382     1.007825032230
         H           -4.465320927091    -1.264319797685     0.161544137618     1.007825032230
         H            2.997298072909    -0.799709797685     1.044664137618     1.007825032230
         H            2.803349072909    -1.444038797685    -0.581317862382     1.007825032230
         H            4.502151072909     0.233507202315    -1.436421862382     1.007825032230
         H            4.709474072909     0.838686202315     0.216078137618     1.007825032230
         H            5.187001072909    -0.817560797685    -0.190038862382     1.007825032230

  Basis Set: AUG-CC-PVTZ
    Blend: AUG-CC-PVTZ
  Basis Set: (AUG-CC-PVTZ AUX)
    Blend: AUG-CC-PVTZ-JKFIT
	 Reference Energy          =    -819.4814229601852276 [Eh]
	 Singles Energy            =      -0.0000000000000000 [Eh]
	 Same-Spin Energy          =      -0.4821086735535821 [Eh]
	 Opposite-Spin Energy      =      -1.5676334359997073 [Eh]
	 Correlation Energy        =      -2.0497421095532893 [Eh]
	 Total Energy              =    -821.5311650697385630 [Eh]

	 ================> DF-SCS-MP2 Energies <==================
	-----------------------------------------------------------
	 SCS Same-Spin Scale       =       0.3333333333333333 [-]
	 SCS Opposite-Spin Scale   =       1.2000000000000000 [-]
	 SCS Same-Spin Energy      =      -0.1607028911845274 [Eh]
	 SCS Opposite-Spin Energy  =      -1.8811601231996486 [Eh]
	 SCS Correlation Energy    =      -2.0418630143841758 [Eh]
	 SCS Total Energy          =    -821.5232859745693759 [Eh]
	-----------------------------------------------------------

  Dipole Moment: [D]
     X:     0.1741      Y:     2.5871      Z:     0.8287     Total:     2.7222

*** Psi4 exiting successfully. Buy a developer a beer!
