                               Psi4 1.3.2 release

  ==> Input File <==

--------------------------------------------------------------------------
#psi4
#
memory 32 gb

molecule  {
0 1
  S        1.8142300     0.7226310    -0.3411240
  O       -1.8432130    -0.9348080    -0.8000930
  O        0.4941690    -1.0618130     1.1146640
  C       -0.8273310     0.8335030     0.4756360
  C       -3.3832440     0.5955310     0.2374230
  C       -2.0096370     0.0521440    -0.0950140
  C        0.4275612     0.0827323     0.4587516
  C       -4.5116740    -0.2794210    -0.2844450
  C        3.0576300    -0.5565920    -0.0082180
  C        4.4432860    -0.0468870    -0.3740170
  H       -0.6942050     1.7459430    -0.1201930
  H       -1.0474180     1.1506300     1.5016930
  H       -3.4528060     0.7235440     1.3254800
  H       -3.4442640     1.6111560    -0.1826160
  H       -5.4818800     0.1657790    -0.0500790
  H       -4.4326880    -0.4035450    -1.3660960
  H       -4.4661600    -1.2732880     0.1669010
  H        2.9964590    -0.8086780     1.0500210
  H        2.8025100    -1.4530070    -0.5759610
  H        4.5013120     0.2245390    -1.4310650
  H        4.7086350     0.8297180     0.2214350
  H        5.1861620    -0.8265290    -0.1846820
units angstrom
no_reorient  #important for SAPT in psi4, default
symmetry c1  #important for SAPT in psi4, default
}

set PROPERTIES_ORIGIN ["COM"]
properties('MP2/aug-cc-pvtz', properties = ['dipole'])
--------------------------------------------------------------------------

    Molecular point group: c1
  Charge       = 0
  Multiplicity = 1
  Basis Set: AUG-CC-PVTZ
    Blend: AUG-CC-PVTZ
  Basis Set: (AUG-CC-PVTZ AUX)
    Blend: AUG-CC-PVTZ-JKFIT

    Orbital Energies [Eh]
    ---------------------

    Doubly Occupied:

       1A    -91.982809     2A    -20.555298     3A    -20.539628
       4A    -11.370656     5A    -11.347356     6A    -11.267647
       7A    -11.267200     8A    -11.250609     9A    -11.235413
      10A    -11.222456    11A     -8.984782    12A     -6.666030
      13A     -6.664832    14A     -6.664322    15A     -1.389088
      16A     -1.325006    17A     -1.102927    18A     -1.081213
      19A     -1.049385    20A     -0.982930    21A     -0.899779
      22A     -0.844710    23A     -0.764492    24A     -0.724137
      25A     -0.678104    26A     -0.667632    27A     -0.642866
      28A     -0.637150    29A     -0.629465    30A     -0.605180
      31A     -0.588424    32A     -0.551576    33A     -0.543254
      34A     -0.529477    35A     -0.524853    36A     -0.521363
      37A     -0.510614    38A     -0.492884    39A     -0.479140
      40A     -0.467569    41A     -0.428319    42A     -0.413704
      43A     -0.372864

  @DF-RHF Final Energy:  -819.47090120502889

   => Energetics <=

    Nuclear Repulsion Energy =            603.2856572008538478
    One-Electron Energy =               -2322.5788378266438485
    Two-Electron Energy =                 899.8222794207611059
    Total Energy =                       -819.4709012050288948
  Basis Set: (AUG-CC-PVTZ AUX)
    Blend: AUG-CC-PVTZ-RI
    Molecular point group: c1

    Geometry (in Angstrom), charge = 0, multiplicity = 1:

       Center              X                  Y                   Z               Mass
    ------------   -----------------  -----------------  -----------------  -----------------
         S            1.814608006208     0.716134465720    -0.337400981536    31.972071174400
         O           -1.842834993792    -0.941304534280    -0.796369981536    15.994914619570
         O            0.494547006208    -1.068309534280     1.118387018464    15.994914619570
         C           -0.826952993792     0.827006465720     0.479359018464    12.000000000000
         C           -3.382865993792     0.589034465720     0.241146018464    12.000000000000
         C           -2.009258993792     0.045647465720    -0.091290981536    12.000000000000
         C            0.427939206208     0.076235765720     0.462474618464    12.000000000000
         C           -4.511295993792    -0.285917534280    -0.280721981536    12.000000000000
         C            3.058008006208    -0.563088534280    -0.004494981536    12.000000000000
         C            4.443664006208    -0.053383534280    -0.370293981536    12.000000000000
         H           -0.693826993792     1.739446465720    -0.116469981536     1.007825032230
         H           -1.047039993792     1.144133465720     1.505416018464     1.007825032230
         H           -3.452427993792     0.717047465720     1.329203018464     1.007825032230
         H           -3.443885993792     1.604659465720    -0.178892981536     1.007825032230
         H           -5.481501993792     0.159282465720    -0.046355981536     1.007825032230
         H           -4.432309993792    -0.410041534280    -1.362372981536     1.007825032230
         H           -4.465781993792    -1.279784534280     0.170624018464     1.007825032230
         H            2.996837006208    -0.815174534280     1.053744018464     1.007825032230
         H            2.802888006208    -1.459503534280    -0.572237981536     1.007825032230
         H            4.501690006208     0.218042465720    -1.427341981536     1.007825032230
         H            4.709013006208     0.823221465720     0.225158018464     1.007825032230
         H            5.186540006208    -0.833025534280    -0.180958981536     1.007825032230

  Basis Set: AUG-CC-PVTZ
    Blend: AUG-CC-PVTZ
  Basis Set: (AUG-CC-PVTZ AUX)
    Blend: AUG-CC-PVTZ-JKFIT
	 Reference Energy          =    -819.4709012050288948 [Eh]
	 Singles Energy            =      -0.0000000000000000 [Eh]
	 Same-Spin Energy          =      -0.4875583768775876 [Eh]
	 Opposite-Spin Energy      =      -1.5774129597925106 [Eh]
	 Correlation Energy        =      -2.0649713366700984 [Eh]
	 Total Energy              =    -821.5358725416989500 [Eh]

	 ================> DF-SCS-MP2 Energies <==================
	-----------------------------------------------------------
	 SCS Same-Spin Scale       =       0.3333333333333333 [-]
	 SCS Opposite-Spin Scale   =       1.2000000000000000 [-]
	 SCS Same-Spin Energy      =      -0.1625194589591959 [Eh]
	 SCS Opposite-Spin Energy  =      -1.8928955517510127 [Eh]
	 SCS Correlation Energy    =      -2.0554150107102087 [Eh]
	 SCS Total Energy          =    -821.5263162157391434 [Eh]
	-----------------------------------------------------------

  Dipole Moment: [D]
     X:     0.3271      Y:     3.1522      Z:     0.3808     Total:     3.1919

*** Psi4 exiting successfully. Buy a developer a beer!
