                               Psi4 1.4a3.dev225

  ==> Input File <==

--------------------------------------------------------------------------
#psi4
#
memory 32 gb

molecule  {
0 1
  S        1.5586770    -0.2994370    -0.7152220
  O       -1.5255240    -0.4876820     1.0921970
  O        0.7924220     1.7006740     0.8461850
  C       -0.8878030     0.9736540    -0.7120840
  C       -3.2304390    -0.0998550    -0.5631210
  C       -1.8542380     0.0638590     0.0480780
  C        0.4610376     0.9488346    -0.0739558
  C       -4.1634610    -0.9398430     0.2972900
  C        2.9497330    -0.0790050     0.4324980
  C        4.0540790    -1.0751370     0.1033520
  H       -0.8484610     0.6756560    -1.7668750
  H       -1.2645150     2.0025910    -0.6674260
  H       -3.6447290     0.9013370    -0.7419330
  H       -3.1015980    -0.5455960    -1.5588690
  H       -5.1413450    -1.0357370    -0.1813640
  H       -3.7504260    -1.9381500     0.4523140
  H       -4.2995020    -0.4825820     1.2793320
  H        3.3022180     0.9509290     0.3487650
  H        2.5726230    -0.2199470     1.4475820
  H        3.7004310    -2.1050230     0.1947960
  H        4.4320470    -0.9299840    -0.9117720
  H        4.8873260    -0.9394890     0.7982930
units angstrom
no_reorient  #important for SAPT in psi4, default
symmetry c1  #important for SAPT in psi4, default
}

set PROPERTIES_ORIGIN ["COM"]
properties('MP2/aug-cc-pvtz', properties = ['dipole'])
--------------------------------------------------------------------------

    Molecular point group: c1
  Charge       = 0
  Multiplicity = 1
  Basis Set: AUG-CC-PVTZ
    Blend: AUG-CC-PVTZ
  Basis Set: (AUG-CC-PVTZ AUX)
    Blend: AUG-CC-PVTZ-JKFIT

    Orbital Energies [Eh]
    ---------------------

    Doubly Occupied:

       1A    -91.968067     2A    -20.560323     3A    -20.554508
       4A    -11.366635     5A    -11.351223     6A    -11.267102
       7A    -11.261209     8A    -11.253225     9A    -11.229835
      10A    -11.225115    11A     -8.969656    12A     -6.650835
      13A     -6.649732    14A     -6.649095    15A     -1.395735
      16A     -1.380710    17A     -1.094591    18A     -1.077207
      19A     -1.046463    20A     -0.968428    21A     -0.899422
      22A     -0.835630    23A     -0.762900    24A     -0.727254
      25A     -0.679835    26A     -0.670950    27A     -0.649251
      28A     -0.636195    29A     -0.631862    30A     -0.611391
      31A     -0.590921    32A     -0.558888    33A     -0.545211
      34A     -0.529764    35A     -0.526247    36A     -0.522487
      37A     -0.512752    38A     -0.502555    39A     -0.494638
      40A     -0.463075    41A     -0.432667    42A     -0.407456
      43A     -0.366934

  @DF-RHF Final Energy:  -819.49388955276800

   => Energetics <=

    Nuclear Repulsion Energy =            610.1466013693733430
    One-Electron Energy =               -2336.3250274063793768
    Two-Electron Energy =                 906.6845364842379240
    Total Energy =                       -819.4938895527679961
  Basis Set: (AUG-CC-PVTZ AUX)
    Blend: AUG-CC-PVTZ-RI
    Molecular point group: c1

    Geometry (in Angstrom), charge = 0, multiplicity = 1:

       Center              X                  Y                   Z               Mass
    ------------   -----------------  -----------------  -----------------  -----------------
         S            1.540717607036    -0.322200886412    -0.722747042822    31.972071174400
         O           -1.543483392964    -0.510445886412     1.084671957178    15.994914619570
         O            0.774462607036     1.677910113588     0.838659957178    15.994914619570
         C           -0.905762392964     0.950890113588    -0.719609042822    12.000000000000
         C           -3.248398392964    -0.122618886412    -0.570646042822    12.000000000000
         C           -1.872197392964     0.041095113588     0.040552957178    12.000000000000
         C            0.443078207036     0.926070713588    -0.081480842822    12.000000000000
         C           -4.181420392964    -0.962606886412     0.289764957178    12.000000000000
         C            2.931773607036    -0.101768886412     0.424972957178    12.000000000000
         C            4.036119607036    -1.097900886412     0.095826957178    12.000000000000
         H           -0.866420392964     0.652892113588    -1.774400042822     1.007825032230
         H           -1.282474392964     1.979827113588    -0.674951042822     1.007825032230
         H           -3.662688392964     0.878573113588    -0.749458042822     1.007825032230
         H           -3.119557392964    -0.568359886412    -1.566394042822     1.007825032230
         H           -5.159304392964    -1.058500886412    -0.188889042822     1.007825032230
         H           -3.768385392964    -1.960913886412     0.444788957178     1.007825032230
         H           -4.317461392964    -0.505345886412     1.271806957178     1.007825032230
         H            3.284258607036     0.928165113588     0.341239957178     1.007825032230
         H            2.554663607036    -0.242710886412     1.440056957178     1.007825032230
         H            3.682471607036    -2.127786886412     0.187270957178     1.007825032230
         H            4.414087607036    -0.952747886412    -0.919297042822     1.007825032230
         H            4.869366607036    -0.962252886412     0.790767957178     1.007825032230

  Basis Set: AUG-CC-PVTZ
    Blend: AUG-CC-PVTZ
  Basis Set: (AUG-CC-PVTZ AUX)
    Blend: AUG-CC-PVTZ-JKFIT
	 Reference Energy          =    -819.4938895527679961 [Eh]
	 Singles Energy            =      -0.0000000000000000 [Eh]
	 Same-Spin Energy          =      -0.4849355530788807 [Eh]
	 Opposite-Spin Energy      =      -1.5721610900302085 [Eh]
	 Correlation Energy        =      -2.0570966431090891 [Eh]
	 Total Energy              =    -821.5509861958770443 [Eh]

	 ================> DF-SCS-MP2 Energies <==================
	-----------------------------------------------------------
	 SCS Same-Spin Scale       =       0.3333333333333333 [-]
	 SCS Opposite-Spin Scale   =       1.2000000000000000 [-]
	 SCS Same-Spin Energy      =      -0.1616451843596269 [Eh]
	 SCS Opposite-Spin Energy  =      -1.8865933080362502 [Eh]
	 SCS Correlation Energy    =      -2.0482384923958770 [Eh]
	 SCS Total Energy          =    -821.5421280451638495 [Eh]
	-----------------------------------------------------------

  Dipole Moment: [D]
     X:    -0.8513      Y:    -0.2118      Z:    -2.7034     Total:     2.8422

*** Psi4 exiting successfully. Buy a developer a beer!
