                               Psi4 1.3.2 release

  ==> Input File <==

--------------------------------------------------------------------------
#psi4
#
memory 32 gb

molecule  {
0 1
  S        1.8142300     0.7226310    -0.3411240
  O       -1.8432130    -0.9348080    -0.8000930
  O        0.4941690    -1.0618130     1.1146640
  C       -0.8273310     0.8335030     0.4756360
  C       -3.3832440     0.5955310     0.2374230
  C       -1.9937695     0.0309634    -0.0982647
  C        0.4191600    -0.0241373     0.4980171
  C       -4.5116740    -0.2794210    -0.2844450
  C        3.0576300    -0.5565920    -0.0082180
  C        4.4432860    -0.0468870    -0.3740170
  H       -0.6942050     1.7459430    -0.1201930
  H       -1.0474180     1.1506300     1.5016930
  H       -3.4528060     0.7235440     1.3254800
  H       -3.4442640     1.6111560    -0.1826160
  H       -5.4818800     0.1657790    -0.0500790
  H       -4.4326880    -0.4035450    -1.3660960
  H       -4.4661600    -1.2732880     0.1669010
  H        2.9964590    -0.8086780     1.0500210
  H        2.8025100    -1.4530070    -0.5759610
  H        4.5013120     0.2245390    -1.4310650
  H        4.7086350     0.8297180     0.2214350
  H        5.1861620    -0.8265290    -0.1846820
units angstrom
no_reorient  #important for SAPT in psi4, default
symmetry c1  #important for SAPT in psi4, default
}

set PROPERTIES_ORIGIN ["COM"]
properties('MP2/aug-cc-pvtz', properties = ['dipole'])
--------------------------------------------------------------------------

    Molecular point group: c1
  Charge       = 0
  Multiplicity = 1
  Basis Set: AUG-CC-PVTZ
    Blend: AUG-CC-PVTZ
  Basis Set: (AUG-CC-PVTZ AUX)
    Blend: AUG-CC-PVTZ-JKFIT

    Orbital Energies [Eh]
    ---------------------

    Doubly Occupied:

       1A    -91.970011     2A    -20.558061     3A    -20.557604
       4A    -11.367382     5A    -11.344772     6A    -11.266435
       7A    -11.261715     8A    -11.248674     9A    -11.230961
      10A    -11.221410    11A     -8.971493    12A     -6.652623
      13A     -6.651519    14A     -6.650893    15A     -1.409486
      16A     -1.396713    17A     -1.092170    18A     -1.074555
      19A     -1.041318    20A     -0.969412    21A     -0.892184
      22A     -0.835858    23A     -0.759259    24A     -0.729510
      25A     -0.680866    26A     -0.669082    27A     -0.651597
      28A     -0.637062    29A     -0.633251    30A     -0.614071
      31A     -0.595302    32A     -0.560658    33A     -0.547631
      34A     -0.535025    35A     -0.527889    36A     -0.521040
      37A     -0.513497    38A     -0.505790    39A     -0.494657
      40A     -0.464949    41A     -0.428637    42A     -0.402053
      43A     -0.369898

  @DF-RHF Final Energy:  -819.49677143523650

   => Energetics <=

    Nuclear Repulsion Energy =            603.7796998555749042
    One-Electron Energy =               -2323.5389958680743803
    Two-Electron Energy =                 900.2625245772628659
    Total Energy =                       -819.4967714352364965
  Basis Set: (AUG-CC-PVTZ AUX)
    Blend: AUG-CC-PVTZ-RI
    Molecular point group: c1

    Geometry (in Angstrom), charge = 0, multiplicity = 1:

       Center              X                  Y                   Z               Mass
    ------------   -----------------  -----------------  -----------------  -----------------
         S            1.814048228933     0.725734882526    -0.340101149838    31.972071174400
         O           -1.843394771067    -0.931704117474    -0.799070149838    15.994914619570
         O            0.493987228933    -1.058709117474     1.115686850162    15.994914619570
         C           -0.827512771067     0.836606882526     0.476658850162    12.000000000000
         C           -3.383425771067     0.598634882526     0.238445850162    12.000000000000
         C           -1.993951271067     0.034067282526    -0.097241849838    12.000000000000
         C            0.418978228933    -0.021033417474     0.499039950162    12.000000000000
         C           -4.511855771067    -0.276317117474    -0.283422149838    12.000000000000
         C            3.057448228933    -0.553488117474    -0.007195149838    12.000000000000
         C            4.443104228933    -0.043783117474    -0.372994149838    12.000000000000
         H           -0.694386771067     1.749046882526    -0.119170149838     1.007825032230
         H           -1.047599771067     1.153733882526     1.502715850162     1.007825032230
         H           -3.452987771067     0.726647882526     1.326502850162     1.007825032230
         H           -3.444445771067     1.614259882526    -0.181593149838     1.007825032230
         H           -5.482061771067     0.168882882526    -0.049056149838     1.007825032230
         H           -4.432869771067    -0.400441117474    -1.365073149838     1.007825032230
         H           -4.466341771067    -1.270184117474     0.167923850162     1.007825032230
         H            2.996277228933    -0.805574117474     1.051043850162     1.007825032230
         H            2.802328228933    -1.449903117474    -0.574938149838     1.007825032230
         H            4.501130228933     0.227642882526    -1.430042149838     1.007825032230
         H            4.708453228933     0.832821882526     0.222457850162     1.007825032230
         H            5.185980228933    -0.823425117474    -0.183659149838     1.007825032230

  Basis Set: AUG-CC-PVTZ
    Blend: AUG-CC-PVTZ
  Basis Set: (AUG-CC-PVTZ AUX)
    Blend: AUG-CC-PVTZ-JKFIT
	 Reference Energy          =    -819.4967714352364965 [Eh]
	 Singles Energy            =      -0.0000000000000000 [Eh]
	 Same-Spin Energy          =      -0.4833165460212616 [Eh]
	 Opposite-Spin Energy      =      -1.5692078486103154 [Eh]
	 Correlation Energy        =      -2.0525243946315768 [Eh]
	 Total Energy              =    -821.5492958298681287 [Eh]

	 ================> DF-SCS-MP2 Energies <==================
	-----------------------------------------------------------
	 SCS Same-Spin Scale       =       0.3333333333333333 [-]
	 SCS Opposite-Spin Scale   =       1.2000000000000000 [-]
	 SCS Same-Spin Energy      =      -0.1611055153404205 [Eh]
	 SCS Opposite-Spin Energy  =      -1.8830494183323783 [Eh]
	 SCS Correlation Energy    =      -2.0441549336727989 [Eh]
	 SCS Total Energy          =    -821.5409263689092541 [Eh]
	-----------------------------------------------------------

  Dipole Moment: [D]
     X:    -0.0296      Y:     2.7168      Z:     0.7006     Total:     2.8058

*** Psi4 exiting successfully. Buy a developer a beer!
