                               Psi4 1.3.2 release

  ==> Input File <==

--------------------------------------------------------------------------
#psi4
#
memory 32 gb

molecule  {
0 1
  S        1.8142300     0.7226310    -0.3411240
  O       -1.8432130    -0.9348080    -0.8000930
  O        0.4941690    -1.0618130     1.1146640
  C       -0.8273310     0.8335030     0.4756360
  C       -3.3832440     0.5955310     0.2374230
  C       -2.0096370     0.0521440    -0.0950140
  C        0.4326040    -0.0039200     0.5084100
  C       -4.5116740    -0.2794210    -0.2844450
  C        3.0576300    -0.5565920    -0.0082180
  C        4.4432860    -0.0468870    -0.3740170
  H       -0.6942050     1.7459430    -0.1201930
  H       -1.0474180     1.1506300     1.5016930
  H       -3.4401326     0.7002216     1.1272492
  H       -3.4442640     1.6111560    -0.1826160
  H       -5.4818800     0.1657790    -0.0500790
  H       -4.4326880    -0.4035450    -1.3660960
  H       -4.4661600    -1.2732880     0.1669010
  H        2.9964590    -0.8086780     1.0500210
  H        2.8025100    -1.4530070    -0.5759610
  H        4.5013120     0.2245390    -1.4310650
  H        4.7086350     0.8297180     0.2214350
  H        5.1861620    -0.8265290    -0.1846820
units angstrom
no_reorient  #important for SAPT in psi4, default
symmetry c1  #important for SAPT in psi4, default
}

set PROPERTIES_ORIGIN ["COM"]
properties('MP2/aug-cc-pvtz', properties = ['dipole'])
--------------------------------------------------------------------------

    Molecular point group: c1
  Charge       = 0
  Multiplicity = 1
  Basis Set: AUG-CC-PVTZ
    Blend: AUG-CC-PVTZ
  Basis Set: (AUG-CC-PVTZ AUX)
    Blend: AUG-CC-PVTZ-JKFIT

    Orbital Energies [Eh]
    ---------------------

    Doubly Occupied:

       1A    -91.972295     2A    -20.555302     3A    -20.554663
       4A    -11.367707     5A    -11.344864     6A    -11.267368
       7A    -11.262747     8A    -11.231731     9A    -11.225279
      10A    -11.220705    11A     -8.973903    12A     -6.655056
      13A     -6.653927    14A     -6.653313    15A     -1.397251
      16A     -1.383456    17A     -1.097214    18A     -1.084939
      19A     -1.047634    20A     -0.972187    21A     -0.901906
      22A     -0.840253    23A     -0.771379    24A     -0.728865
      25A     -0.686640    26A     -0.668424    27A     -0.648792
      28A     -0.647138    29A     -0.634749    30A     -0.609147
      31A     -0.596569    32A     -0.559946    33A     -0.545818
      34A     -0.532459    35A     -0.528292    36A     -0.525728
      37A     -0.514667    38A     -0.505641    39A     -0.491406
      40A     -0.465477    41A     -0.429474    42A     -0.406216
      43A     -0.371288

  @DF-RHF Final Energy:  -819.46191725469748

   => Energetics <=

    Nuclear Repulsion Energy =            604.4955252066529283
    One-Electron Energy =               -2324.8512502330454481
    Two-Electron Energy =                 900.8938077716950374
    Total Energy =                       -819.4619172546974823
  Basis Set: (AUG-CC-PVTZ AUX)
    Blend: AUG-CC-PVTZ-RI
    Molecular point group: c1

    Geometry (in Angstrom), charge = 0, multiplicity = 1:

       Center              X                  Y                   Z               Mass
    ------------   -----------------  -----------------  -----------------  -----------------
         S            1.814150127334     0.722777976878    -0.339875861144    31.972071174400
         O           -1.843292872666    -0.934661023122    -0.798844861144    15.994914619570
         O            0.494089127334    -1.061666023122     1.115912138856    15.994914619570
         C           -0.827410872666     0.833649976878     0.476884138856    12.000000000000
         C           -3.383323872666     0.595677976878     0.238671138856    12.000000000000
         C           -2.009716872666     0.052290976878    -0.093765861144    12.000000000000
         C            0.432524127334    -0.003773023122     0.509658138856    12.000000000000
         C           -4.511753872666    -0.279274023122    -0.283196861144    12.000000000000
         C            3.057550127334    -0.556445023122    -0.006969861144    12.000000000000
         C            4.443206127334    -0.046740023122    -0.372768861144    12.000000000000
         H           -0.694284872666     1.746089976878    -0.118944861144     1.007825032230
         H           -1.047497872666     1.150776976878     1.502941138856     1.007825032230
         H           -3.440212472666     0.700368576878     1.128497338856     1.007825032230
         H           -3.444343872666     1.611302976878    -0.181367861144     1.007825032230
         H           -5.481959872666     0.165925976878    -0.048830861144     1.007825032230
         H           -4.432767872666    -0.403398023122    -1.364847861144     1.007825032230
         H           -4.466239872666    -1.273141023122     0.168149138856     1.007825032230
         H            2.996379127334    -0.808531023122     1.051269138856     1.007825032230
         H            2.802430127334    -1.452860023122    -0.574712861144     1.007825032230
         H            4.501232127334     0.224685976878    -1.429816861144     1.007825032230
         H            4.708555127334     0.829864976878     0.222683138856     1.007825032230
         H            5.186082127334    -0.826382023122    -0.183433861144     1.007825032230

  Basis Set: AUG-CC-PVTZ
    Blend: AUG-CC-PVTZ
  Basis Set: (AUG-CC-PVTZ AUX)
    Blend: AUG-CC-PVTZ-JKFIT
	 Reference Energy          =    -819.4619172546974823 [Eh]
	 Singles Energy            =      -0.0000000000000000 [Eh]
	 Same-Spin Energy          =      -0.4842369231544207 [Eh]
	 Opposite-Spin Energy      =      -1.5704628349144263 [Eh]
	 Correlation Energy        =      -2.0546997580688471 [Eh]
	 Total Energy              =    -821.5166170127663463 [Eh]

	 ================> DF-SCS-MP2 Energies <==================
	-----------------------------------------------------------
	 SCS Same-Spin Scale       =       0.3333333333333333 [-]
	 SCS Opposite-Spin Scale   =       1.2000000000000000 [-]
	 SCS Same-Spin Energy      =      -0.1614123077181402 [Eh]
	 SCS Opposite-Spin Energy  =      -1.8845554018973114 [Eh]
	 SCS Correlation Energy    =      -2.0459677096154518 [Eh]
	 SCS Total Energy          =    -821.5078849643128933 [Eh]
	-----------------------------------------------------------

  Dipole Moment: [D]
     X:     0.0429      Y:     2.8641      Z:     0.7349     Total:     2.9572

*** Psi4 exiting successfully. Buy a developer a beer!
