                               Psi4 1.3.2 release

  ==> Input File <==

--------------------------------------------------------------------------
#psi4
#
memory 32 gb

molecule  {
0 1
  S        1.8658837     0.6501456    -0.3140145
  O       -1.8432130    -0.9348080    -0.8000930
  O        0.5558100    -1.0657187     1.0982197
  C       -0.8273310     0.8335030     0.4756360
  C       -3.3832440     0.5955310     0.2374230
  C       -2.0096370     0.0521440    -0.0950140
  C        0.4326040    -0.0039200     0.5084100
  C       -4.5116740    -0.2794210    -0.2844450
  C        3.0576300    -0.5565920    -0.0082180
  C        4.4432860    -0.0468870    -0.3740170
  H       -0.6942050     1.7459430    -0.1201930
  H       -1.0474180     1.1506300     1.5016930
  H       -3.4528060     0.7235440     1.3254800
  H       -3.4442640     1.6111560    -0.1826160
  H       -5.4818800     0.1657790    -0.0500790
  H       -4.4326880    -0.4035450    -1.3660960
  H       -4.4661600    -1.2732880     0.1669010
  H        2.9964590    -0.8086780     1.0500210
  H        2.8025100    -1.4530070    -0.5759610
  H        4.5013120     0.2245390    -1.4310650
  H        4.7086350     0.8297180     0.2214350
  H        5.1861620    -0.8265290    -0.1846820
units angstrom
no_reorient  #important for SAPT in psi4, default
symmetry c1  #important for SAPT in psi4, default
}

set PROPERTIES_ORIGIN ["COM"]
properties('MP2/aug-cc-pvtz', properties = ['dipole'])
--------------------------------------------------------------------------

    Molecular point group: c1
  Charge       = 0
  Multiplicity = 1
  Basis Set: AUG-CC-PVTZ
    Blend: AUG-CC-PVTZ
  Basis Set: (AUG-CC-PVTZ AUX)
    Blend: AUG-CC-PVTZ-JKFIT

    Orbital Energies [Eh]
    ---------------------

    Doubly Occupied:

       1A    -91.963625     2A    -20.558138     3A    -20.553975
       4A    -11.368056     5A    -11.348878     6A    -11.272193
       7A    -11.252847     8A    -11.251904     9A    -11.231204
      10A    -11.223786    11A     -8.967195    12A     -6.648447
      13A     -6.647448    14A     -6.646658    15A     -1.398719
      16A     -1.386383    17A     -1.103784    18A     -1.082857
      19A     -1.044964    20A     -0.970621    21A     -0.899351
      22A     -0.838415    23A     -0.760344    24A     -0.728107
      25A     -0.681483    26A     -0.672363    27A     -0.650992
      28A     -0.640489    29A     -0.637071    30A     -0.610607
      31A     -0.597928    32A     -0.557581    33A     -0.547779
      34A     -0.535144    35A     -0.528254    36A     -0.522611
      37A     -0.513159    38A     -0.505214    39A     -0.490833
      40A     -0.472083    41A     -0.430588    42A     -0.403155
      43A     -0.362671

  @DF-RHF Final Energy:  -819.48950340057911

   => Energetics <=

    Nuclear Repulsion Energy =            605.5232029708087111
    One-Electron Energy =               -2327.0096046666481016
    Two-Electron Energy =                 901.9968982952603938
    Total Energy =                       -819.4895034005791103
  Basis Set: (AUG-CC-PVTZ AUX)
    Blend: AUG-CC-PVTZ-RI
    Molecular point group: c1

    Geometry (in Angstrom), charge = 0, multiplicity = 1:

       Center              X                  Y                   Z               Mass
    ------------   -----------------  -----------------  -----------------  -----------------
         S            1.849405510485     0.665015409762    -0.317786508164    31.972071174400
         O           -1.859691189515    -0.919938190238    -0.803865008164    15.994914619570
         O            0.539331810485    -1.050848890238     1.094447691836    15.994914619570
         C           -0.843809189515     0.848372809762     0.471863991836    12.000000000000
         C           -3.399722189515     0.610400809762     0.233650991836    12.000000000000
         C           -2.026115189515     0.067013809762    -0.098786008164    12.000000000000
         C            0.416125810485     0.010949809762     0.504637991836    12.000000000000
         C           -4.528152189515    -0.264551190238    -0.288217008164    12.000000000000
         C            3.041151810485    -0.541722190238    -0.011990008164    12.000000000000
         C            4.426807810485    -0.032017190238    -0.377789008164    12.000000000000
         H           -0.710683189515     1.760812809762    -0.123965008164     1.007825032230
         H           -1.063896189515     1.165499809762     1.497920991836     1.007825032230
         H           -3.469284189515     0.738413809762     1.321707991836     1.007825032230
         H           -3.460742189515     1.626025809762    -0.186388008164     1.007825032230
         H           -5.498358189515     0.180648809762    -0.053851008164     1.007825032230
         H           -4.449166189515    -0.388675190238    -1.369868008164     1.007825032230
         H           -4.482638189515    -1.258418190238     0.163128991836     1.007825032230
         H            2.979980810485    -0.793808190238     1.046248991836     1.007825032230
         H            2.786031810485    -1.438137190238    -0.579733008164     1.007825032230
         H            4.484833810485     0.239408809762    -1.434837008164     1.007825032230
         H            4.692156810485     0.844587809762     0.217662991836     1.007825032230
         H            5.169683810485    -0.811659190238    -0.188454008164     1.007825032230

  Basis Set: AUG-CC-PVTZ
    Blend: AUG-CC-PVTZ
  Basis Set: (AUG-CC-PVTZ AUX)
    Blend: AUG-CC-PVTZ-JKFIT
	 Reference Energy          =    -819.4895034005791103 [Eh]
	 Singles Energy            =      -0.0000000000000000 [Eh]
	 Same-Spin Energy          =      -0.4849257899049183 [Eh]
	 Opposite-Spin Energy      =      -1.5707468279734345 [Eh]
	 Correlation Energy        =      -2.0556726178783529 [Eh]
	 Total Energy              =    -821.5451760184574823 [Eh]

	 ================> DF-SCS-MP2 Energies <==================
	-----------------------------------------------------------
	 SCS Same-Spin Scale       =       0.3333333333333333 [-]
	 SCS Opposite-Spin Scale   =       1.2000000000000000 [-]
	 SCS Same-Spin Energy      =      -0.1616419299683061 [Eh]
	 SCS Opposite-Spin Energy  =      -1.8848961935681212 [Eh]
	 SCS Correlation Energy    =      -2.0465381235364273 [Eh]
	 SCS Total Energy          =    -821.5360415241154897 [Eh]
	-----------------------------------------------------------

  Dipole Moment: [D]
     X:    -0.2547      Y:     2.8212      Z:     0.7459     Total:     2.9292

*** Psi4 exiting successfully. Buy a developer a beer!
