                               Psi4 1.3.2 release

  ==> Input File <==

--------------------------------------------------------------------------
#psi4
#
memory 32 gb

molecule  {
0 1
  S        1.8142300     0.7226310    -0.3411240
  O       -1.8643936    -0.9365777    -0.8022915
  O        0.4941690    -1.0618130     1.1146640
  C       -0.8273310     0.8335030     0.4756360
  C       -3.3941131     0.5762261     0.2230172
  C       -2.0096370     0.0521440    -0.0950140
  C        0.4326040    -0.0039200     0.5084100
  C       -4.5116740    -0.2794210    -0.2844450
  C        3.0576300    -0.5565920    -0.0082180
  C        4.4432860    -0.0468870    -0.3740170
  H       -0.6942050     1.7459430    -0.1201930
  H       -1.0474180     1.1506300     1.5016930
  H       -3.4528060     0.7235440     1.3254800
  H       -3.4442640     1.6111560    -0.1826160
  H       -5.4818800     0.1657790    -0.0500790
  H       -4.4326880    -0.4035450    -1.3660960
  H       -4.4661600    -1.2732880     0.1669010
  H        2.9964590    -0.8086780     1.0500210
  H        2.8025100    -1.4530070    -0.5759610
  H        4.5013120     0.2245390    -1.4310650
  H        4.7086350     0.8297180     0.2214350
  H        5.1861620    -0.8265290    -0.1846820
units angstrom
no_reorient  #important for SAPT in psi4, default
symmetry c1  #important for SAPT in psi4, default
}

set PROPERTIES_ORIGIN ["COM"]
properties('MP2/aug-cc-pvtz', properties = ['dipole'])
--------------------------------------------------------------------------

    Molecular point group: c1
  Charge       = 0
  Multiplicity = 1
  Basis Set: AUG-CC-PVTZ
    Blend: AUG-CC-PVTZ
  Basis Set: (AUG-CC-PVTZ AUX)
    Blend: AUG-CC-PVTZ-JKFIT

    Orbital Energies [Eh]
    ---------------------

    Doubly Occupied:

       1A    -91.972748     2A    -20.555919     3A    -20.554559
       4A    -11.368326     5A    -11.345704     6A    -11.268531
       7A    -11.263081     8A    -11.250204     9A    -11.231983
      10A    -11.220540    11A     -8.974353    12A     -6.655505
      13A     -6.654376    14A     -6.653762    15A     -1.397656
      16A     -1.384185    17A     -1.094440    18A     -1.077671
      19A     -1.045145    20A     -0.972888    21A     -0.895758
      22A     -0.837874    23A     -0.758856    24A     -0.727075
      25A     -0.678416    26A     -0.668452    27A     -0.648891
      28A     -0.636969    29A     -0.633337    30A     -0.608423
      31A     -0.595719    32A     -0.560270    33A     -0.549695
      34A     -0.534778    35A     -0.527401    36A     -0.520456
      37A     -0.511406    38A     -0.503603    39A     -0.485050
      40A     -0.465829    41A     -0.429641    42A     -0.407041
      43A     -0.371713

  @DF-RHF Final Energy:  -819.49358749260205

   => Energetics <=

    Nuclear Repulsion Energy =            603.3967703706683778
    One-Electron Energy =               -2322.7842577854075898
    Two-Electron Energy =                 899.8938999221370523
    Total Energy =                       -819.4935874926020460
  Basis Set: (AUG-CC-PVTZ AUX)
    Blend: AUG-CC-PVTZ-RI
    Molecular point group: c1

    Geometry (in Angstrom), charge = 0, multiplicity = 1:

       Center              X                  Y                   Z               Mass
    ------------   -----------------  -----------------  -----------------  -----------------
         S            1.817161474977     0.724255337277    -0.339824301267    31.972071174400
         O           -1.861462125023    -0.934953362723    -0.800991801267    15.994914619570
         O            0.497100474977    -1.060188662723     1.115963698733    15.994914619570
         C           -0.824399525023     0.835127337277     0.476935698733    12.000000000000
         C           -3.391181625023     0.577850437277     0.224316898733    12.000000000000
         C           -2.006705525023     0.053768337277    -0.093714301267    12.000000000000
         C            0.435535474977    -0.002295662723     0.509709698733    12.000000000000
         C           -4.508742525023    -0.277796662723    -0.283145301267    12.000000000000
         C            3.060561474977    -0.554967662723    -0.006918301267    12.000000000000
         C            4.446217474977    -0.045262662723    -0.372717301267    12.000000000000
         H           -0.691273525023     1.747567337277    -0.118893301267     1.007825032230
         H           -1.044486525023     1.152254337277     1.502992698733     1.007825032230
         H           -3.449874525023     0.725168337277     1.326779698733     1.007825032230
         H           -3.441332525023     1.612780337277    -0.181316301267     1.007825032230
         H           -5.478948525023     0.167403337277    -0.048779301267     1.007825032230
         H           -4.429756525023    -0.401920662723    -1.364796301267     1.007825032230
         H           -4.463228525023    -1.271663662723     0.168200698733     1.007825032230
         H            2.999390474977    -0.807053662723     1.051320698733     1.007825032230
         H            2.805441474977    -1.451382662723    -0.574661301267     1.007825032230
         H            4.504243474977     0.226163337277    -1.429765301267     1.007825032230
         H            4.711566474977     0.831342337277     0.222734698733     1.007825032230
         H            5.189093474977    -0.824904662723    -0.183382301267     1.007825032230

  Basis Set: AUG-CC-PVTZ
    Blend: AUG-CC-PVTZ
  Basis Set: (AUG-CC-PVTZ AUX)
    Blend: AUG-CC-PVTZ-JKFIT
	 Reference Energy          =    -819.4935874926020460 [Eh]
	 Singles Energy            =      -0.0000000000000000 [Eh]
	 Same-Spin Energy          =      -0.4843959844366024 [Eh]
	 Opposite-Spin Energy      =      -1.5712162574492203 [Eh]
	 Correlation Energy        =      -2.0556122418858225 [Eh]
	 Total Energy              =    -821.5491997344878428 [Eh]

	 ================> DF-SCS-MP2 Energies <==================
	-----------------------------------------------------------
	 SCS Same-Spin Scale       =       0.3333333333333333 [-]
	 SCS Opposite-Spin Scale   =       1.2000000000000000 [-]
	 SCS Same-Spin Energy      =      -0.1614653281455341 [Eh]
	 SCS Opposite-Spin Energy  =      -1.8854595089390642 [Eh]
	 SCS Correlation Energy    =      -2.0469248370845983 [Eh]
	 SCS Total Energy          =    -821.5405123296866350 [Eh]
	-----------------------------------------------------------

  Dipole Moment: [D]
     X:     0.0739      Y:     2.8361      Z:     0.6870     Total:     2.9191

*** Psi4 exiting successfully. Buy a developer a beer!
