                               Psi4 1.3.2 release

  ==> Input File <==

--------------------------------------------------------------------------
#psi4
#
memory 32 gb

molecule  {
0 1
  S        1.8605394     0.7607999    -0.3613954
  O       -1.8432130    -0.9348080    -0.8000930
  O        0.4941690    -1.0618130     1.1146640
  C       -0.8273310     0.8335030     0.4756360
  C       -3.3832440     0.5955310     0.2374230
  C       -2.0096370     0.0521440    -0.0950140
  C        0.4326040    -0.0039200     0.5084100
  C       -4.5116740    -0.2794210    -0.2844450
  C        3.0576300    -0.5565920    -0.0082180
  C        4.4214158    -0.0008346    -0.3888392
  H       -0.6942050     1.7459430    -0.1201930
  H       -1.0474180     1.1506300     1.5016930
  H       -3.4528060     0.7235440     1.3254800
  H       -3.4442640     1.6111560    -0.1826160
  H       -5.4818800     0.1657790    -0.0500790
  H       -4.4326880    -0.4035450    -1.3660960
  H       -4.4661600    -1.2732880     0.1669010
  H        2.9964590    -0.8086780     1.0500210
  H        2.8025100    -1.4530070    -0.5759610
  H        4.5013120     0.2245390    -1.4310650
  H        4.7086350     0.8297180     0.2214350
  H        5.1861620    -0.8265290    -0.1846820
units angstrom
no_reorient  #important for SAPT in psi4, default
symmetry c1  #important for SAPT in psi4, default
}

set PROPERTIES_ORIGIN ["COM"]
properties('MP2/aug-cc-pvtz', properties = ['dipole'])
--------------------------------------------------------------------------

    Molecular point group: c1
  Charge       = 0
  Multiplicity = 1
  Basis Set: AUG-CC-PVTZ
    Blend: AUG-CC-PVTZ
  Basis Set: (AUG-CC-PVTZ AUX)
    Blend: AUG-CC-PVTZ-JKFIT

    Orbital Energies [Eh]
    ---------------------

    Doubly Occupied:

       1A    -91.971532     2A    -20.561493     3A    -20.556395
       4A    -11.372825     5A    -11.346966     6A    -11.268012
       7A    -11.261919     8A    -11.250529     9A    -11.230357
      10A    -11.222814    11A     -8.972085    12A     -6.653159
      13A     -6.652003    14A     -6.651400    15A     -1.399676
      16A     -1.385545    17A     -1.090711    18A     -1.077516
      19A     -1.042396    20A     -0.962633    21A     -0.896387
      22A     -0.834078    23A     -0.762547    24A     -0.728783
      25A     -0.678446    26A     -0.667958    27A     -0.648830
      28A     -0.639906    29A     -0.634375    30A     -0.609413
      31A     -0.592636    32A     -0.553701    33A     -0.545753
      34A     -0.534868    35A     -0.526970    36A     -0.521923
      37A     -0.514235    38A     -0.507332    39A     -0.489403
      40A     -0.460542    41A     -0.430915    42A     -0.403036
      43A     -0.369638

  @DF-RHF Final Energy:  -819.48818433936594

   => Energetics <=

    Nuclear Repulsion Energy =            601.5171068738789018
    One-Electron Energy =               -2319.0473041569075576
    Two-Electron Energy =                 898.0420129436627121
    Total Energy =                       -819.4881843393659437
  Basis Set: (AUG-CC-PVTZ AUX)
    Blend: AUG-CC-PVTZ-RI
    Molecular point group: c1

    Geometry (in Angstrom), charge = 0, multiplicity = 1:

       Center              X                  Y                   Z               Mass
    ------------   -----------------  -----------------  -----------------  -----------------
         S            1.852928450941     0.749722838280    -0.356234856357    31.972071174400
         O           -1.850823949059    -0.945885061720    -0.794932456357    15.994914619570
         O            0.486558050941    -1.072890061720     1.119824543643    15.994914619570
         C           -0.834941949059     0.822425938280     0.480796543643    12.000000000000
         C           -3.390854949059     0.584453938280     0.242583543643    12.000000000000
         C           -2.017247949059     0.041066938280    -0.089853456357    12.000000000000
         C            0.424993050941    -0.014997061720     0.513570543643    12.000000000000
         C           -4.519284949059    -0.290498061720    -0.279284456357    12.000000000000
         C            3.050019050941    -0.567669061720    -0.003057456357    12.000000000000
         C            4.413804850941    -0.011911661720    -0.383678656357    12.000000000000
         H           -0.701815949059     1.734865938280    -0.115032456357     1.007825032230
         H           -1.055028949059     1.139552938280     1.506853543643     1.007825032230
         H           -3.460416949059     0.712466938280     1.330640543643     1.007825032230
         H           -3.451874949059     1.600078938280    -0.177455456357     1.007825032230
         H           -5.489490949059     0.154701938280    -0.044918456357     1.007825032230
         H           -4.440298949059    -0.414622061720    -1.360935456357     1.007825032230
         H           -4.473770949059    -1.284365061720     0.172061543643     1.007825032230
         H            2.988848050941    -0.819755061720     1.055181543643     1.007825032230
         H            2.794899050941    -1.464084061720    -0.570800456357     1.007825032230
         H            4.493701050941     0.213461938280    -1.425904456357     1.007825032230
         H            4.701024050941     0.818640938280     0.226595543643     1.007825032230
         H            5.178551050941    -0.837606061720    -0.179521456357     1.007825032230

  Basis Set: AUG-CC-PVTZ
    Blend: AUG-CC-PVTZ
  Basis Set: (AUG-CC-PVTZ AUX)
    Blend: AUG-CC-PVTZ-JKFIT
	 Reference Energy          =    -819.4881843393659437 [Eh]
	 Singles Energy            =      -0.0000000000000000 [Eh]
	 Same-Spin Energy          =      -0.4843591058130918 [Eh]
	 Opposite-Spin Energy      =      -1.5722338640975368 [Eh]
	 Correlation Energy        =      -2.0565929699106285 [Eh]
	 Total Energy              =    -821.5447773092765829 [Eh]

	 ================> DF-SCS-MP2 Energies <==================
	-----------------------------------------------------------
	 SCS Same-Spin Scale       =       0.3333333333333333 [-]
	 SCS Opposite-Spin Scale   =       1.2000000000000000 [-]
	 SCS Same-Spin Energy      =      -0.1614530352710306 [Eh]
	 SCS Opposite-Spin Energy  =      -1.8866806369170441 [Eh]
	 SCS Correlation Energy    =      -2.0481336721880750 [Eh]
	 SCS Total Energy          =    -821.5363180115540445 [Eh]
	-----------------------------------------------------------

  Dipole Moment: [D]
     X:    -0.2400      Y:     2.7670      Z:     0.7806     Total:     2.8850

*** Psi4 exiting successfully. Buy a developer a beer!
