                               Psi4 1.3.2 release

  ==> Input File <==

--------------------------------------------------------------------------
#psi4
#
memory 32 gb

molecule  {
0 1
  S        1.8142300     0.7226310    -0.3411240
  O       -1.8432130    -0.9348080    -0.8000930
  O        0.4941690    -1.0618130     1.1146640
  C       -0.8273310     0.8335030     0.4756360
  C       -3.3832440     0.5955310     0.2374230
  C       -2.0067195     0.0634563    -0.1011871
  C        0.4326040    -0.0039200     0.5084100
  C       -4.5116740    -0.2794210    -0.2844450
  C        3.0576300    -0.5565920    -0.0082180
  C        4.4432860    -0.0468870    -0.3740170
  H       -0.6942050     1.7459430    -0.1201930
  H       -1.0474180     1.1506300     1.5016930
  H       -3.4528060     0.7235440     1.3254800
  H       -3.4352997     1.6102695    -0.1859519
  H       -5.4818800     0.1657790    -0.0500790
  H       -4.4326880    -0.4035450    -1.3660960
  H       -4.4661600    -1.2732880     0.1669010
  H        2.9964590    -0.8086780     1.0500210
  H        2.8025100    -1.4530070    -0.5759610
  H        4.5013120     0.2245390    -1.4310650
  H        4.7086350     0.8297180     0.2214350
  H        5.1861620    -0.8265290    -0.1846820
units angstrom
no_reorient  #important for SAPT in psi4, default
symmetry c1  #important for SAPT in psi4, default
}

set PROPERTIES_ORIGIN ["COM"]
properties('MP2/aug-cc-pvtz', properties = ['dipole'])
--------------------------------------------------------------------------

    Molecular point group: c1
  Charge       = 0
  Multiplicity = 1
  Basis Set: AUG-CC-PVTZ
    Blend: AUG-CC-PVTZ
  Basis Set: (AUG-CC-PVTZ AUX)
    Blend: AUG-CC-PVTZ-JKFIT

    Orbital Energies [Eh]
    ---------------------

    Doubly Occupied:

       1A    -91.972322     2A    -20.555332     3A    -20.554920
       4A    -11.367788     5A    -11.346273     6A    -11.267228
       7A    -11.262741     8A    -11.250088     9A    -11.231730
      10A    -11.222374    11A     -8.973929    12A     -6.655082
      13A     -6.653953    14A     -6.653339    15A     -1.396489
      16A     -1.381349    17A     -1.094407    18A     -1.077602
      19A     -1.043087    20A     -0.972514    21A     -0.896590
      22A     -0.837988    23A     -0.760524    24A     -0.726749
      25A     -0.677495    26A     -0.668627    27A     -0.648206
      28A     -0.637829    29A     -0.633921    30A     -0.607365
      31A     -0.595269    32A     -0.559920    33A     -0.546204
      34A     -0.533002    35A     -0.527080    36A     -0.520589
      37A     -0.511527    38A     -0.504864    39A     -0.487098
      40A     -0.465406    41A     -0.429972    42A     -0.406915
      43A     -0.371295

  @DF-RHF Final Energy:  -819.49397586340592

   => Energetics <=

    Nuclear Repulsion Energy =            603.4181924301398112
    One-Electron Energy =               -2322.8503683055687361
    Two-Electron Energy =                 899.9382000120231169
    Total Energy =                       -819.4939758634059217
  Basis Set: (AUG-CC-PVTZ AUX)
    Blend: AUG-CC-PVTZ-RI
    Molecular point group: c1

    Geometry (in Angstrom), charge = 0, multiplicity = 1:

       Center              X                  Y                   Z               Mass
    ------------   -----------------  -----------------  -----------------  -----------------
         S            1.813954746248     0.721788577800    -0.340640236807    31.972071174400
         O           -1.843488253752    -0.935650422200    -0.799609236807    15.994914619570
         O            0.493893746248    -1.062655422200     1.115147763193    15.994914619570
         C           -0.827606253752     0.832660577800     0.476119763193    12.000000000000
         C           -3.383519253752     0.594688577800     0.237906763193    12.000000000000
         C           -2.006994753752     0.062613877800    -0.100703336807    12.000000000000
         C            0.432328746248    -0.004762422200     0.508893763193    12.000000000000
         C           -4.511949253752    -0.280263422200    -0.283961236807    12.000000000000
         C            3.057354746248    -0.557434422200    -0.007734236807    12.000000000000
         C            4.443010746248    -0.047729422200    -0.373533236807    12.000000000000
         H           -0.694480253752     1.745100577800    -0.119709236807     1.007825032230
         H           -1.047693253752     1.149787577800     1.502176763193     1.007825032230
         H           -3.453081253752     0.722701577800     1.325963763193     1.007825032230
         H           -3.435574953752     1.609427077800    -0.185468136807     1.007825032230
         H           -5.482155253752     0.164936577800    -0.049595236807     1.007825032230
         H           -4.432963253752    -0.404387422200    -1.365612236807     1.007825032230
         H           -4.466435253752    -1.274130422200     0.167384763193     1.007825032230
         H            2.996183746248    -0.809520422200     1.050504763193     1.007825032230
         H            2.802234746248    -1.453849422200    -0.575477236807     1.007825032230
         H            4.501036746248     0.223696577800    -1.430581236807     1.007825032230
         H            4.708359746248     0.828875577800     0.221918763193     1.007825032230
         H            5.185886746248    -0.827371422200    -0.184198236807     1.007825032230

  Basis Set: AUG-CC-PVTZ
    Blend: AUG-CC-PVTZ
  Basis Set: (AUG-CC-PVTZ AUX)
    Blend: AUG-CC-PVTZ-JKFIT
	 Reference Energy          =    -819.4939758634059217 [Eh]
	 Singles Energy            =      -0.0000000000000000 [Eh]
	 Same-Spin Energy          =      -0.4843817525608312 [Eh]
	 Opposite-Spin Energy      =      -1.5714088056535667 [Eh]
	 Correlation Energy        =      -2.0557905582143978 [Eh]
	 Total Energy              =    -821.5497664216203475 [Eh]

	 ================> DF-SCS-MP2 Energies <==================
	-----------------------------------------------------------
	 SCS Same-Spin Scale       =       0.3333333333333333 [-]
	 SCS Opposite-Spin Scale   =       1.2000000000000000 [-]
	 SCS Same-Spin Energy      =      -0.1614605841869437 [Eh]
	 SCS Opposite-Spin Energy  =      -1.8856905667842798 [Eh]
	 SCS Correlation Energy    =      -2.0471511509712235 [Eh]
	 SCS Total Energy          =    -821.5411270143771389 [Eh]
	-----------------------------------------------------------

  Dipole Moment: [D]
     X:     0.0262      Y:     2.8516      Z:     0.6924     Total:     2.9346

*** Psi4 exiting successfully. Buy a developer a beer!
