                               Psi4 1.3.2 release

  ==> Input File <==

--------------------------------------------------------------------------
#psi4
#
memory 32 gb

molecule  {
0 1
  S        1.8142300     0.7226310    -0.3411240
  O       -1.8432130    -0.9348080    -0.8000930
  O        0.4941690    -1.0618130     1.1146640
  C       -0.8273310     0.8335030     0.4756360
  C       -3.3832440     0.5955310     0.2374230
  C       -2.0174360     0.0628240    -0.0933234
  C        0.4391823     0.0062847     0.5136029
  C       -4.5116740    -0.2794210    -0.2844450
  C        3.0576300    -0.5565920    -0.0082180
  C        4.4432860    -0.0468870    -0.3740170
  H       -0.6942050     1.7459430    -0.1201930
  H       -1.0474180     1.1506300     1.5016930
  H       -3.4528060     0.7235440     1.3254800
  H       -3.4442640     1.6111560    -0.1826160
  H       -5.4818800     0.1657790    -0.0500790
  H       -4.4326880    -0.4035450    -1.3660960
  H       -4.4661600    -1.2732880     0.1669010
  H        2.9964590    -0.8086780     1.0500210
  H        2.8025100    -1.4530070    -0.5759610
  H        4.5013120     0.2245390    -1.4310650
  H        4.7086350     0.8297180     0.2214350
  H        5.1861620    -0.8265290    -0.1846820
units angstrom
no_reorient  #important for SAPT in psi4, default
symmetry c1  #important for SAPT in psi4, default
}

set PROPERTIES_ORIGIN ["COM"]
properties('MP2/aug-cc-pvtz', properties = ['dipole'])
--------------------------------------------------------------------------

    Molecular point group: c1
  Charge       = 0
  Multiplicity = 1
  Basis Set: AUG-CC-PVTZ
    Blend: AUG-CC-PVTZ
  Basis Set: (AUG-CC-PVTZ AUX)
    Blend: AUG-CC-PVTZ-JKFIT

    Orbital Energies [Eh]
    ---------------------

    Doubly Occupied:

       1A    -91.973160     2A    -20.554332     3A    -20.553892
       4A    -11.367575     5A    -11.346810     6A    -11.267113
       7A    -11.263065     8A    -11.250417     9A    -11.231964
      10A    -11.222739    11A     -8.974838    12A     -6.656003
      13A     -6.654861    14A     -6.654253    15A     -1.391818
      16A     -1.377199    17A     -1.094854    18A     -1.078635
      19A     -1.043334    20A     -0.973432    21A     -0.898147
      22A     -0.838629    23A     -0.760457    24A     -0.725785
      25A     -0.676899    26A     -0.668003    27A     -0.646640
      28A     -0.637741    29A     -0.634277    30A     -0.605828
      31A     -0.594963    32A     -0.559344    33A     -0.545833
      34A     -0.532297    35A     -0.526733    36A     -0.520610
      37A     -0.511437    38A     -0.503975    39A     -0.485006
      40A     -0.465439    41A     -0.430161    42A     -0.408356
      43A     -0.371684

  @DF-RHF Final Energy:  -819.49253759618955

   => Energetics <=

    Nuclear Repulsion Energy =            603.2676279234530057
    One-Electron Energy =               -2322.5632469799734281
    Two-Electron Energy =                 899.8030814603309864
    Total Energy =                       -819.4925375961895497
  Basis Set: (AUG-CC-PVTZ AUX)
    Blend: AUG-CC-PVTZ-RI
    Molecular point group: c1

    Geometry (in Angstrom), charge = 0, multiplicity = 1:

       Center              X                  Y                   Z               Mass
    ------------   -----------------  -----------------  -----------------  -----------------
         S            1.814321448646     0.721065316061    -0.341640145606    31.972071174400
         O           -1.843121551354    -0.936373683939    -0.800609145606    15.994914619570
         O            0.494260448646    -1.063378683939     1.114147854394    15.994914619570
         C           -0.827239551354     0.831937316061     0.475119854394    12.000000000000
         C           -3.383152551354     0.593965316061     0.236906854394    12.000000000000
         C           -2.017344551354     0.061258316061    -0.093839545606    12.000000000000
         C            0.439273748646     0.004719016061     0.513086754394    12.000000000000
         C           -4.511582551354    -0.280986683939    -0.284961145606    12.000000000000
         C            3.057721448646    -0.558157683939    -0.008734145606    12.000000000000
         C            4.443377448646    -0.048452683939    -0.374533145606    12.000000000000
         H           -0.694113551354     1.744377316061    -0.120709145606     1.007825032230
         H           -1.047326551354     1.149064316061     1.501176854394     1.007825032230
         H           -3.452714551354     0.721978316061     1.324963854394     1.007825032230
         H           -3.444172551354     1.609590316061    -0.183132145606     1.007825032230
         H           -5.481788551354     0.164213316061    -0.050595145606     1.007825032230
         H           -4.432596551354    -0.405110683939    -1.366612145606     1.007825032230
         H           -4.466068551354    -1.274853683939     0.166384854394     1.007825032230
         H            2.996550448646    -0.810243683939     1.049504854394     1.007825032230
         H            2.802601448646    -1.454572683939    -0.576477145606     1.007825032230
         H            4.501403448646     0.222973316061    -1.431581145606     1.007825032230
         H            4.708726448646     0.828152316061     0.220918854394     1.007825032230
         H            5.186253448646    -0.828094683939    -0.185198145606     1.007825032230

  Basis Set: AUG-CC-PVTZ
    Blend: AUG-CC-PVTZ
  Basis Set: (AUG-CC-PVTZ AUX)
    Blend: AUG-CC-PVTZ-JKFIT
	 Reference Energy          =    -819.4925375961895497 [Eh]
	 Singles Energy            =      -0.0000000000000000 [Eh]
	 Same-Spin Energy          =      -0.4847200128868465 [Eh]
	 Opposite-Spin Energy      =      -1.5720961764145971 [Eh]
	 Correlation Energy        =      -2.0568161893014434 [Eh]
	 Total Energy              =    -821.5493537854910073 [Eh]

	 ================> DF-SCS-MP2 Energies <==================
	-----------------------------------------------------------
	 SCS Same-Spin Scale       =       0.3333333333333333 [-]
	 SCS Opposite-Spin Scale   =       1.2000000000000000 [-]
	 SCS Same-Spin Energy      =      -0.1615733376289488 [Eh]
	 SCS Opposite-Spin Energy  =      -1.8865154116975165 [Eh]
	 SCS Correlation Energy    =      -2.0480887493264652 [Eh]
	 SCS Total Energy          =    -821.5406263455159888 [Eh]
	-----------------------------------------------------------

  Dipole Moment: [D]
     X:     0.0175      Y:     2.8908      Z:     0.6735     Total:     2.9683

*** Psi4 exiting successfully. Buy a developer a beer!
