                               Psi4 1.3.2 release

  ==> Input File <==

--------------------------------------------------------------------------
#psi4
#
memory 32 gb

molecule  {
0 1
  S        1.7916399     0.7029591    -0.3308347
  O       -1.8432130    -0.9348080    -0.8000930
  O        0.4941690    -1.0618130     1.1146640
  C       -0.8273310     0.8335030     0.4756360
  C       -3.3832440     0.5955310     0.2374230
  C       -2.0096370     0.0521440    -0.0950140
  C        0.4326040    -0.0039200     0.5084100
  C       -4.5116740    -0.2794210    -0.2844450
  C        3.0576300    -0.5565920    -0.0082180
  C        4.4535896    -0.0701496    -0.3664376
  H       -0.6942050     1.7459430    -0.1201930
  H       -1.0474180     1.1506300     1.5016930
  H       -3.4528060     0.7235440     1.3254800
  H       -3.4442640     1.6111560    -0.1826160
  H       -5.4818800     0.1657790    -0.0500790
  H       -4.4326880    -0.4035450    -1.3660960
  H       -4.4661600    -1.2732880     0.1669010
  H        2.9964590    -0.8086780     1.0500210
  H        2.8025100    -1.4530070    -0.5759610
  H        4.5013120     0.2245390    -1.4310650
  H        4.7086350     0.8297180     0.2214350
  H        5.1861620    -0.8265290    -0.1846820
units angstrom
no_reorient  #important for SAPT in psi4, default
symmetry c1  #important for SAPT in psi4, default
}

set PROPERTIES_ORIGIN ["COM"]
properties('MP2/aug-cc-pvtz', properties = ['dipole'])
--------------------------------------------------------------------------

    Molecular point group: c1
  Charge       = 0
  Multiplicity = 1
  Basis Set: AUG-CC-PVTZ
    Blend: AUG-CC-PVTZ
  Basis Set: (AUG-CC-PVTZ AUX)
    Blend: AUG-CC-PVTZ-JKFIT

    Orbital Energies [Eh]
    ---------------------

    Doubly Occupied:

       1A    -91.972394     2A    -20.555166     3A    -20.551774
       4A    -11.364594     5A    -11.345686     6A    -11.266312
       7A    -11.263153     8A    -11.249592     9A    -11.232700
      10A    -11.222060    11A     -8.974638    12A     -6.655839
      13A     -6.654700    14A     -6.654081    15A     -1.396356
      16A     -1.383169    17A     -1.096186    18A     -1.077084
      19A     -1.043007    20A     -0.976877    21A     -0.896128
      22A     -0.839993    23A     -0.758868    24A     -0.725974
      25A     -0.678051    26A     -0.668584    27A     -0.647944
      28A     -0.637530    29A     -0.633255    30A     -0.608266
      31A     -0.596917    32A     -0.563207    33A     -0.546492
      34A     -0.532563    35A     -0.527516    36A     -0.520213
      37A     -0.510956    38A     -0.502477    39A     -0.488279
      40A     -0.466074    41A     -0.429128    42A     -0.407570
      43A     -0.371839

  @DF-RHF Final Energy:  -819.49416451369837

   => Energetics <=

    Nuclear Repulsion Energy =            604.4513885295866658
    One-Electron Energy =               -2324.9047230112532816
    Two-Electron Energy =                 900.9591699679682506
    Total Energy =                       -819.4941645136983652
  Basis Set: (AUG-CC-PVTZ AUX)
    Blend: AUG-CC-PVTZ-RI
    Molecular point group: c1

    Geometry (in Angstrom), charge = 0, multiplicity = 1:

       Center              X                  Y                   Z               Mass
    ------------   -----------------  -----------------  -----------------  -----------------
         S            1.795379830501     0.708632884928    -0.333458367047    31.972071174400
         O           -1.839473069499    -0.929134215072    -0.802716667047    15.994914619570
         O            0.497908930501    -1.056139215072     1.112040332953    15.994914619570
         C           -0.823591069499     0.839176784928     0.473012332953    12.000000000000
         C           -3.379504069499     0.601204784928     0.234799332953    12.000000000000
         C           -2.005897069499     0.057817784928    -0.097637667047    12.000000000000
         C            0.436343930501     0.001753784928     0.505786332953    12.000000000000
         C           -4.507934069499    -0.273747215072    -0.287068667047    12.000000000000
         C            3.061369930501    -0.550918215072    -0.010841667047    12.000000000000
         C            4.457329530501    -0.064475815072    -0.369061267047    12.000000000000
         H           -0.690465069499     1.751616784928    -0.122816667047     1.007825032230
         H           -1.043678069499     1.156303784928     1.499069332953     1.007825032230
         H           -3.449066069499     0.729217784928     1.322856332953     1.007825032230
         H           -3.440524069499     1.616829784928    -0.185239667047     1.007825032230
         H           -5.478140069499     0.171452784928    -0.052702667047     1.007825032230
         H           -4.428948069499    -0.397871215072    -1.368719667047     1.007825032230
         H           -4.462420069499    -1.267614215072     0.164277332953     1.007825032230
         H            3.000198930501    -0.803004215072     1.047397332953     1.007825032230
         H            2.806249930501    -1.447333215072    -0.578584667047     1.007825032230
         H            4.505051930501     0.230212784928    -1.433688667047     1.007825032230
         H            4.712374930501     0.835391784928     0.218811332953     1.007825032230
         H            5.189901930501    -0.820855215072    -0.187305667047     1.007825032230

  Basis Set: AUG-CC-PVTZ
    Blend: AUG-CC-PVTZ
  Basis Set: (AUG-CC-PVTZ AUX)
    Blend: AUG-CC-PVTZ-JKFIT
	 Reference Energy          =    -819.4941645136983652 [Eh]
	 Singles Energy            =      -0.0000000000000000 [Eh]
	 Same-Spin Energy          =      -0.4842631106004964 [Eh]
	 Opposite-Spin Energy      =      -1.5707187393542323 [Eh]
	 Correlation Energy        =      -2.0549818499547285 [Eh]
	 Total Energy              =    -821.5491463636531080 [Eh]

	 ================> DF-SCS-MP2 Energies <==================
	-----------------------------------------------------------
	 SCS Same-Spin Scale       =       0.3333333333333333 [-]
	 SCS Opposite-Spin Scale   =       1.2000000000000000 [-]
	 SCS Same-Spin Energy      =      -0.1614210368668321 [Eh]
	 SCS Opposite-Spin Energy  =      -1.8848624872250788 [Eh]
	 SCS Correlation Energy    =      -2.0462835240919111 [Eh]
	 SCS Total Energy          =    -821.5404480377902701 [Eh]
	-----------------------------------------------------------

  Dipole Moment: [D]
     X:     0.1101      Y:     2.8683      Z:     0.6358     Total:     2.9400

*** Psi4 exiting successfully. Buy a developer a beer!
