                               Psi4 1.3.2 release

  ==> Input File <==

--------------------------------------------------------------------------
#psi4
#
memory 32 gb

molecule  {
0 1
  S        1.8142300     0.7226310    -0.3411240
  O       -1.8432130    -0.9348080    -0.8000930
  O        0.4941690    -1.0618130     1.1146640
  C       -0.8273310     0.8335030     0.4756360
  C       -3.3832440     0.5955310     0.2374230
  C       -1.9609737    -0.0106581    -0.1042408
  C        0.3911372    -0.0637820     0.4772141
  C       -4.5116740    -0.2794210    -0.2844450
  C        3.0576300    -0.5565920    -0.0082180
  C        4.4432860    -0.0468870    -0.3740170
  H       -0.6942050     1.7459430    -0.1201930
  H       -1.0474180     1.1506300     1.5016930
  H       -3.4528060     0.7235440     1.3254800
  H       -3.4442640     1.6111560    -0.1826160
  H       -5.4818800     0.1657790    -0.0500790
  H       -4.4326880    -0.4035450    -1.3660960
  H       -4.4661600    -1.2732880     0.1669010
  H        2.9964590    -0.8086780     1.0500210
  H        2.8025100    -1.4530070    -0.5759610
  H        4.5013120     0.2245390    -1.4310650
  H        4.7086350     0.8297180     0.2214350
  H        5.1861620    -0.8265290    -0.1846820
units angstrom
no_reorient  #important for SAPT in psi4, default
symmetry c1  #important for SAPT in psi4, default
}

set PROPERTIES_ORIGIN ["COM"]
properties('MP2/aug-cc-pvtz', properties = ['dipole'])
--------------------------------------------------------------------------

    Molecular point group: c1
  Charge       = 0
  Multiplicity = 1
  Basis Set: AUG-CC-PVTZ
    Blend: AUG-CC-PVTZ
  Basis Set: (AUG-CC-PVTZ AUX)
    Blend: AUG-CC-PVTZ-JKFIT

    Orbital Energies [Eh]
    ---------------------

    Doubly Occupied:

       1A    -91.965801     2A    -20.563399     3A    -20.563074
       4A    -11.367958     5A    -11.342711     6A    -11.266429
       7A    -11.259963     8A    -11.245507     9A    -11.229625
      10A    -11.219552    11A     -8.967045    12A     -6.648130
      13A     -6.647068    14A     -6.646420    15A     -1.438249
      16A     -1.418119    17A     -1.089136    18A     -1.070574
      19A     -1.038021    20A     -0.963948    21A     -0.884284
      22A     -0.832191    23A     -0.758050    24A     -0.735793
      25A     -0.687815    26A     -0.671510    27A     -0.659480
      28A     -0.635705    29A     -0.632417    30A     -0.623642
      31A     -0.595672    32A     -0.562325    33A     -0.555776
      34A     -0.537906    35A     -0.530540    36A     -0.521932
      37A     -0.518969    38A     -0.508275    39A     -0.498543
      40A     -0.463891    41A     -0.425171    42A     -0.391632
      43A     -0.366901

  @DF-RHF Final Energy:  -819.49099242429088

   => Energetics <=

    Nuclear Repulsion Energy =            604.4641787457170494
    One-Electron Energy =               -2324.8120432199689276
    Two-Electron Energy =                 900.8568720499608844
    Total Energy =                       -819.4909924242908801
  Basis Set: (AUG-CC-PVTZ AUX)
    Blend: AUG-CC-PVTZ-RI
    Molecular point group: c1

    Geometry (in Angstrom), charge = 0, multiplicity = 1:

       Center              X                  Y                   Z               Mass
    ------------   -----------------  -----------------  -----------------  -----------------
         S            1.813690378735     0.731827722618    -0.338093417545    31.972071174400
         O           -1.843752621265    -0.925611277382    -0.797062417545    15.994914619570
         O            0.493629378735    -1.052616277382     1.117694582455    15.994914619570
         C           -0.827870621265     0.842699722618     0.478666582455    12.000000000000
         C           -3.383783621265     0.604727722618     0.240453582455    12.000000000000
         C           -1.961513321265    -0.001461377382    -0.101210217545    12.000000000000
         C            0.390597578735    -0.054585277382     0.480244682455    12.000000000000
         C           -4.512213621265    -0.270224277382    -0.281414417545    12.000000000000
         C            3.057090378735    -0.547395277382    -0.005187417545    12.000000000000
         C            4.442746378735    -0.037690277382    -0.370986417545    12.000000000000
         H           -0.694744621265     1.755139722618    -0.117162417545     1.007825032230
         H           -1.047957621265     1.159826722618     1.504723582455     1.007825032230
         H           -3.453345621265     0.732740722618     1.328510582455     1.007825032230
         H           -3.444803621265     1.620352722618    -0.179585417545     1.007825032230
         H           -5.482419621265     0.174975722618    -0.047048417545     1.007825032230
         H           -4.433227621265    -0.394348277382    -1.363065417545     1.007825032230
         H           -4.466699621265    -1.264091277382     0.169931582455     1.007825032230
         H            2.995919378735    -0.799481277382     1.053051582455     1.007825032230
         H            2.801970378735    -1.443810277382    -0.572930417545     1.007825032230
         H            4.500772378735     0.233735722618    -1.428034417545     1.007825032230
         H            4.708095378735     0.838914722618     0.224465582455     1.007825032230
         H            5.185622378735    -0.817332277382    -0.181651417545     1.007825032230

  Basis Set: AUG-CC-PVTZ
    Blend: AUG-CC-PVTZ
  Basis Set: (AUG-CC-PVTZ AUX)
    Blend: AUG-CC-PVTZ-JKFIT
	 Reference Energy          =    -819.4909924242908801 [Eh]
	 Singles Energy            =      -0.0000000000000000 [Eh]
	 Same-Spin Energy          =      -0.4819664706253827 [Eh]
	 Opposite-Spin Energy      =      -1.5664046371832816 [Eh]
	 Correlation Energy        =      -2.0483711078086642 [Eh]
	 Total Energy              =    -821.5393635320995145 [Eh]

	 ================> DF-SCS-MP2 Energies <==================
	-----------------------------------------------------------
	 SCS Same-Spin Scale       =       0.3333333333333333 [-]
	 SCS Opposite-Spin Scale   =       1.2000000000000000 [-]
	 SCS Same-Spin Energy      =      -0.1606554902084609 [Eh]
	 SCS Opposite-Spin Energy  =      -1.8796855646199377 [Eh]
	 SCS Correlation Energy    =      -2.0403410548283984 [Eh]
	 SCS Total Energy          =    -821.5313334791193256 [Eh]
	-----------------------------------------------------------

  Dipole Moment: [D]
     X:    -0.0791      Y:     2.4622      Z:     0.7323     Total:     2.5700

*** Psi4 exiting successfully. Buy a developer a beer!
