                               Psi4 1.3.2 release

  ==> Input File <==

--------------------------------------------------------------------------
#psi4
#
memory 32 gb

molecule  {
0 1
  S        1.8616385     0.7804408    -0.2824970
  O       -1.8432130    -0.9348080    -0.8000930
  O        0.4941690    -1.0618130     1.1146640
  C       -0.8273310     0.8335030     0.4756360
  C       -3.3832440     0.5955310     0.2374230
  C       -2.0096370     0.0521440    -0.0950140
  C        0.4326040    -0.0039200     0.5084100
  C       -4.5116740    -0.2794210    -0.2844450
  C        3.0576300    -0.5565920    -0.0082180
  C        4.4432860    -0.0468870    -0.3740170
  H       -0.6942050     1.7459430    -0.1201930
  H       -1.0474180     1.1506300     1.5016930
  H       -3.4528060     0.7235440     1.3254800
  H       -3.4442640     1.6111560    -0.1826160
  H       -5.4818800     0.1657790    -0.0500790
  H       -4.4326880    -0.4035450    -1.3660960
  H       -4.4661600    -1.2732880     0.1669010
  H        2.9964590    -0.8086780     1.0500210
  H        2.8487789    -1.4782917    -0.5539551
  H        4.5013120     0.2245390    -1.4310650
  H        4.7086350     0.8297180     0.2214350
  H        5.1861620    -0.8265290    -0.1846820
units angstrom
no_reorient  #important for SAPT in psi4, default
symmetry c1  #important for SAPT in psi4, default
}

set PROPERTIES_ORIGIN ["COM"]
properties('MP2/aug-cc-pvtz', properties = ['dipole'])
--------------------------------------------------------------------------

    Molecular point group: c1
  Charge       = 0
  Multiplicity = 1
  Basis Set: AUG-CC-PVTZ
    Blend: AUG-CC-PVTZ
  Basis Set: (AUG-CC-PVTZ AUX)
    Blend: AUG-CC-PVTZ-JKFIT

    Orbital Energies [Eh]
    ---------------------

    Doubly Occupied:

       1A    -91.973521     2A    -20.559184     3A    -20.556304
       4A    -11.371228     5A    -11.346831     6A    -11.268034
       7A    -11.261329     8A    -11.250418     9A    -11.229616
      10A    -11.222727    11A     -8.974343    12A     -6.655454
      13A     -6.654323    14A     -6.653706    15A     -1.399009
      16A     -1.385180    17A     -1.091846    18A     -1.077235
      19A     -1.042769    20A     -0.967422    21A     -0.896352
      22A     -0.834808    23A     -0.762091    24A     -0.728602
      25A     -0.678799    26A     -0.668630    27A     -0.648832
      28A     -0.636702    29A     -0.632699    30A     -0.608933
      31A     -0.596196    32A     -0.559248    33A     -0.545205
      34A     -0.533050    35A     -0.523809    36A     -0.520928
      37A     -0.511718    38A     -0.504497    39A     -0.489476
      40A     -0.467197    41A     -0.430891    42A     -0.405168
      43A     -0.371099

  @DF-RHF Final Energy:  -819.49157837408052

   => Energetics <=

    Nuclear Repulsion Energy =            601.8528692920385765
    One-Electron Energy =               -2319.6980784093084367
    Two-Electron Energy =                 898.3536307431893420
    Total Energy =                       -819.4915783740805182
  Basis Set: (AUG-CC-PVTZ AUX)
    Blend: AUG-CC-PVTZ-RI
    Molecular point group: c1

    Geometry (in Angstrom), charge = 0, multiplicity = 1:

       Center              X                  Y                   Z               Mass
    ------------   -----------------  -----------------  -----------------  -----------------
         S            1.851876964349     0.769052291279    -0.294346709929    31.972071174400
         O           -1.852974535651    -0.946196508721    -0.811942709929    15.994914619570
         O            0.484407464349    -1.073201508721     1.102814290071    15.994914619570
         C           -0.837092535651     0.822114491279     0.463786290071    12.000000000000
         C           -3.393005535651     0.584142491279     0.225573290071    12.000000000000
         C           -2.019398535651     0.040755491279    -0.106863709929    12.000000000000
         C            0.422842464349    -0.015308508721     0.496560290071    12.000000000000
         C           -4.521435535651    -0.290809508721    -0.296294709929    12.000000000000
         C            3.047868464349    -0.567980508721    -0.020067709929    12.000000000000
         C            4.433524464349    -0.058275508721    -0.385866709929    12.000000000000
         H           -0.703966535651     1.734554491279    -0.132042709929     1.007825032230
         H           -1.057179535651     1.139241491279     1.489843290071     1.007825032230
         H           -3.462567535651     0.712155491279     1.313630290071     1.007825032230
         H           -3.454025535651     1.599767491279    -0.194465709929     1.007825032230
         H           -5.491641535651     0.154390491279    -0.061928709929     1.007825032230
         H           -4.442449535651    -0.414933508721    -1.377945709929     1.007825032230
         H           -4.475921535651    -1.284676508721     0.155051290071     1.007825032230
         H            2.986697464349    -0.820066508721     1.038171290071     1.007825032230
         H            2.839017364349    -1.489680208721    -0.565804809929     1.007825032230
         H            4.491550464349     0.213150491279    -1.442914709929     1.007825032230
         H            4.698873464349     0.818329491279     0.209585290071     1.007825032230
         H            5.176400464349    -0.837917508721    -0.196531709929     1.007825032230

  Basis Set: AUG-CC-PVTZ
    Blend: AUG-CC-PVTZ
  Basis Set: (AUG-CC-PVTZ AUX)
    Blend: AUG-CC-PVTZ-JKFIT
	 Reference Energy          =    -819.4915783740805182 [Eh]
	 Singles Energy            =      -0.0000000000000000 [Eh]
	 Same-Spin Energy          =      -0.4841713365713585 [Eh]
	 Opposite-Spin Energy      =      -1.5716563485752673 [Eh]
	 Correlation Energy        =      -2.0558276851466255 [Eh]
	 Total Energy              =    -821.5474060592271144 [Eh]

	 ================> DF-SCS-MP2 Energies <==================
	-----------------------------------------------------------
	 SCS Same-Spin Scale       =       0.3333333333333333 [-]
	 SCS Opposite-Spin Scale   =       1.2000000000000000 [-]
	 SCS Same-Spin Energy      =      -0.1613904455237861 [Eh]
	 SCS Opposite-Spin Energy  =      -1.8859876182903206 [Eh]
	 SCS Correlation Energy    =      -2.0473780638141066 [Eh]
	 SCS Total Energy          =    -821.5389564378946261 [Eh]
	-----------------------------------------------------------

  Dipole Moment: [D]
     X:    -0.1873      Y:     2.7768      Z:     0.7361     Total:     2.8788

*** Psi4 exiting successfully. Buy a developer a beer!
