                               Psi4 1.3.2 release

  ==> Input File <==

--------------------------------------------------------------------------
#psi4
#
memory 32 gb

molecule  {
0 1
  S        1.8142300     0.7226310    -0.3411240
  O       -1.8432130    -0.9348080    -0.8000930
  O        0.4941690    -1.0618130     1.1146640
  C       -0.8273310     0.8335030     0.4756360
  C       -3.3832440     0.5955310     0.2374230
  C       -2.0096370     0.0521440    -0.0950140
  C        0.4415018    -0.0159681     0.5124352
  C       -4.5116740    -0.2794210    -0.2844450
  C        3.0468396    -0.5648707    -0.0001046
  C        4.4432860    -0.0468870    -0.3740170
  H       -0.6942050     1.7459430    -0.1201930
  H       -1.0474180     1.1506300     1.5016930
  H       -3.4528060     0.7235440     1.3254800
  H       -3.4442640     1.6111560    -0.1826160
  H       -5.4818800     0.1657790    -0.0500790
  H       -4.4326880    -0.4035450    -1.3660960
  H       -4.4661600    -1.2732880     0.1669010
  H        2.9964590    -0.8086780     1.0500210
  H        2.8025100    -1.4530070    -0.5759610
  H        4.5013120     0.2245390    -1.4310650
  H        4.7086350     0.8297180     0.2214350
  H        5.1861620    -0.8265290    -0.1846820
units angstrom
no_reorient  #important for SAPT in psi4, default
symmetry c1  #important for SAPT in psi4, default
}

set PROPERTIES_ORIGIN ["COM"]
properties('MP2/aug-cc-pvtz', properties = ['dipole'])
--------------------------------------------------------------------------

    Molecular point group: c1
  Charge       = 0
  Multiplicity = 1
  Basis Set: AUG-CC-PVTZ
    Blend: AUG-CC-PVTZ
  Basis Set: (AUG-CC-PVTZ AUX)
    Blend: AUG-CC-PVTZ-JKFIT

    Orbital Energies [Eh]
    ---------------------

    Doubly Occupied:

       1A    -91.971639     2A    -20.556502     3A    -20.554999
       4A    -11.366343     5A    -11.345311     6A    -11.266108
       7A    -11.261794     8A    -11.249384     9A    -11.231959
      10A    -11.221982    11A     -8.973307    12A     -6.654462
      13A     -6.653298    14A     -6.652685    15A     -1.404273
      16A     -1.385727    17A     -1.092378    18A     -1.075904
      19A     -1.040174    20A     -0.970655    21A     -0.895058
      22A     -0.838681    23A     -0.759015    24A     -0.726962
      25A     -0.677633    26A     -0.667784    27A     -0.649356
      28A     -0.638640    29A     -0.634311    30A     -0.608753
      31A     -0.594633    32A     -0.560409    33A     -0.547235
      34A     -0.534338    35A     -0.523890    36A     -0.520713
      37A     -0.512580    38A     -0.507163    39A     -0.488608
      40A     -0.466048    41A     -0.429534    42A     -0.404819
      43A     -0.371944

  @DF-RHF Final Energy:  -819.49572132374965

   => Energetics <=

    Nuclear Repulsion Energy =            603.5058863953707942
    One-Electron Energy =               -2323.0292329934077316
    Two-Electron Energy =                 900.0276252742871748
    Total Energy =                       -819.4957213237496489
  Basis Set: (AUG-CC-PVTZ AUX)
    Blend: AUG-CC-PVTZ-RI
    Molecular point group: c1

    Geometry (in Angstrom), charge = 0, multiplicity = 1:

       Center              X                  Y                   Z               Mass
    ------------   -----------------  -----------------  -----------------  -----------------
         S            1.814371823578     0.724155100983    -0.342034140698    31.972071174400
         O           -1.843071176422    -0.933283899017    -0.801003140698    15.994914619570
         O            0.494310823578    -1.060288899017     1.113753859302    15.994914619570
         C           -0.827189176422     0.835027100983     0.474725859302    12.000000000000
         C           -3.383102176422     0.597055100983     0.236512859302    12.000000000000
         C           -2.009495176422     0.053668100983    -0.095924140698    12.000000000000
         C            0.441643623578    -0.014443999017     0.511525059302    12.000000000000
         C           -4.511532176422    -0.277896899017    -0.285355140698    12.000000000000
         C            3.046981423578    -0.563346599017    -0.001014740698    12.000000000000
         C            4.443427823578    -0.045362899017    -0.374927140698    12.000000000000
         H           -0.694063176422     1.747467100983    -0.121103140698     1.007825032230
         H           -1.047276176422     1.152154100983     1.500782859302     1.007825032230
         H           -3.452664176422     0.725068100983     1.324569859302     1.007825032230
         H           -3.444122176422     1.612680100983    -0.183526140698     1.007825032230
         H           -5.481738176422     0.167303100983    -0.050989140698     1.007825032230
         H           -4.432546176422    -0.402020899017    -1.367006140698     1.007825032230
         H           -4.466018176422    -1.271763899017     0.165990859302     1.007825032230
         H            2.996600823578    -0.807153899017     1.049110859302     1.007825032230
         H            2.802651823578    -1.451482899017    -0.576871140698     1.007825032230
         H            4.501453823578     0.226063100983    -1.431975140698     1.007825032230
         H            4.708776823578     0.831242100983     0.220524859302     1.007825032230
         H            5.186303823578    -0.825004899017    -0.185592140698     1.007825032230

  Basis Set: AUG-CC-PVTZ
    Blend: AUG-CC-PVTZ
  Basis Set: (AUG-CC-PVTZ AUX)
    Blend: AUG-CC-PVTZ-JKFIT
	 Reference Energy          =    -819.4957213237496489 [Eh]
	 Singles Energy            =      -0.0000000000000000 [Eh]
	 Same-Spin Energy          =      -0.4837450059990359 [Eh]
	 Opposite-Spin Energy      =      -1.5702675577497425 [Eh]
	 Correlation Energy        =      -2.0540125637487785 [Eh]
	 Total Energy              =    -821.5497338874984052 [Eh]

	 ================> DF-SCS-MP2 Energies <==================
	-----------------------------------------------------------
	 SCS Same-Spin Scale       =       0.3333333333333333 [-]
	 SCS Opposite-Spin Scale   =       1.2000000000000000 [-]
	 SCS Same-Spin Energy      =      -0.1612483353330119 [Eh]
	 SCS Opposite-Spin Energy  =      -1.8843210692996908 [Eh]
	 SCS Correlation Energy    =      -2.0455694046327029 [Eh]
	 SCS Total Energy          =    -821.5412907283823643 [Eh]
	-----------------------------------------------------------

  Dipole Moment: [D]
     X:     0.0213      Y:     2.7971      Z:     0.7069     Total:     2.8852

*** Psi4 exiting successfully. Buy a developer a beer!
