                               Psi4 1.3.2 release

  ==> Input File <==

--------------------------------------------------------------------------
#psi4
#
memory 32 gb

molecule  {
0 1
  S        1.8142300     0.7226310    -0.3411240
  O       -1.8432130    -0.9348080    -0.8000930
  O        0.4941690    -1.0618130     1.1146640
  C       -0.8273310     0.8335030     0.4756360
  C       -3.3832440     0.5955310     0.2374230
  C       -2.0096370     0.0521440    -0.0950140
  C        0.4326040    -0.0039200     0.5084100
  C       -4.5116740    -0.2794210    -0.2844450
  C        3.0576300    -0.5565920    -0.0082180
  C        4.4432860    -0.0468870    -0.3740170
  H       -0.6942050     1.7459430    -0.1201930
  H       -1.0474180     1.1506300     1.5016930
  H       -3.4464693     0.7118828     1.2263646
  H       -3.4442640     1.6111560    -0.1826160
  H       -5.4818800     0.1657790    -0.0500790
  H       -4.4326880    -0.4035450    -1.3660960
  H       -4.4661600    -1.2732880     0.1669010
  H        2.9964590    -0.8086780     1.0500210
  H        2.8025100    -1.4530070    -0.5759610
  H        4.5013120     0.2245390    -1.4310650
  H        4.7086350     0.8297180     0.2214350
  H        5.1861620    -0.8265290    -0.1846820
units angstrom
no_reorient  #important for SAPT in psi4, default
symmetry c1  #important for SAPT in psi4, default
}

set PROPERTIES_ORIGIN ["COM"]
properties('MP2/aug-cc-pvtz', properties = ['dipole'])
--------------------------------------------------------------------------

    Molecular point group: c1
  Charge       = 0
  Multiplicity = 1
  Basis Set: AUG-CC-PVTZ
    Blend: AUG-CC-PVTZ
  Basis Set: (AUG-CC-PVTZ AUX)
    Blend: AUG-CC-PVTZ-JKFIT

    Orbital Energies [Eh]
    ---------------------

    Doubly Occupied:

       1A    -91.972196     2A    -20.555191     3A    -20.554985
       4A    -11.367574     5A    -11.345353     6A    -11.267087
       7A    -11.262673     8A    -11.237590     9A    -11.231675
      10A    -11.221384    11A     -8.973805    12A     -6.654958
      13A     -6.653830    14A     -6.653216    15A     -1.397269
      16A     -1.383638    17A     -1.094837    18A     -1.080490
      19A     -1.044958    20A     -0.972127    21A     -0.898445
      22A     -0.838761    23A     -0.764757    24A     -0.727809
      25A     -0.681775    26A     -0.668383    27A     -0.648135
      28A     -0.642978    29A     -0.634582    30A     -0.608870
      31A     -0.595894    32A     -0.559860    33A     -0.545844
      34A     -0.532754    35A     -0.527254    36A     -0.523163
      37A     -0.513794    38A     -0.505363    39A     -0.490465
      40A     -0.465388    41A     -0.429549    42A     -0.406270
      43A     -0.371203

  @DF-RHF Final Energy:  -819.48903541943275

   => Energetics <=

    Nuclear Repulsion Energy =            603.9328853186224251
    One-Electron Energy =               -2323.8315682132388247
    Two-Electron Energy =                 900.4096474751835331
    Total Energy =                       -819.4890354194327529
  Basis Set: (AUG-CC-PVTZ AUX)
    Blend: AUG-CC-PVTZ-RI
    Molecular point group: c1

    Geometry (in Angstrom), charge = 0, multiplicity = 1:

       Center              X                  Y                   Z               Mass
    ------------   -----------------  -----------------  -----------------  -----------------
         S            1.814190027699     0.722704549678    -0.340499962118    31.972071174400
         O           -1.843252972301    -0.934734450322    -0.799468962118    15.994914619570
         O            0.494129027699    -1.061739450322     1.115288037882    15.994914619570
         C           -0.827370972301     0.833576549678     0.476260037882    12.000000000000
         C           -3.383283972301     0.595604549678     0.238047037882    12.000000000000
         C           -2.009676972301     0.052217549678    -0.094389962118    12.000000000000
         C            0.432564027699    -0.003846450322     0.509034037882    12.000000000000
         C           -4.511713972301    -0.279347450322    -0.283820962118    12.000000000000
         C            3.057590027699    -0.556518450322    -0.007593962118    12.000000000000
         C            4.443246027699    -0.046813450322    -0.373392962118    12.000000000000
         H           -0.694244972301     1.746016549678    -0.119568962118     1.007825032230
         H           -1.047457972301     1.150703549678     1.502317037882     1.007825032230
         H           -3.446509272301     0.711956349678     1.226988637882     1.007825032230
         H           -3.444303972301     1.611229549678    -0.181991962118     1.007825032230
         H           -5.481919972301     0.165852549678    -0.049454962118     1.007825032230
         H           -4.432727972301    -0.403471450322    -1.365471962118     1.007825032230
         H           -4.466199972301    -1.273214450322     0.167525037882     1.007825032230
         H            2.996419027699    -0.808604450322     1.050645037882     1.007825032230
         H            2.802470027699    -1.452933450322    -0.575336962118     1.007825032230
         H            4.501272027699     0.224612549678    -1.430440962118     1.007825032230
         H            4.708595027699     0.829791549678     0.222059037882     1.007825032230
         H            5.186122027699    -0.826455450322    -0.184057962118     1.007825032230

  Basis Set: AUG-CC-PVTZ
    Blend: AUG-CC-PVTZ
  Basis Set: (AUG-CC-PVTZ AUX)
    Blend: AUG-CC-PVTZ-JKFIT
	 Reference Energy          =    -819.4890354194327529 [Eh]
	 Singles Energy            =      -0.0000000000000000 [Eh]
	 Same-Spin Energy          =      -0.4841951291884454 [Eh]
	 Opposite-Spin Energy      =      -1.5705698427256567 [Eh]
	 Correlation Energy        =      -2.0547649719141021 [Eh]
	 Total Energy              =    -821.5438003913468492 [Eh]

	 ================> DF-SCS-MP2 Energies <==================
	-----------------------------------------------------------
	 SCS Same-Spin Scale       =       0.3333333333333333 [-]
	 SCS Opposite-Spin Scale   =       1.2000000000000000 [-]
	 SCS Same-Spin Energy      =      -0.1613983763961485 [Eh]
	 SCS Opposite-Spin Energy  =      -1.8846838112707880 [Eh]
	 SCS Correlation Energy    =      -2.0460821876669364 [Eh]
	 SCS Total Energy          =    -821.5351176070996644 [Eh]
	-----------------------------------------------------------

  Dipole Moment: [D]
     X:     0.0211      Y:     2.8515      Z:     0.7160     Total:     2.9401

*** Psi4 exiting successfully. Buy a developer a beer!
