                               Psi4 1.3.2 release

  ==> Input File <==

--------------------------------------------------------------------------
#psi4
#
memory 32 gb

molecule  {
0 1
  S        1.8142300     0.7226310    -0.3411240
  O       -1.8432130    -0.9348080    -0.8000930
  O        0.4941690    -1.0618130     1.1146640
  C       -0.8273310     0.8335030     0.4756360
  C       -3.3832440     0.5955310     0.2374230
  C       -2.0096370     0.0521440    -0.0950140
  C        0.4073888    -0.0390024     0.5387938
  C       -4.5116740    -0.2794210    -0.2844450
  C        3.0576300    -0.5565920    -0.0082180
  C        4.4432860    -0.0468870    -0.3740170
  H       -0.7304902     1.7555063    -0.1124229
  H       -1.0474180     1.1506300     1.5016930
  H       -3.4528060     0.7235440     1.3254800
  H       -3.4442640     1.6111560    -0.1826160
  H       -5.4818800     0.1657790    -0.0500790
  H       -4.4326880    -0.4035450    -1.3660960
  H       -4.4661600    -1.2732880     0.1669010
  H        2.9964590    -0.8086780     1.0500210
  H        2.8025100    -1.4530070    -0.5759610
  H        4.5013120     0.2245390    -1.4310650
  H        4.7086350     0.8297180     0.2214350
  H        5.1861620    -0.8265290    -0.1846820
units angstrom
no_reorient  #important for SAPT in psi4, default
symmetry c1  #important for SAPT in psi4, default
}

set PROPERTIES_ORIGIN ["COM"]
properties('MP2/aug-cc-pvtz', properties = ['dipole'])
--------------------------------------------------------------------------

    Molecular point group: c1
  Charge       = 0
  Multiplicity = 1
  Basis Set: AUG-CC-PVTZ
    Blend: AUG-CC-PVTZ
  Basis Set: (AUG-CC-PVTZ AUX)
    Blend: AUG-CC-PVTZ-JKFIT

    Orbital Energies [Eh]
    ---------------------

    Doubly Occupied:

       1A    -91.963863     2A    -20.564264     3A    -20.557235
       4A    -11.367842     5A    -11.347231     6A    -11.267969
       7A    -11.258971     8A    -11.250801     9A    -11.228652
      10A    -11.223143    11A     -8.965085    12A     -6.646165
      13A     -6.645118    14A     -6.644460    15A     -1.429410
      16A     -1.389628    17A     -1.090180    18A     -1.075547
      19A     -1.043044    20A     -0.963198    21A     -0.896468
      22A     -0.832550    23A     -0.761071    24A     -0.731923
      25A     -0.680999    26A     -0.671807    27A     -0.658996
      28A     -0.639385    29A     -0.631890    30A     -0.613029
      31A     -0.596131    32A     -0.562465    33A     -0.554249
      34A     -0.536960    35A     -0.527194    36A     -0.521721
      37A     -0.512529    38A     -0.508386    39A     -0.491011
      40A     -0.461834    41A     -0.430267    42A     -0.398811
      43A     -0.365801

  @DF-RHF Final Energy:  -819.49537361974524

   => Energetics <=

    Nuclear Repulsion Energy =            603.4423618440475821
    One-Electron Energy =               -2322.8609066394592446
    Two-Electron Energy =                 899.9231711756664254
    Total Energy =                       -819.4953736197452372
  Basis Set: (AUG-CC-PVTZ AUX)
    Blend: AUG-CC-PVTZ-RI
    Molecular point group: c1

    Geometry (in Angstrom), charge = 0, multiplicity = 1:

       Center              X                  Y                   Z               Mass
    ------------   -----------------  -----------------  -----------------  -----------------
         S            1.816348886148     0.725201167830    -0.343450979701    31.972071174400
         O           -1.841094113852    -0.932237832170    -0.802419979701    15.994914619570
         O            0.496287886148    -1.059242832170     1.112337020299    15.994914619570
         C           -0.825212113852     0.836073167830     0.473309020299    12.000000000000
         C           -3.381125113852     0.598101167830     0.235096020299    12.000000000000
         C           -2.007518113852     0.054714167830    -0.097340979701    12.000000000000
         C            0.409507686148    -0.036432232170     0.536466820299    12.000000000000
         C           -4.509555113852    -0.276850832170    -0.286771979701    12.000000000000
         C            3.059748886148    -0.554021832170    -0.010544979701    12.000000000000
         C            4.445404886148    -0.044316832170    -0.376343979701    12.000000000000
         H           -0.728371313852     1.758076467830    -0.114749879701     1.007825032230
         H           -1.045299113852     1.153200167830     1.499366020299     1.007825032230
         H           -3.450687113852     0.726114167830     1.323153020299     1.007825032230
         H           -3.442145113852     1.613726167830    -0.184942979701     1.007825032230
         H           -5.479761113852     0.168349167830    -0.052405979701     1.007825032230
         H           -4.430569113852    -0.400974832170    -1.368422979701     1.007825032230
         H           -4.464041113852    -1.270717832170     0.164574020299     1.007825032230
         H            2.998577886148    -0.806107832170     1.047694020299     1.007825032230
         H            2.804628886148    -1.450436832170    -0.578287979701     1.007825032230
         H            4.503430886148     0.227109167830    -1.433391979701     1.007825032230
         H            4.710753886148     0.832288167830     0.219108020299     1.007825032230
         H            5.188280886148    -0.823958832170    -0.187008979701     1.007825032230

  Basis Set: AUG-CC-PVTZ
    Blend: AUG-CC-PVTZ
  Basis Set: (AUG-CC-PVTZ AUX)
    Blend: AUG-CC-PVTZ-JKFIT
	 Reference Energy          =    -819.4953736197452372 [Eh]
	 Singles Energy            =      -0.0000000000000000 [Eh]
	 Same-Spin Energy          =      -0.4830900117100677 [Eh]
	 Opposite-Spin Energy      =      -1.5687822150365711 [Eh]
	 Correlation Energy        =      -2.0518722267466387 [Eh]
	 Total Energy              =    -821.5472458464919328 [Eh]

	 ================> DF-SCS-MP2 Energies <==================
	-----------------------------------------------------------
	 SCS Same-Spin Scale       =       0.3333333333333333 [-]
	 SCS Opposite-Spin Scale   =       1.2000000000000000 [-]
	 SCS Same-Spin Energy      =      -0.1610300039033559 [Eh]
	 SCS Opposite-Spin Energy  =      -1.8825386580438852 [Eh]
	 SCS Correlation Energy    =      -2.0435686619472411 [Eh]
	 SCS Total Energy          =    -821.5389422816924707 [Eh]
	-----------------------------------------------------------

  Dipole Moment: [D]
     X:    -0.4060      Y:     2.6350      Z:     0.9181     Total:     2.8198

*** Psi4 exiting successfully. Buy a developer a beer!
