                               Psi4 1.3.2 release

  ==> Input File <==

--------------------------------------------------------------------------
#psi4
#
memory 32 gb

molecule  {
0 1
  S        1.8142300     0.7226310    -0.3411240
  O       -1.8432130    -0.9348080    -0.8000930
  O        0.4941690    -1.0618130     1.1146640
  C       -0.8273310     0.8335030     0.4756360
  C       -3.3832440     0.5955310     0.2374230
  C       -2.0096370     0.0521440    -0.0950140
  C        0.4505041    -0.0279600     0.5163955
  C       -4.5116740    -0.2794210    -0.2844450
  C        3.0359554    -0.5730514     0.0079828
  C        4.4432860    -0.0468870    -0.3740170
  H       -0.6942050     1.7459430    -0.1201930
  H       -1.0474180     1.1506300     1.5016930
  H       -3.4528060     0.7235440     1.3254800
  H       -3.4442640     1.6111560    -0.1826160
  H       -5.4818800     0.1657790    -0.0500790
  H       -4.4326880    -0.4035450    -1.3660960
  H       -4.4661600    -1.2732880     0.1669010
  H        2.9964590    -0.8086780     1.0500210
  H        2.8025100    -1.4530070    -0.5759610
  H        4.5013120     0.2245390    -1.4310650
  H        4.7086350     0.8297180     0.2214350
  H        5.1861620    -0.8265290    -0.1846820
units angstrom
no_reorient  #important for SAPT in psi4, default
symmetry c1  #important for SAPT in psi4, default
}

set PROPERTIES_ORIGIN ["COM"]
properties('MP2/aug-cc-pvtz', properties = ['dipole'])
--------------------------------------------------------------------------

    Molecular point group: c1
  Charge       = 0
  Multiplicity = 1
  Basis Set: AUG-CC-PVTZ
    Blend: AUG-CC-PVTZ
  Basis Set: (AUG-CC-PVTZ AUX)
    Blend: AUG-CC-PVTZ-JKFIT

    Orbital Energies [Eh]
    ---------------------

    Doubly Occupied:

       1A    -91.971242     2A    -20.557912     3A    -20.554421
       4A    -11.365245     5A    -11.344514     6A    -11.265276
       7A    -11.261053     8A    -11.248864     9A    -11.232284
      10A    -11.221652    11A     -8.972960    12A     -6.654114
      13A     -6.652918    14A     -6.652304    15A     -1.412681
      16A     -1.386094    17A     -1.090964    18A     -1.074746
      19A     -1.037598    20A     -0.969231    21A     -0.893965
      22A     -0.839676    23A     -0.758008    24A     -0.727073
      25A     -0.677237    26A     -0.667370    27A     -0.650728
      28A     -0.639784    29A     -0.634705    30A     -0.608879
      31A     -0.594226    32A     -0.560895    33A     -0.549266
      34A     -0.535088    35A     -0.521035    36A     -0.520345
      37A     -0.513896    38A     -0.508453    39A     -0.488424
      40A     -0.466784    41A     -0.429185    42A     -0.402956
      43A     -0.372740

  @DF-RHF Final Energy:  -819.49541682022254

   => Energetics <=

    Nuclear Repulsion Energy =            603.5808167538359612
    One-Electron Energy =               -2323.1788927731417971
    Two-Electron Energy =                 900.1026591990832912
    Total Energy =                       -819.4954168202225446
  Basis Set: (AUG-CC-PVTZ AUX)
    Blend: AUG-CC-PVTZ-RI
    Molecular point group: c1

    Geometry (in Angstrom), charge = 0, multiplicity = 1:

       Center              X                  Y                   Z               Mass
    ------------   -----------------  -----------------  -----------------  -----------------
         S            1.814512916871     0.725667518520    -0.342937403181    31.972071174400
         O           -1.842930083129    -0.931771481480    -0.801906403181    15.994914619570
         O            0.494451916871    -1.058776481480     1.112850596819    15.994914619570
         C           -0.827048083129     0.836539518520     0.473822596819    12.000000000000
         C           -3.382961083129     0.598567518520     0.235609596819    12.000000000000
         C           -2.009354083129     0.055180518520    -0.096827403181    12.000000000000
         C            0.450787016871    -0.024923481480     0.514582096819    12.000000000000
         C           -4.511391083129    -0.276384481480    -0.286258403181    12.000000000000
         C            3.036238316871    -0.570014881480     0.006169396819    12.000000000000
         C            4.443568916871    -0.043850481480    -0.375830403181    12.000000000000
         H           -0.693922083129     1.748979518520    -0.122006403181     1.007825032230
         H           -1.047135083129     1.153666518520     1.499879596819     1.007825032230
         H           -3.452523083129     0.726580518520     1.323666596819     1.007825032230
         H           -3.443981083129     1.614192518520    -0.184429403181     1.007825032230
         H           -5.481597083129     0.168815518520    -0.051892403181     1.007825032230
         H           -4.432405083129    -0.400508481480    -1.367909403181     1.007825032230
         H           -4.465877083129    -1.270251481480     0.165087596819     1.007825032230
         H            2.996741916871    -0.805641481480     1.048207596819     1.007825032230
         H            2.802792916871    -1.449970481480    -0.577774403181     1.007825032230
         H            4.501594916871     0.227575518520    -1.432878403181     1.007825032230
         H            4.708917916871     0.832754518520     0.219621596819     1.007825032230
         H            5.186444916871    -0.823492481480    -0.186495403181     1.007825032230

  Basis Set: AUG-CC-PVTZ
    Blend: AUG-CC-PVTZ
  Basis Set: (AUG-CC-PVTZ AUX)
    Blend: AUG-CC-PVTZ-JKFIT
	 Reference Energy          =    -819.4954168202225446 [Eh]
	 Singles Energy            =      -0.0000000000000000 [Eh]
	 Same-Spin Energy          =      -0.4833224465816233 [Eh]
	 Opposite-Spin Energy      =      -1.5695640199395369 [Eh]
	 Correlation Energy        =      -2.0528864665211604 [Eh]
	 Total Energy              =    -821.5483032867437032 [Eh]

	 ================> DF-SCS-MP2 Energies <==================
	-----------------------------------------------------------
	 SCS Same-Spin Scale       =       0.3333333333333333 [-]
	 SCS Opposite-Spin Scale   =       1.2000000000000000 [-]
	 SCS Same-Spin Energy      =      -0.1611074821938744 [Eh]
	 SCS Opposite-Spin Energy  =      -1.8834768239274442 [Eh]
	 SCS Correlation Energy    =      -2.0445843061213185 [Eh]
	 SCS Total Energy          =    -821.5400011263438955 [Eh]
	-----------------------------------------------------------

  Dipole Moment: [D]
     X:     0.0444      Y:     2.7583      Z:     0.7312     Total:     2.8539

*** Psi4 exiting successfully. Buy a developer a beer!
