                               Psi4 1.3.2 release

  ==> Input File <==

--------------------------------------------------------------------------
#psi4
#
memory 32 gb

molecule  {
0 1
  S        1.8142300     0.7226310    -0.3411240
  O       -1.8432130    -0.9348080    -0.8000930
  O        0.4941690    -1.0618130     1.1146640
  C       -0.8273310     0.8335030     0.4756360
  C       -3.3832440     0.5955310     0.2374230
  C       -2.0096370     0.0521440    -0.0950140
  C        0.3942151    -0.0561476     0.5539592
  C       -4.5116740    -0.2794210    -0.2844450
  C        3.0576300    -0.5565920    -0.0082180
  C        4.4432860    -0.0468870    -0.3740170
  H       -0.7486799     1.7598674    -0.1082685
  H       -1.0474180     1.1506300     1.5016930
  H       -3.4528060     0.7235440     1.3254800
  H       -3.4442640     1.6111560    -0.1826160
  H       -5.4818800     0.1657790    -0.0500790
  H       -4.4326880    -0.4035450    -1.3660960
  H       -4.4661600    -1.2732880     0.1669010
  H        2.9964590    -0.8086780     1.0500210
  H        2.8025100    -1.4530070    -0.5759610
  H        4.5013120     0.2245390    -1.4310650
  H        4.7086350     0.8297180     0.2214350
  H        5.1861620    -0.8265290    -0.1846820
units angstrom
no_reorient  #important for SAPT in psi4, default
symmetry c1  #important for SAPT in psi4, default
}

set PROPERTIES_ORIGIN ["COM"]
properties('MP2/aug-cc-pvtz', properties = ['dipole'])
--------------------------------------------------------------------------

    Molecular point group: c1
  Charge       = 0
  Multiplicity = 1
  Basis Set: AUG-CC-PVTZ
    Blend: AUG-CC-PVTZ
  Basis Set: (AUG-CC-PVTZ AUX)
    Blend: AUG-CC-PVTZ-JKFIT

    Orbital Energies [Eh]
    ---------------------

    Doubly Occupied:

       1A    -91.959274     2A    -20.569053     3A    -20.558196
       4A    -11.368248     5A    -11.347935     6A    -11.268924
       7A    -11.257057     8A    -11.251362     9A    -11.227056
      10A    -11.223641    11A     -8.960382    12A     -6.641433
      13A     -6.640416    14A     -6.639741    15A     -1.447604
      16A     -1.391039    17A     -1.089452    18A     -1.073896
      19A     -1.043464    20A     -0.958676    21A     -0.896740
      22A     -0.829949    23A     -0.761881    24A     -0.734795
      25A     -0.683356    26A     -0.674712    27A     -0.664134
      28A     -0.640558    29A     -0.630795    30A     -0.615037
      31A     -0.597053    32A     -0.563907    33A     -0.560513
      34A     -0.538288    35A     -0.526939    36A     -0.522368
      37A     -0.513320    38A     -0.508522    39A     -0.492120
      40A     -0.459793    41A     -0.430452    42A     -0.393902
      43A     -0.362604

  @DF-RHF Final Energy:  -819.49248871923885

   => Energetics <=

    Nuclear Repulsion Energy =            603.4649038465626063
    One-Electron Energy =               -2322.8776114883917217
    Two-Electron Energy =                 899.9202189225901520
    Total Energy =                       -819.4924887192388496
  Basis Set: (AUG-CC-PVTZ AUX)
    Blend: AUG-CC-PVTZ-RI
    Molecular point group: c1

    Geometry (in Angstrom), charge = 0, multiplicity = 1:

       Center              X                  Y                   Z               Mass
    ------------   -----------------  -----------------  -----------------  -----------------
         S            1.817451104462     0.726459148942    -0.344614147218    31.972071174400
         O           -1.839991895538    -0.930979851058    -0.803583147218    15.994914619570
         O            0.497390104462    -1.057984851058     1.111173852782    15.994914619570
         C           -0.824109895538     0.837331148942     0.472145852782    12.000000000000
         C           -3.380022895538     0.599359148942     0.233932852782    12.000000000000
         C           -2.006415895538     0.055972148942    -0.098504147218    12.000000000000
         C            0.397436204462    -0.052319451058     0.550469052782    12.000000000000
         C           -4.508452895538    -0.275592851058    -0.287935147218    12.000000000000
         C            3.060851104462    -0.552763851058    -0.011708147218    12.000000000000
         C            4.446507104462    -0.043058851058    -0.377507147218    12.000000000000
         H           -0.745458795538     1.763695548942    -0.111758647218     1.007825032230
         H           -1.044196895538     1.154458148942     1.498202852782     1.007825032230
         H           -3.449584895538     0.727372148942     1.321989852782     1.007825032230
         H           -3.441042895538     1.614984148942    -0.186106147218     1.007825032230
         H           -5.478658895538     0.169607148942    -0.053569147218     1.007825032230
         H           -4.429466895538    -0.399716851058    -1.369586147218     1.007825032230
         H           -4.462938895538    -1.269459851058     0.163410852782     1.007825032230
         H            2.999680104462    -0.804849851058     1.046530852782     1.007825032230
         H            2.805731104462    -1.449178851058    -0.579451147218     1.007825032230
         H            4.504533104462     0.228367148942    -1.434555147218     1.007825032230
         H            4.711856104462     0.833546148942     0.217944852782     1.007825032230
         H            5.189383104462    -0.822700851058    -0.188172147218     1.007825032230

  Basis Set: AUG-CC-PVTZ
    Blend: AUG-CC-PVTZ
  Basis Set: (AUG-CC-PVTZ AUX)
    Blend: AUG-CC-PVTZ-JKFIT
	 Reference Energy          =    -819.4924887192388496 [Eh]
	 Singles Energy            =      -0.0000000000000000 [Eh]
	 Same-Spin Energy          =      -0.4826419442210236 [Eh]
	 Opposite-Spin Energy      =      -1.5678167159262362 [Eh]
	 Correlation Energy        =      -2.0504586601472599 [Eh]
	 Total Energy              =    -821.5429473793860780 [Eh]

	 ================> DF-SCS-MP2 Energies <==================
	-----------------------------------------------------------
	 SCS Same-Spin Scale       =       0.3333333333333333 [-]
	 SCS Opposite-Spin Scale   =       1.2000000000000000 [-]
	 SCS Same-Spin Energy      =      -0.1608806480736745 [Eh]
	 SCS Opposite-Spin Energy  =      -1.8813800591114833 [Eh]
	 SCS Correlation Energy    =      -2.0422607071851577 [Eh]
	 SCS Total Energy          =    -821.5347494264240140 [Eh]
	-----------------------------------------------------------

  Dipole Moment: [D]
     X:    -0.6266      Y:     2.5269      Z:     1.0444     Total:     2.8051

*** Psi4 exiting successfully. Buy a developer a beer!
