                               Psi4 1.3.2 release

  ==> Input File <==

--------------------------------------------------------------------------
#psi4
#
memory 32 gb

molecule  {
0 1
  S        1.8142300     0.7226310    -0.3411240
  O       -1.8432130    -0.9348080    -0.8000930
  O        0.4941690    -1.0618130     1.1146640
  C       -0.8273310     0.8335030     0.4756360
  C       -3.3832440     0.5955310     0.2374230
  C       -2.0232304     0.1327577    -0.0374236
  C        0.4326040    -0.0039200     0.5084100
  C       -4.5116740    -0.2794210    -0.2844450
  C        3.0576300    -0.5565920    -0.0082180
  C        4.4432860    -0.0468870    -0.3740170
  H       -0.6942050     1.7459430    -0.1201930
  H       -1.0474180     1.1506300     1.5016930
  H       -3.4528060     0.7235440     1.3254800
  H       -3.4442640     1.6111560    -0.1826160
  H       -5.4818800     0.1657790    -0.0500790
  H       -4.4326880    -0.4035450    -1.3660960
  H       -4.4661600    -1.2732880     0.1669010
  H        2.9964590    -0.8086780     1.0500210
  H        2.8025100    -1.4530070    -0.5759610
  H        4.5013120     0.2245390    -1.4310650
  H        4.7086350     0.8297180     0.2214350
  H        5.1861620    -0.8265290    -0.1846820
units angstrom
no_reorient  #important for SAPT in psi4, default
symmetry c1  #important for SAPT in psi4, default
}

set PROPERTIES_ORIGIN ["COM"]
properties('MP2/aug-cc-pvtz', properties = ['dipole'])
--------------------------------------------------------------------------

    Molecular point group: c1
  Charge       = 0
  Multiplicity = 1
  Basis Set: AUG-CC-PVTZ
    Blend: AUG-CC-PVTZ
  Basis Set: (AUG-CC-PVTZ AUX)
    Blend: AUG-CC-PVTZ-JKFIT

    Orbital Energies [Eh]
    ---------------------

    Doubly Occupied:

       1A    -91.973790     2A    -20.556223     3A    -20.546268
       4A    -11.370554     5A    -11.353060     6A    -11.272035
       7A    -11.263624     8A    -11.253947     9A    -11.232318
      10A    -11.224798    11A     -8.975350    12A     -6.656505
      13A     -6.655384    14A     -6.654761    15A     -1.394396
      16A     -1.326378    17A     -1.100777    18A     -1.084796
      19A     -1.050396    20A     -0.976312    21A     -0.907484
      22A     -0.841319    23A     -0.766051    24A     -0.725326
      25A     -0.675716    26A     -0.669681    27A     -0.650146
      28A     -0.639349    29A     -0.634817    30A     -0.599439
      31A     -0.585727    32A     -0.560445    33A     -0.549654
      34A     -0.532132    35A     -0.526930    36A     -0.514848
      37A     -0.511304    38A     -0.505026    39A     -0.466526
      40A     -0.453152    41A     -0.433597    42A     -0.413069
      43A     -0.372134

  @DF-RHF Final Energy:  -819.46899812072081

   => Energetics <=

    Nuclear Repulsion Energy =            602.7822325404756612
    One-Electron Energy =               -2321.5913742660250136
    Two-Electron Energy =                 899.3401436048285404
    Total Energy =                       -819.4689981207208120
  Basis Set: (AUG-CC-PVTZ AUX)
    Blend: AUG-CC-PVTZ-RI
    Molecular point group: c1

    Geometry (in Angstrom), charge = 0, multiplicity = 1:

       Center              X                  Y                   Z               Mass
    ------------   -----------------  -----------------  -----------------  -----------------
         S            1.815249077631     0.716587202825    -0.345441837247    31.972071174400
         O           -1.842193922369    -0.940851797175    -0.804410837247    15.994914619570
         O            0.495188077631    -1.067856797175     1.110346162753    15.994914619570
         C           -0.826311922369     0.827459202825     0.471318162753    12.000000000000
         C           -3.382224922369     0.589487202825     0.233105162753    12.000000000000
         C           -2.022211322369     0.126713902825    -0.041741437247    12.000000000000
         C            0.433623077631    -0.009963797175     0.504092162753    12.000000000000
         C           -4.510654922369    -0.285464797175    -0.288762837247    12.000000000000
         C            3.058649077631    -0.562635797175    -0.012535837247    12.000000000000
         C            4.444305077631    -0.052930797175    -0.378334837247    12.000000000000
         H           -0.693185922369     1.739899202825    -0.124510837247     1.007825032230
         H           -1.046398922369     1.144586202825     1.497375162753     1.007825032230
         H           -3.451786922369     0.717500202825     1.321162162753     1.007825032230
         H           -3.443244922369     1.605112202825    -0.186933837247     1.007825032230
         H           -5.480860922369     0.159735202825    -0.054396837247     1.007825032230
         H           -4.431668922369    -0.409588797175    -1.370413837247     1.007825032230
         H           -4.465140922369    -1.279331797175     0.162583162753     1.007825032230
         H            2.997478077631    -0.814721797175     1.045703162753     1.007825032230
         H            2.803529077631    -1.459050797175    -0.580278837247     1.007825032230
         H            4.502331077631     0.218495202825    -1.435382837247     1.007825032230
         H            4.709654077631     0.823674202825     0.217117162753     1.007825032230
         H            5.187181077631    -0.832572797175    -0.188999837247     1.007825032230

  Basis Set: AUG-CC-PVTZ
    Blend: AUG-CC-PVTZ
  Basis Set: (AUG-CC-PVTZ AUX)
    Blend: AUG-CC-PVTZ-JKFIT
	 Reference Energy          =    -819.4689981207208120 [Eh]
	 Singles Energy            =      -0.0000000000000000 [Eh]
	 Same-Spin Energy          =      -0.4876294521367689 [Eh]
	 Opposite-Spin Energy      =      -1.5781325162351933 [Eh]
	 Correlation Energy        =      -2.0657619683719624 [Eh]
	 Total Energy              =    -821.5347600890927424 [Eh]

	 ================> DF-SCS-MP2 Energies <==================
	-----------------------------------------------------------
	 SCS Same-Spin Scale       =       0.3333333333333333 [-]
	 SCS Opposite-Spin Scale   =       1.2000000000000000 [-]
	 SCS Same-Spin Energy      =      -0.1625431507122563 [Eh]
	 SCS Opposite-Spin Energy  =      -1.8937590194822320 [Eh]
	 SCS Correlation Energy    =      -2.0563021701944884 [Eh]
	 SCS Total Energy          =    -821.5253002909153111 [Eh]
	-----------------------------------------------------------

  Dipole Moment: [D]
     X:     0.0345      Y:     3.0729      Z:     0.8627     Total:     3.1919

*** Psi4 exiting successfully. Buy a developer a beer!
