                               Psi4 1.4a3.dev225

  ==> Input File <==

--------------------------------------------------------------------------
#psi4
#
memory 32 gb

molecule  {
0 1
  S        1.5586770    -0.2994370    -0.7152220
  O       -1.5255240    -0.4876820     1.0921970
  O        0.7924220     1.7006740     0.8461850
  C       -0.8878030     0.9736540    -0.7120840
  C       -3.2304390    -0.0998550    -0.5631210
  C       -1.8676468     0.0863573     0.0054866
  C        0.4791140     0.9485020    -0.0654040
  C       -4.1634610    -0.9398430     0.2972900
  C        2.9497330    -0.0790050     0.4324980
  C        4.0540790    -1.0751370     0.1033520
  H       -0.8484610     0.6756560    -1.7668750
  H       -1.2645150     2.0025910    -0.6674260
  H       -3.6447290     0.9013370    -0.7419330
  H       -3.1015980    -0.5455960    -1.5588690
  H       -5.1413450    -1.0357370    -0.1813640
  H       -3.7504260    -1.9381500     0.4523140
  H       -4.2995020    -0.4825820     1.2793320
  H        3.3022180     0.9509290     0.3487650
  H        2.5726230    -0.2199470     1.4475820
  H        3.7004310    -2.1050230     0.1947960
  H        4.4320470    -0.9299840    -0.9117720
  H        4.8873260    -0.9394890     0.7982930
units angstrom
no_reorient  #important for SAPT in psi4, default
symmetry c1  #important for SAPT in psi4, default
}

set PROPERTIES_ORIGIN ["COM"]
properties('MP2/aug-cc-pvtz', properties = ['dipole'])
--------------------------------------------------------------------------

    Molecular point group: c1
  Charge       = 0
  Multiplicity = 1
  Basis Set: AUG-CC-PVTZ
    Blend: AUG-CC-PVTZ
  Basis Set: (AUG-CC-PVTZ AUX)
    Blend: AUG-CC-PVTZ-JKFIT

    Orbital Energies [Eh]
    ---------------------

    Doubly Occupied:

       1A    -91.968865     2A    -20.555905     3A    -20.554612
       4A    -11.367105     5A    -11.353387     6A    -11.269203
       7A    -11.261772     8A    -11.254409     9A    -11.230151
      10A    -11.225747    11A     -8.970626    12A     -6.651820
      13A     -6.650677    14A     -6.650037    15A     -1.392366
      16A     -1.358345    17A     -1.096869    18A     -1.080502
      19A     -1.047215    20A     -0.971599    21A     -0.903522
      22A     -0.837482    23A     -0.763796    24A     -0.725748
      25A     -0.675001    26A     -0.671787    27A     -0.649646
      28A     -0.637706    29A     -0.632382    30A     -0.599906
      31A     -0.592496    32A     -0.560413    33A     -0.547887
      34A     -0.529747    35A     -0.525370    36A     -0.520207
      37A     -0.512274    38A     -0.504060    39A     -0.477170
      40A     -0.462776    41A     -0.435747    42A     -0.410220
      43A     -0.368069

  @DF-RHF Final Energy:  -819.48612379244378

   => Energetics <=

    Nuclear Repulsion Energy =            609.8342979519859455
    One-Electron Energy =               -2335.7316031254185873
    Two-Electron Energy =                 906.4111813809888645
    Total Energy =                       -819.4861237924437773
  Basis Set: (AUG-CC-PVTZ AUX)
    Blend: AUG-CC-PVTZ-RI
    Molecular point group: c1

    Geometry (in Angstrom), charge = 0, multiplicity = 1:

       Center              X                  Y                   Z               Mass
    ------------   -----------------  -----------------  -----------------  -----------------
         S            1.540367659083    -0.323862734334    -0.720194962873    31.972071174400
         O           -1.543833340917    -0.512107734334     1.087224037127    15.994914619570
         O            0.774112659083     1.676248265666     0.841212037127    15.994914619570
         C           -0.906112340917     0.949228265666    -0.717056962873    12.000000000000
         C           -3.248748340917    -0.124280734334    -0.568093962873    12.000000000000
         C           -1.885956140917     0.061931565666     0.000513637127    12.000000000000
         C            0.460804659083     0.924076265666    -0.070376962873    12.000000000000
         C           -4.181770340917    -0.964268734334     0.292317037127    12.000000000000
         C            2.931423659083    -0.103430734334     0.427525037127    12.000000000000
         C            4.035769659083    -1.099562734334     0.098379037127    12.000000000000
         H           -0.866770340917     0.651230265666    -1.771847962873     1.007825032230
         H           -1.282824340917     1.978165265666    -0.672398962873     1.007825032230
         H           -3.663038340917     0.876911265666    -0.746905962873     1.007825032230
         H           -3.119907340917    -0.570021734334    -1.563841962873     1.007825032230
         H           -5.159654340917    -1.060162734334    -0.186336962873     1.007825032230
         H           -3.768735340917    -1.962575734334     0.447341037127     1.007825032230
         H           -4.317811340917    -0.507007734334     1.274359037127     1.007825032230
         H            3.283908659083     0.926503265666     0.343792037127     1.007825032230
         H            2.554313659083    -0.244372734334     1.442609037127     1.007825032230
         H            3.682121659083    -2.129448734334     0.189823037127     1.007825032230
         H            4.413737659083    -0.954409734334    -0.916744962873     1.007825032230
         H            4.869016659083    -0.963914734334     0.793320037127     1.007825032230

  Basis Set: AUG-CC-PVTZ
    Blend: AUG-CC-PVTZ
  Basis Set: (AUG-CC-PVTZ AUX)
    Blend: AUG-CC-PVTZ-JKFIT
	 Reference Energy          =    -819.4861237924437773 [Eh]
	 Singles Energy            =      -0.0000000000000000 [Eh]
	 Same-Spin Energy          =      -0.4861074558413134 [Eh]
	 Opposite-Spin Energy      =      -1.5746669799534934 [Eh]
	 Correlation Energy        =      -2.0607744357948068 [Eh]
	 Total Energy              =    -821.5468982282385468 [Eh]

	 ================> DF-SCS-MP2 Energies <==================
	-----------------------------------------------------------
	 SCS Same-Spin Scale       =       0.3333333333333333 [-]
	 SCS Opposite-Spin Scale   =       1.2000000000000000 [-]
	 SCS Same-Spin Energy      =      -0.1620358186137711 [Eh]
	 SCS Opposite-Spin Energy  =      -1.8896003759441919 [Eh]
	 SCS Correlation Energy    =      -2.0516361945579629 [Eh]
	 SCS Total Energy          =    -821.5377599870017775 [Eh]
	-----------------------------------------------------------

  Dipole Moment: [D]
     X:    -0.7623      Y:    -0.1398      Z:    -2.8311     Total:     2.9353

*** Psi4 exiting successfully. Buy a developer a beer!
