                               Psi4 1.3.2 release

  ==> Input File <==

--------------------------------------------------------------------------
#psi4
#
memory 32 gb

molecule  {
0 1
  S        1.8142300     0.7226310    -0.3411240
  O       -1.8432130    -0.9348080    -0.8000930
  O        0.4941690    -1.0618130     1.1146640
  C       -0.8273310     0.8335030     0.4756360
  C       -3.3832440     0.5955310     0.2374230
  C       -2.0017480     0.0415235    -0.0966612
  C        0.4259297    -0.0140609     0.5032146
  C       -4.5116740    -0.2794210    -0.2844450
  C        3.0576300    -0.5565920    -0.0082180
  C        4.4432860    -0.0468870    -0.3740170
  H       -0.6942050     1.7459430    -0.1201930
  H       -1.0474180     1.1506300     1.5016930
  H       -3.4528060     0.7235440     1.3254800
  H       -3.4442640     1.6111560    -0.1826160
  H       -5.4818800     0.1657790    -0.0500790
  H       -4.4326880    -0.4035450    -1.3660960
  H       -4.4661600    -1.2732880     0.1669010
  H        2.9964590    -0.8086780     1.0500210
  H        2.8025100    -1.4530070    -0.5759610
  H        4.5013120     0.2245390    -1.4310650
  H        4.7086350     0.8297180     0.2214350
  H        5.1861620    -0.8265290    -0.1846820
units angstrom
no_reorient  #important for SAPT in psi4, default
symmetry c1  #important for SAPT in psi4, default
}

set PROPERTIES_ORIGIN ["COM"]
properties('MP2/aug-cc-pvtz', properties = ['dipole'])
--------------------------------------------------------------------------

    Molecular point group: c1
  Charge       = 0
  Multiplicity = 1
  Basis Set: AUG-CC-PVTZ
    Blend: AUG-CC-PVTZ
  Basis Set: (AUG-CC-PVTZ AUX)
    Blend: AUG-CC-PVTZ-JKFIT

    Orbital Energies [Eh]
    ---------------------

    Doubly Occupied:

       1A    -91.971064     2A    -20.556801     3A    -20.556331
       4A    -11.367392     5A    -11.345414     6A    -11.266601
       7A    -11.262163     8A    -11.249309     9A    -11.231296
      10A    -11.221857    11A     -8.972609    12A     -6.653751
      13A     -6.652635    14A     -6.652015    15A     -1.403240
      16A     -1.390505    17A     -1.093032    18A     -1.075817
      19A     -1.042028    20A     -0.970763    21A     -0.894171
      22A     -0.836781    23A     -0.759637    24A     -0.728172
      25A     -0.679441    26A     -0.668654    27A     -0.649779
      28A     -0.637385    29A     -0.633586    30A     -0.611392
      31A     -0.595200    32A     -0.560230    33A     -0.546666
      34A     -0.534100    35A     -0.527496    36A     -0.520954
      37A     -0.512549    38A     -0.505229    39A     -0.491940
      40A     -0.465142    41A     -0.429256    42A     -0.404311
      43A     -0.370539

  @DF-RHF Final Energy:  -819.49616616994058

   => Energetics <=

    Nuclear Repulsion Energy =            603.6087573620267221
    One-Electron Energy =               -2323.2153793908892112
    Two-Electron Energy =                 900.1104558589220233
    Total Energy =                       -819.4961661699405795
  Basis Set: (AUG-CC-PVTZ AUX)
    Blend: AUG-CC-PVTZ-RI
    Molecular point group: c1

    Geometry (in Angstrom), charge = 0, multiplicity = 1:

       Center              X                  Y                   Z               Mass
    ------------   -----------------  -----------------  -----------------  -----------------
         S            1.814138857326     0.724187684619    -0.340611047009    31.972071174400
         O           -1.843304142674    -0.933251315381    -0.799580047009    15.994914619570
         O            0.494077857326    -1.060256315381     1.115176952991    15.994914619570
         C           -0.827422142674     0.835059684619     0.476148952991    12.000000000000
         C           -3.383335142674     0.597087684619     0.237935952991    12.000000000000
         C           -2.001839142674     0.043080184619    -0.096148247009    12.000000000000
         C            0.425838557326    -0.012504215381     0.503727552991    12.000000000000
         C           -4.511765142674    -0.277864315381    -0.283932047009    12.000000000000
         C            3.057538857326    -0.555035315381    -0.007705047009    12.000000000000
         C            4.443194857326    -0.045330315381    -0.373504047009    12.000000000000
         H           -0.694296142674     1.747499684619    -0.119680047009     1.007825032230
         H           -1.047509142674     1.152186684619     1.502205952991     1.007825032230
         H           -3.452897142674     0.725100684619     1.325992952991     1.007825032230
         H           -3.444355142674     1.612712684619    -0.182103047009     1.007825032230
         H           -5.481971142674     0.167335684619    -0.049566047009     1.007825032230
         H           -4.432779142674    -0.401988315381    -1.365583047009     1.007825032230
         H           -4.466251142674    -1.271731315381     0.167413952991     1.007825032230
         H            2.996367857326    -0.807121315381     1.050533952991     1.007825032230
         H            2.802418857326    -1.451450315381    -0.575448047009     1.007825032230
         H            4.501220857326     0.226095684619    -1.430552047009     1.007825032230
         H            4.708543857326     0.831274684619     0.221947952991     1.007825032230
         H            5.186070857326    -0.824972315381    -0.184169047009     1.007825032230

  Basis Set: AUG-CC-PVTZ
    Blend: AUG-CC-PVTZ
  Basis Set: (AUG-CC-PVTZ AUX)
    Blend: AUG-CC-PVTZ-JKFIT
	 Reference Energy          =    -819.4961661699405795 [Eh]
	 Singles Energy            =      -0.0000000000000000 [Eh]
	 Same-Spin Energy          =      -0.4837473949094203 [Eh]
	 Opposite-Spin Energy      =      -1.5700966447893421 [Eh]
	 Correlation Energy        =      -2.0538440396987623 [Eh]
	 Total Energy              =    -821.5500102096393675 [Eh]

	 ================> DF-SCS-MP2 Energies <==================
	-----------------------------------------------------------
	 SCS Same-Spin Scale       =       0.3333333333333333 [-]
	 SCS Opposite-Spin Scale   =       1.2000000000000000 [-]
	 SCS Same-Spin Energy      =      -0.1612491316364734 [Eh]
	 SCS Opposite-Spin Energy  =      -1.8841159737472104 [Eh]
	 SCS Correlation Energy    =      -2.0453651053836839 [Eh]
	 SCS Total Energy          =    -821.5415312753242461 [Eh]
	-----------------------------------------------------------

  Dipole Moment: [D]
     X:    -0.0146      Y:     2.7765      Z:     0.6919     Total:     2.8614

*** Psi4 exiting successfully. Buy a developer a beer!
