                               Psi4 1.4a3.dev225

  ==> Input File <==

--------------------------------------------------------------------------
#psi4
#
memory 32 gb

molecule  {
0 1
  S        1.5586770    -0.2994370    -0.7152220
  O       -1.5255240    -0.4876820     1.0921970
  O        0.7924220     1.7006740     0.8461850
  C       -0.8878030     0.9736540    -0.7120840
  C       -3.2304390    -0.0998550    -0.5631210
  C       -1.8542380     0.0638590     0.0480780
  C        0.4791140     0.9485020    -0.0654040
  C       -4.1634610    -0.9398430     0.2972900
  C        2.9880154    -0.0729386     0.4640837
  C        4.0540790    -1.0751370     0.1033520
  H       -0.8484610     0.6756560    -1.7668750
  H       -1.2645150     2.0025910    -0.6674260
  H       -3.6447290     0.9013370    -0.7419330
  H       -3.1015980    -0.5455960    -1.5588690
  H       -5.1413450    -1.0357370    -0.1813640
  H       -3.7504260    -1.9381500     0.4523140
  H       -4.2995020    -0.4825820     1.2793320
  H        3.3022180     0.9509290     0.3487650
  H        2.5726230    -0.2199470     1.4475820
  H        3.7004310    -2.1050230     0.1947960
  H        4.4320470    -0.9299840    -0.9117720
  H        4.8873260    -0.9394890     0.7982930
units angstrom
no_reorient  #important for SAPT in psi4, default
symmetry c1  #important for SAPT in psi4, default
}

set PROPERTIES_ORIGIN ["COM"]
properties('MP2/aug-cc-pvtz', properties = ['dipole'])
--------------------------------------------------------------------------

    Molecular point group: c1
  Charge       = 0
  Multiplicity = 1
  Basis Set: AUG-CC-PVTZ
    Blend: AUG-CC-PVTZ
  Basis Set: (AUG-CC-PVTZ AUX)
    Blend: AUG-CC-PVTZ-JKFIT

    Orbital Energies [Eh]
    ---------------------

    Doubly Occupied:

       1A    -91.966282     2A    -20.558590     3A    -20.553709
       4A    -11.364473     5A    -11.349265     6A    -11.265441
       7A    -11.263614     8A    -11.251903     9A    -11.230323
      10A    -11.224174    11A     -8.967624    12A     -6.648768
      13A     -6.647604    14A     -6.647025    15A     -1.395970
      16A     -1.384709    17A     -1.090819    18A     -1.075757
      19A     -1.043627    20A     -0.969361    21A     -0.896896
      22A     -0.838855    23A     -0.760757    24A     -0.725456
      25A     -0.677743    26A     -0.667616    27A     -0.648145
      28A     -0.638627    29A     -0.635104    30A     -0.610221
      31A     -0.590191    32A     -0.562317    33A     -0.545590
      34A     -0.532790    35A     -0.530373    36A     -0.522236
      37A     -0.513772    38A     -0.507418    39A     -0.493464
      40A     -0.451262    41A     -0.430948    42A     -0.405454
      43A     -0.367962

  @DF-RHF Final Energy:  -819.49469345535351

   => Energetics <=

    Nuclear Repulsion Energy =            609.3737420541386882
    One-Electron Energy =               -2334.8323953577460088
    Two-Electron Energy =                 905.9639598482536940
    Total Energy =                       -819.4946934553535129
  Basis Set: (AUG-CC-PVTZ AUX)
    Blend: AUG-CC-PVTZ-RI
    Molecular point group: c1

    Geometry (in Angstrom), charge = 0, multiplicity = 1:

       Center              X                  Y                   Z               Mass
    ------------   -----------------  -----------------  -----------------  -----------------
         S            1.536492170678    -0.322630771487    -0.725756305827    31.972071174400
         O           -1.547708829322    -0.510875771487     1.081662694173    15.994914619570
         O            0.770237170678     1.677480228513     0.835650694173    15.994914619570
         C           -0.909987829322     0.950460228513    -0.722618305827    12.000000000000
         C           -3.252623829322    -0.123048771487    -0.573655305827    12.000000000000
         C           -1.876422829322     0.040665228513     0.037543694173    12.000000000000
         C            0.456929170678     0.925308228513    -0.075938305827    12.000000000000
         C           -4.185645829322    -0.963036771487     0.286755694173    12.000000000000
         C            2.965830570678    -0.096132371487     0.453549394173    12.000000000000
         C            4.031894170678    -1.098330771487     0.092817694173    12.000000000000
         H           -0.870645829322     0.652462228513    -1.777409305827     1.007825032230
         H           -1.286699829322     1.979397228513    -0.677960305827     1.007825032230
         H           -3.666913829322     0.878143228513    -0.752467305827     1.007825032230
         H           -3.123782829322    -0.568789771487    -1.569403305827     1.007825032230
         H           -5.163529829322    -1.058930771487    -0.191898305827     1.007825032230
         H           -3.772610829322    -1.961343771487     0.441779694173     1.007825032230
         H           -4.321686829322    -0.505775771487     1.268797694173     1.007825032230
         H            3.280033170678     0.927735228513     0.338230694173     1.007825032230
         H            2.550438170678    -0.243140771487     1.437047694173     1.007825032230
         H            3.678246170678    -2.128216771487     0.184261694173     1.007825032230
         H            4.409862170678    -0.953177771487    -0.922306305827     1.007825032230
         H            4.865141170678    -0.962682771487     0.787758694173     1.007825032230

  Basis Set: AUG-CC-PVTZ
    Blend: AUG-CC-PVTZ
  Basis Set: (AUG-CC-PVTZ AUX)
    Blend: AUG-CC-PVTZ-JKFIT
	 Reference Energy          =    -819.4946934553535129 [Eh]
	 Singles Energy            =      -0.0000000000000000 [Eh]
	 Same-Spin Energy          =      -0.4843529014236344 [Eh]
	 Opposite-Spin Energy      =      -1.5712213738075000 [Eh]
	 Correlation Energy        =      -2.0555742752311343 [Eh]
	 Total Energy              =    -821.5502677305846646 [Eh]

	 ================> DF-SCS-MP2 Energies <==================
	-----------------------------------------------------------
	 SCS Same-Spin Scale       =       0.3333333333333333 [-]
	 SCS Opposite-Spin Scale   =       1.2000000000000000 [-]
	 SCS Same-Spin Energy      =      -0.1614509671412115 [Eh]
	 SCS Opposite-Spin Energy  =      -1.8854656485690000 [Eh]
	 SCS Correlation Energy    =      -2.0469166157102117 [Eh]
	 SCS Total Energy          =    -821.5416100710637011 [Eh]
	-----------------------------------------------------------

  Dipole Moment: [D]
     X:    -0.6537      Y:    -0.2327      Z:    -2.6528     Total:     2.7420

*** Psi4 exiting successfully. Buy a developer a beer!
