                               Psi4 1.3.2 release

  ==> Input File <==

--------------------------------------------------------------------------
#psi4
#
memory 32 gb

molecule  {
0 1
  S        1.8142300     0.7226310    -0.3411240
  O       -1.8326349    -0.9336370    -0.7991544
  O        0.4941690    -1.0618130     1.1146640
  C       -0.8189332     0.8250463     0.4696606
  C       -3.3832440     0.5955310     0.2374230
  C       -2.0096370     0.0521440    -0.0950140
  C        0.4326040    -0.0039200     0.5084100
  C       -4.5116740    -0.2794210    -0.2844450
  C        3.0576300    -0.5565920    -0.0082180
  C        4.4432860    -0.0468870    -0.3740170
  H       -0.6942050     1.7459430    -0.1201930
  H       -1.0474180     1.1506300     1.5016930
  H       -3.4528060     0.7235440     1.3254800
  H       -3.4442640     1.6111560    -0.1826160
  H       -5.4818800     0.1657790    -0.0500790
  H       -4.4326880    -0.4035450    -1.3660960
  H       -4.4661600    -1.2732880     0.1669010
  H        2.9964590    -0.8086780     1.0500210
  H        2.8025100    -1.4530070    -0.5759610
  H        4.5013120     0.2245390    -1.4310650
  H        4.7086350     0.8297180     0.2214350
  H        5.1861620    -0.8265290    -0.1846820
units angstrom
no_reorient  #important for SAPT in psi4, default
symmetry c1  #important for SAPT in psi4, default
}

set PROPERTIES_ORIGIN ["COM"]
properties('MP2/aug-cc-pvtz', properties = ['dipole'])
--------------------------------------------------------------------------

    Molecular point group: c1
  Charge       = 0
  Multiplicity = 1
  Basis Set: AUG-CC-PVTZ
    Blend: AUG-CC-PVTZ
  Basis Set: (AUG-CC-PVTZ AUX)
    Blend: AUG-CC-PVTZ-JKFIT

    Orbital Energies [Eh]
    ---------------------

    Doubly Occupied:

       1A    -91.971801     2A    -20.555282     3A    -20.554635
       4A    -11.366727     5A    -11.346174     6A    -11.266718
       7A    -11.262371     8A    -11.250831     9A    -11.231448
      10A    -11.222908    11A     -8.973425    12A     -6.654578
      13A     -6.653448    14A     -6.652835    15A     -1.397470
      16A     -1.383808    17A     -1.094093    18A     -1.077147
      19A     -1.043641    20A     -0.971748    21A     -0.896950
      22A     -0.837561    23A     -0.761166    24A     -0.726377
      25A     -0.678466    26A     -0.667664    27A     -0.648653
      28A     -0.637712    29A     -0.633918    30A     -0.608317
      31A     -0.593728    32A     -0.559625    33A     -0.546085
      34A     -0.533408    35A     -0.526987    36A     -0.521180
      37A     -0.511517    38A     -0.504326    39A     -0.488409
      40A     -0.465124    41A     -0.429541    42A     -0.407104
      43A     -0.370873

  @DF-RHF Final Energy:  -819.49441707684457

   => Energetics <=

    Nuclear Repulsion Energy =            603.7157212174485039
    One-Electron Energy =               -2323.4487208208861375
    Two-Electron Energy =                 900.2385825265931771
    Total Energy =                       -819.4944170768445701
  Basis Set: (AUG-CC-PVTZ AUX)
    Blend: AUG-CC-PVTZ-RI
    Molecular point group: c1

    Geometry (in Angstrom), charge = 0, multiplicity = 1:

       Center              X                  Y                   Z               Mass
    ------------   -----------------  -----------------  -----------------  -----------------
         S            1.812543207527     0.723148131887    -0.340769861790    31.972071174400
         O           -1.834321692473    -0.933119868113    -0.798800261790    15.994914619570
         O            0.492482207527    -1.061295868113     1.115018138210    15.994914619570
         C           -0.820619992473     0.825563431887     0.470014738210    12.000000000000
         C           -3.384930792473     0.596048131887     0.237777138210    12.000000000000
         C           -2.011323792473     0.052661131887    -0.094659861790    12.000000000000
         C            0.430917207527    -0.003402868113     0.508764138210    12.000000000000
         C           -4.513360792473    -0.278903868113    -0.284090861790    12.000000000000
         C            3.055943207527    -0.556074868113    -0.007863861790    12.000000000000
         C            4.441599207527    -0.046369868113    -0.373662861790    12.000000000000
         H           -0.695891792473     1.746460131887    -0.119838861790     1.007825032230
         H           -1.049104792473     1.151147131887     1.502047138210     1.007825032230
         H           -3.454492792473     0.724061131887     1.325834138210     1.007825032230
         H           -3.445950792473     1.611673131887    -0.182261861790     1.007825032230
         H           -5.483566792473     0.166296131887    -0.049724861790     1.007825032230
         H           -4.434374792473    -0.403027868113    -1.365741861790     1.007825032230
         H           -4.467846792473    -1.272770868113     0.167255138210     1.007825032230
         H            2.994772207527    -0.808160868113     1.050375138210     1.007825032230
         H            2.800823207527    -1.452489868113    -0.575606861790     1.007825032230
         H            4.499625207527     0.225056131887    -1.430710861790     1.007825032230
         H            4.706948207527     0.830235131887     0.221789138210     1.007825032230
         H            5.184475207527    -0.826011868113    -0.184327861790     1.007825032230

  Basis Set: AUG-CC-PVTZ
    Blend: AUG-CC-PVTZ
  Basis Set: (AUG-CC-PVTZ AUX)
    Blend: AUG-CC-PVTZ-JKFIT
	 Reference Energy          =    -819.4944170768445701 [Eh]
	 Singles Energy            =      -0.0000000000000000 [Eh]
	 Same-Spin Energy          =      -0.4842958151763820 [Eh]
	 Opposite-Spin Energy      =      -1.5711526556103554 [Eh]
	 Correlation Energy        =      -2.0554484707867373 [Eh]
	 Total Energy              =    -821.5498655476312706 [Eh]

	 ================> DF-SCS-MP2 Energies <==================
	-----------------------------------------------------------
	 SCS Same-Spin Scale       =       0.3333333333333333 [-]
	 SCS Opposite-Spin Scale   =       1.2000000000000000 [-]
	 SCS Same-Spin Energy      =      -0.1614319383921273 [Eh]
	 SCS Opposite-Spin Energy  =      -1.8853831867324264 [Eh]
	 SCS Correlation Energy    =      -2.0468151251245539 [Eh]
	 SCS Total Energy          =    -821.5412322019691373 [Eh]
	-----------------------------------------------------------

  Dipole Moment: [D]
     X:    -0.0565      Y:     2.8383      Z:     0.6779     Total:     2.9187

*** Psi4 exiting successfully. Buy a developer a beer!
