                               Psi4 1.3.2 release

  ==> Input File <==

--------------------------------------------------------------------------
#psi4
#
memory 32 gb

molecule  {
0 1
  S        1.7776811     0.7698603    -0.3579077
  O       -1.8432130    -0.9348080    -0.8000930
  O        0.4529708    -1.0575973     1.1247063
  C       -0.8273310     0.8335030     0.4756360
  C       -3.3832440     0.5955310     0.2374230
  C       -2.0096370     0.0521440    -0.0950140
  C        0.4326040    -0.0039200     0.5084100
  C       -4.5116740    -0.2794210    -0.2844450
  C        3.0576300    -0.5565920    -0.0082180
  C        4.4432860    -0.0468870    -0.3740170
  H       -0.6942050     1.7459430    -0.1201930
  H       -1.0474180     1.1506300     1.5016930
  H       -3.4528060     0.7235440     1.3254800
  H       -3.4442640     1.6111560    -0.1826160
  H       -5.4818800     0.1657790    -0.0500790
  H       -4.4326880    -0.4035450    -1.3660960
  H       -4.4661600    -1.2732880     0.1669010
  H        2.9964590    -0.8086780     1.0500210
  H        2.8025100    -1.4530070    -0.5759610
  H        4.5013120     0.2245390    -1.4310650
  H        4.7086350     0.8297180     0.2214350
  H        5.1861620    -0.8265290    -0.1846820
units angstrom
no_reorient  #important for SAPT in psi4, default
symmetry c1  #important for SAPT in psi4, default
}

set PROPERTIES_ORIGIN ["COM"]
properties('MP2/aug-cc-pvtz', properties = ['dipole'])
--------------------------------------------------------------------------

    Molecular point group: c1
  Charge       = 0
  Multiplicity = 1
  Basis Set: AUG-CC-PVTZ
    Blend: AUG-CC-PVTZ
  Basis Set: (AUG-CC-PVTZ AUX)
    Blend: AUG-CC-PVTZ-JKFIT

    Orbital Energies [Eh]
    ---------------------

    Doubly Occupied:

       1A    -91.976867     2A    -20.555543     3A    -20.553728
       4A    -11.366987     5A    -11.344116     6A    -11.269353
       7A    -11.263046     8A    -11.248456     9A    -11.232409
      10A    -11.221244    11A     -8.977465    12A     -6.658566
      13A     -6.657328    14A     -6.656802    15A     -1.396653
      16A     -1.382331    17A     -1.090007    18A     -1.072843
      19A     -1.041209    20A     -0.972789    21A     -0.893982
      22A     -0.837857    23A     -0.759539    24A     -0.725892
      25A     -0.676095    26A     -0.665558    27A     -0.646296
      28A     -0.636007    29A     -0.632356    30A     -0.607261
      31A     -0.593222    32A     -0.561754    33A     -0.544987
      34A     -0.531896    35A     -0.527520    36A     -0.519624
      37A     -0.511559    38A     -0.504438    39A     -0.487129
      40A     -0.459605    41A     -0.429124    42A     -0.406221
      43A     -0.375666

  @DF-RHF Final Energy:  -819.49171182186149

   => Energetics <=

    Nuclear Repulsion Energy =            602.2481688393761488
    One-Electron Energy =               -2320.5371025107856440
    Two-Electron Energy =                 898.7972218495480092
    Total Energy =                       -819.4917118218614860
  Basis Set: (AUG-CC-PVTZ AUX)
    Blend: AUG-CC-PVTZ-RI
    Molecular point group: c1

    Geometry (in Angstrom), charge = 0, multiplicity = 1:

       Center              X                  Y                   Z               Mass
    ------------   -----------------  -----------------  -----------------  -----------------
         S            1.789098956777     0.760004807781    -0.355558682846    31.972071174400
         O           -1.831795143223    -0.944663492219    -0.797743982846    15.994914619570
         O            0.464388656777    -1.067452792219     1.127055317154    15.994914619570
         C           -0.815913143223     0.823647507781     0.477985017154    12.000000000000
         C           -3.371826143223     0.585675507781     0.239772017154    12.000000000000
         C           -1.998219143223     0.042288507781    -0.092664982846    12.000000000000
         C            0.444021856777    -0.013775492219     0.510759017154    12.000000000000
         C           -4.500256143223    -0.289276492219    -0.282095982846    12.000000000000
         C            3.069047856777    -0.566447492219    -0.005868982846    12.000000000000
         C            4.454703856777    -0.056742492219    -0.371667982846    12.000000000000
         H           -0.682787143223     1.736087507781    -0.117843982846     1.007825032230
         H           -1.036000143223     1.140774507781     1.504042017154     1.007825032230
         H           -3.441388143223     0.713688507781     1.327829017154     1.007825032230
         H           -3.432846143223     1.601300507781    -0.180266982846     1.007825032230
         H           -5.470462143223     0.155923507781    -0.047729982846     1.007825032230
         H           -4.421270143223    -0.413400492219    -1.363746982846     1.007825032230
         H           -4.454742143223    -1.283143492219     0.169250017154     1.007825032230
         H            3.007876856777    -0.818533492219     1.052370017154     1.007825032230
         H            2.813927856777    -1.462862492219    -0.573611982846     1.007825032230
         H            4.512729856777     0.214683507781    -1.428715982846     1.007825032230
         H            4.720052856777     0.819862507781     0.223784017154     1.007825032230
         H            5.197579856777    -0.836384492219    -0.182332982846     1.007825032230

  Basis Set: AUG-CC-PVTZ
    Blend: AUG-CC-PVTZ
  Basis Set: (AUG-CC-PVTZ AUX)
    Blend: AUG-CC-PVTZ-JKFIT
	 Reference Energy          =    -819.4917118218614860 [Eh]
	 Singles Energy            =      -0.0000000000000000 [Eh]
	 Same-Spin Energy          =      -0.4839912488408170 [Eh]
	 Opposite-Spin Energy      =      -1.5716788966898769 [Eh]
	 Correlation Energy        =      -2.0556701455306938 [Eh]
	 Total Energy              =    -821.5473819673921980 [Eh]

	 ================> DF-SCS-MP2 Energies <==================
	-----------------------------------------------------------
	 SCS Same-Spin Scale       =       0.3333333333333333 [-]
	 SCS Opposite-Spin Scale   =       1.2000000000000000 [-]
	 SCS Same-Spin Energy      =      -0.1613304162802723 [Eh]
	 SCS Opposite-Spin Energy  =      -1.8860146760278522 [Eh]
	 SCS Correlation Energy    =      -2.0473450923081247 [Eh]
	 SCS Total Energy          =    -821.5390569141695778 [Eh]
	-----------------------------------------------------------

  Dipole Moment: [D]
     X:     0.1902      Y:     2.8316      Z:     0.6438     Total:     2.9100

*** Psi4 exiting successfully. Buy a developer a beer!
