                               Psi4 1.3.2 release

  ==> Input File <==

--------------------------------------------------------------------------
#psi4
#
memory 32 gb

molecule  {
0 1
  S        1.8647040     0.6480526    -0.3177231
  O       -1.8432130    -0.9348080    -0.8000930
  O        0.4941690    -1.0618130     1.1146640
  C       -0.8634271     0.7771046     0.5179732
  C       -3.3832440     0.5955310     0.2374230
  C       -2.0096370     0.0521440    -0.0950140
  C        0.4326040    -0.0039200     0.5084100
  C       -4.5116740    -0.2794210    -0.2844450
  C        3.0576300    -0.5565920    -0.0082180
  C        4.4432860    -0.0468870    -0.3740170
  H       -0.6942050     1.7459430    -0.1201930
  H       -1.0474180     1.1506300     1.5016930
  H       -3.4528060     0.7235440     1.3254800
  H       -3.4442640     1.6111560    -0.1826160
  H       -5.4818800     0.1657790    -0.0500790
  H       -4.4326880    -0.4035450    -1.3660960
  H       -4.4661600    -1.2732880     0.1669010
  H        2.9964590    -0.8086780     1.0500210
  H        2.8025100    -1.4530070    -0.5759610
  H        4.5013120     0.2245390    -1.4310650
  H        4.7086350     0.8297180     0.2214350
  H        5.1861620    -0.8265290    -0.1846820
units angstrom
no_reorient  #important for SAPT in psi4, default
symmetry c1  #important for SAPT in psi4, default
}

set PROPERTIES_ORIGIN ["COM"]
properties('MP2/aug-cc-pvtz', properties = ['dipole'])
--------------------------------------------------------------------------

    Molecular point group: c1
  Charge       = 0
  Multiplicity = 1
  Basis Set: AUG-CC-PVTZ
    Blend: AUG-CC-PVTZ
  Basis Set: (AUG-CC-PVTZ AUX)
    Blend: AUG-CC-PVTZ-JKFIT

    Orbital Energies [Eh]
    ---------------------

    Doubly Occupied:

       1A    -91.969125     2A    -20.554642     3A    -20.552856
       4A    -11.366424     5A    -11.344680     6A    -11.271239
       7A    -11.256170     8A    -11.249586     9A    -11.233724
      10A    -11.222244    11A     -8.972362    12A     -6.653619
      13A     -6.652602    14A     -6.651802    15A     -1.398423
      16A     -1.384343    17A     -1.106413    18A     -1.083793
      19A     -1.042247    20A     -0.974463    21A     -0.898304
      22A     -0.840470    23A     -0.764447    24A     -0.726532
      25A     -0.683107    26A     -0.670457    27A     -0.651547
      28A     -0.640796    29A     -0.637537    30A     -0.610769
      31A     -0.587531    32A     -0.556392    33A     -0.547207
      34A     -0.534299    35A     -0.531136    36A     -0.521846
      37A     -0.509955    38A     -0.504618    39A     -0.486467
      40A     -0.473894    41A     -0.430762    42A     -0.406671
      43A     -0.366032

  @DF-RHF Final Energy:  -819.48429631725173

   => Energetics <=

    Nuclear Repulsion Energy =            605.7716472855234997
    One-Electron Energy =               -2327.4688179787212903
    Two-Electron Energy =                 902.2128743759459439
    Total Energy =                       -819.4842963172517329
  Basis Set: (AUG-CC-PVTZ AUX)
    Blend: AUG-CC-PVTZ-RI
    Molecular point group: c1

    Geometry (in Angstrom), charge = 0, multiplicity = 1:

       Center              X                  Y                   Z               Mass
    ------------   -----------------  -----------------  -----------------  -----------------
         S            1.857327718552     0.667178594190    -0.325571811089    31.972071174400
         O           -1.850589281448    -0.915682005810    -0.807941711089    15.994914619570
         O            0.486792718552    -1.042687005810     1.106815288911    15.994914619570
         C           -0.870803381448     0.796230594190     0.510124488911    12.000000000000
         C           -3.390620281448     0.614656994190     0.229574288911    12.000000000000
         C           -2.017013281448     0.071269994190    -0.102862711089    12.000000000000
         C            0.425227718552     0.015205994190     0.500561288911    12.000000000000
         C           -4.519050281448    -0.260295005810    -0.292293711089    12.000000000000
         C            3.050253718552    -0.537466005810    -0.016066711089    12.000000000000
         C            4.435909718552    -0.027761005810    -0.381865711089    12.000000000000
         H           -0.701581281448     1.765068994190    -0.128041711089     1.007825032230
         H           -1.054794281448     1.169755994190     1.493844288911     1.007825032230
         H           -3.460182281448     0.742669994190     1.317631288911     1.007825032230
         H           -3.451640281448     1.630281994190    -0.190464711089     1.007825032230
         H           -5.489256281448     0.184904994190    -0.057927711089     1.007825032230
         H           -4.440064281448    -0.384419005810    -1.373944711089     1.007825032230
         H           -4.473536281448    -1.254162005810     0.159052288911     1.007825032230
         H            2.989082718552    -0.789552005810     1.042172288911     1.007825032230
         H            2.795133718552    -1.433881005810    -0.583809711089     1.007825032230
         H            4.493935718552     0.243664994190    -1.438913711089     1.007825032230
         H            4.701258718552     0.848843994190     0.213586288911     1.007825032230
         H            5.178785718552    -0.807403005810    -0.192530711089     1.007825032230

  Basis Set: AUG-CC-PVTZ
    Blend: AUG-CC-PVTZ
  Basis Set: (AUG-CC-PVTZ AUX)
    Blend: AUG-CC-PVTZ-JKFIT
	 Reference Energy          =    -819.4842963172517329 [Eh]
	 Singles Energy            =      -0.0000000000000000 [Eh]
	 Same-Spin Energy          =      -0.4849681882319964 [Eh]
	 Opposite-Spin Energy      =      -1.5711288532257202 [Eh]
	 Correlation Energy        =      -2.0560970414577167 [Eh]
	 Total Energy              =    -821.5403933587094798 [Eh]

	 ================> DF-SCS-MP2 Energies <==================
	-----------------------------------------------------------
	 SCS Same-Spin Scale       =       0.3333333333333333 [-]
	 SCS Opposite-Spin Scale   =       1.2000000000000000 [-]
	 SCS Same-Spin Energy      =      -0.1616560627439988 [Eh]
	 SCS Opposite-Spin Energy  =      -1.8853546238708641 [Eh]
	 SCS Correlation Energy    =      -2.0470106866148630 [Eh]
	 SCS Total Energy          =    -821.5313070038665728 [Eh]
	-----------------------------------------------------------

  Dipole Moment: [D]
     X:     0.1202      Y:     2.8295      Z:     0.7445     Total:     2.9283

*** Psi4 exiting successfully. Buy a developer a beer!
