                               Psi4 1.3.2 release

  ==> Input File <==

--------------------------------------------------------------------------
#psi4
#
memory 32 gb

molecule  {
0 1
  S        1.8142300     0.7226310    -0.3411240
  O       -1.8432130    -0.9348080    -0.8000930
  O        0.4941690    -1.0618130     1.1146640
  C       -0.8273310     0.8335030     0.4756360
  C       -3.3832440     0.5955310     0.2374230
  C       -2.0096370     0.0521440    -0.0950140
  C        0.4326040    -0.0039200     0.5084100
  C       -4.5116740    -0.2794210    -0.2844450
  C        3.0576300    -0.5565920    -0.0082180
  C        4.4432860    -0.0468870    -0.3740170
  H       -0.6820790     1.8290543    -0.1744652
  H       -1.0474180     1.1506300     1.5016930
  H       -3.4528060     0.7235440     1.3254800
  H       -3.4442640     1.6111560    -0.1826160
  H       -5.4818800     0.1657790    -0.0500790
  H       -4.4326880    -0.4035450    -1.3660960
  H       -4.4661600    -1.2732880     0.1669010
  H        2.9964590    -0.8086780     1.0500210
  H        2.8025100    -1.4530070    -0.5759610
  H        4.5013120     0.2245390    -1.4310650
  H        4.7086350     0.8297180     0.2214350
  H        5.1861620    -0.8265290    -0.1846820
units angstrom
no_reorient  #important for SAPT in psi4, default
symmetry c1  #important for SAPT in psi4, default
}

set PROPERTIES_ORIGIN ["COM"]
properties('MP2/aug-cc-pvtz', properties = ['dipole'])
--------------------------------------------------------------------------

    Molecular point group: c1
  Charge       = 0
  Multiplicity = 1
  Basis Set: AUG-CC-PVTZ
    Blend: AUG-CC-PVTZ
  Basis Set: (AUG-CC-PVTZ AUX)
    Blend: AUG-CC-PVTZ-JKFIT

    Orbital Energies [Eh]
    ---------------------

    Doubly Occupied:

       1A    -91.972174     2A    -20.556005     3A    -20.555887
       4A    -11.368442     5A    -11.346710     6A    -11.277683
       7A    -11.262392     8A    -11.249835     9A    -11.231574
      10A    -11.222287    11A     -8.973751    12A     -6.654894
      13A     -6.653765    14A     -6.653150    15A     -1.398026
      16A     -1.384458    17A     -1.092393    18A     -1.075987
      19A     -1.039834    20A     -0.971549    21A     -0.895816
      22A     -0.837264    23A     -0.760446    24A     -0.722947
      25A     -0.676789    26A     -0.663768    27A     -0.648773
      28A     -0.637552    29A     -0.633877    30A     -0.608324
      31A     -0.585968    32A     -0.558669    33A     -0.546189
      34A     -0.533335    35A     -0.527157    36A     -0.520824
      37A     -0.509825    38A     -0.504455    39A     -0.487955
      40A     -0.465202    41A     -0.429714    42A     -0.406938
      43A     -0.371133

  @DF-RHF Final Energy:  -819.48792473628964

   => Energetics <=

    Nuclear Repulsion Energy =            602.9552561900474075
    One-Electron Energy =               -2321.9389313015785774
    Two-Electron Energy =                 899.4957503752416414
    Total Energy =                       -819.4879247362896422
  Basis Set: (AUG-CC-PVTZ AUX)
    Blend: AUG-CC-PVTZ-RI
    Molecular point group: c1

    Geometry (in Angstrom), charge = 0, multiplicity = 1:

       Center              X                  Y                   Z               Mass
    ------------   -----------------  -----------------  -----------------  -----------------
         S            1.814153574154     0.722107794687    -0.340782326764    31.972071174400
         O           -1.843289425846    -0.935331205313    -0.799751326764    15.994914619570
         O            0.494092574154    -1.062336205313     1.115005673236    15.994914619570
         C           -0.827407425846     0.832979794687     0.475977673236    12.000000000000
         C           -3.383320425846     0.595007794687     0.237764673236    12.000000000000
         C           -2.009713425846     0.051620794687    -0.094672326764    12.000000000000
         C            0.432527574154    -0.004443205313     0.508751673236    12.000000000000
         C           -4.511750425846    -0.279944205313    -0.284103326764    12.000000000000
         C            3.057553574154    -0.557115205313    -0.007876326764    12.000000000000
         C            4.443209574154    -0.047410205313    -0.373675326764    12.000000000000
         H           -0.682155425846     1.828531094687    -0.174123526764     1.007825032230
         H           -1.047494425846     1.150106794687     1.502034673236     1.007825032230
         H           -3.452882425846     0.723020794687     1.325821673236     1.007825032230
         H           -3.444340425846     1.610632794687    -0.182274326764     1.007825032230
         H           -5.481956425846     0.165255794687    -0.049737326764     1.007825032230
         H           -4.432764425846    -0.404068205313    -1.365754326764     1.007825032230
         H           -4.466236425846    -1.273811205313     0.167242673236     1.007825032230
         H            2.996382574154    -0.809201205313     1.050362673236     1.007825032230
         H            2.802433574154    -1.453530205313    -0.575619326764     1.007825032230
         H            4.501235574154     0.224015794687    -1.430723326764     1.007825032230
         H            4.708558574154     0.829194794687     0.221776673236     1.007825032230
         H            5.186085574154    -0.827052205313    -0.184340326764     1.007825032230

  Basis Set: AUG-CC-PVTZ
    Blend: AUG-CC-PVTZ
  Basis Set: (AUG-CC-PVTZ AUX)
    Blend: AUG-CC-PVTZ-JKFIT
	 Reference Energy          =    -819.4879247362896422 [Eh]
	 Singles Energy            =      -0.0000000000000000 [Eh]
	 Same-Spin Energy          =      -0.4844050176652122 [Eh]
	 Opposite-Spin Energy      =      -1.5719346814451198 [Eh]
	 Correlation Energy        =      -2.0563396991103318 [Eh]
	 Total Energy              =    -821.5442644354000095 [Eh]

	 ================> DF-SCS-MP2 Energies <==================
	-----------------------------------------------------------
	 SCS Same-Spin Scale       =       0.3333333333333333 [-]
	 SCS Opposite-Spin Scale   =       1.2000000000000000 [-]
	 SCS Same-Spin Energy      =      -0.1614683392217374 [Eh]
	 SCS Opposite-Spin Energy  =      -1.8863216177341438 [Eh]
	 SCS Correlation Energy    =      -2.0477899569558811 [Eh]
	 SCS Total Energy          =    -821.5357146932454953 [Eh]
	-----------------------------------------------------------

  Dipole Moment: [D]
     X:     0.0103      Y:     2.8202      Z:     0.6858     Total:     2.9025

*** Psi4 exiting successfully. Buy a developer a beer!
