                               Psi4 1.3.2 release

  ==> Input File <==

--------------------------------------------------------------------------
#psi4
#
memory 32 gb

molecule  {
0 1
  S        1.8142300     0.7226310    -0.3411240
  O       -1.8432130    -0.9348080    -0.8000930
  O        0.4941690    -1.0618130     1.1146640
  C       -0.8273310     0.8335030     0.4756360
  C       -3.3832440     0.5955310     0.2374230
  C       -2.0096370     0.0521440    -0.0950140
  C        0.4326040    -0.0039200     0.5084100
  C       -4.5116740    -0.2794210    -0.2844450
  C        3.0576300    -0.5565920    -0.0082180
  C        4.4432860    -0.0468870    -0.3740170
  H       -0.7063310     1.6628317    -0.0659208
  H       -1.0474180     1.1506300     1.5016930
  H       -3.4528060     0.7235440     1.3254800
  H       -3.4442640     1.6111560    -0.1826160
  H       -5.4818800     0.1657790    -0.0500790
  H       -4.4326880    -0.4035450    -1.3660960
  H       -4.4661600    -1.2732880     0.1669010
  H        2.9964590    -0.8086780     1.0500210
  H        2.8025100    -1.4530070    -0.5759610
  H        4.5013120     0.2245390    -1.4310650
  H        4.7086350     0.8297180     0.2214350
  H        5.1861620    -0.8265290    -0.1846820
units angstrom
no_reorient  #important for SAPT in psi4, default
symmetry c1  #important for SAPT in psi4, default
}

set PROPERTIES_ORIGIN ["COM"]
properties('MP2/aug-cc-pvtz', properties = ['dipole'])
--------------------------------------------------------------------------

    Molecular point group: c1
  Charge       = 0
  Multiplicity = 1
  Basis Set: AUG-CC-PVTZ
    Blend: AUG-CC-PVTZ
  Basis Set: (AUG-CC-PVTZ AUX)
    Blend: AUG-CC-PVTZ-JKFIT

    Orbital Energies [Eh]
    ---------------------

    Doubly Occupied:

       1A    -91.972093     2A    -20.555436     3A    -20.554336
       4A    -11.366662     5A    -11.345645     6A    -11.262836
       7A    -11.255219     8A    -11.249979     9A    -11.231698
      10A    -11.222344    11A     -8.973731    12A     -6.654893
      13A     -6.653765    14A     -6.653152    15A     -1.396908
      16A     -1.383622    17A     -1.096838    18A     -1.078849
      19A     -1.046323    20A     -0.972882    21A     -0.896750
      22A     -0.838414    23A     -0.759769    24A     -0.733890
      25A     -0.682206    26A     -0.671088    27A     -0.647607
      28A     -0.637741    29A     -0.634017    30A     -0.610638
      31A     -0.601562    32A     -0.560406    33A     -0.546031
      34A     -0.533061    35A     -0.527105    36A     -0.520845
      37A     -0.513539    38A     -0.504678    39A     -0.489127
      40A     -0.465370    41A     -0.429787    42A     -0.406047
      43A     -0.371151

  @DF-RHF Final Energy:  -819.48925016958526

   => Energetics <=

    Nuclear Repulsion Energy =            603.9713418317667220
    One-Electron Energy =               -2323.9050946528009263
    Two-Electron Energy =                 900.4445026514489427
    Total Energy =                       -819.4892501695852616
  Basis Set: (AUG-CC-PVTZ AUX)
    Blend: AUG-CC-PVTZ-RI
    Molecular point group: c1

    Geometry (in Angstrom), charge = 0, multiplicity = 1:

       Center              X                  Y                   Z               Mass
    ------------   -----------------  -----------------  -----------------  -----------------
         S            1.814306281975     0.723154450269    -0.341465799421    31.972071174400
         O           -1.843136718025    -0.934284549731    -0.800434799421    15.994914619570
         O            0.494245281975    -1.061289549731     1.114322200579    15.994914619570
         C           -0.827254718025     0.834026450269     0.475294200579    12.000000000000
         C           -3.383167718025     0.596054450269     0.237081200579    12.000000000000
         C           -2.009560718025     0.052667450269    -0.095355799421    12.000000000000
         C            0.432680281975    -0.003396549731     0.508068200579    12.000000000000
         C           -4.511597718025    -0.278897549731    -0.284786799421    12.000000000000
         C            3.057706281975    -0.556068549731    -0.008559799421    12.000000000000
         C            4.443362281975    -0.046363549731    -0.374358799421    12.000000000000
         H           -0.706254718025     1.663355150269    -0.066262599421     1.007825032230
         H           -1.047341718025     1.151153450269     1.501351200579     1.007825032230
         H           -3.452729718025     0.724067450269     1.325138200579     1.007825032230
         H           -3.444187718025     1.611679450269    -0.182957799421     1.007825032230
         H           -5.481803718025     0.166302450269    -0.050420799421     1.007825032230
         H           -4.432611718025    -0.403021549731    -1.366437799421     1.007825032230
         H           -4.466083718025    -1.272764549731     0.166559200579     1.007825032230
         H            2.996535281975    -0.808154549731     1.049679200579     1.007825032230
         H            2.802586281975    -1.452483549731    -0.576302799421     1.007825032230
         H            4.501388281975     0.225062450269    -1.431406799421     1.007825032230
         H            4.708711281975     0.830241450269     0.221093200579     1.007825032230
         H            5.186238281975    -0.826005549731    -0.185023799421     1.007825032230

  Basis Set: AUG-CC-PVTZ
    Blend: AUG-CC-PVTZ
  Basis Set: (AUG-CC-PVTZ AUX)
    Blend: AUG-CC-PVTZ-JKFIT
	 Reference Energy          =    -819.4892501695852616 [Eh]
	 Singles Energy            =      -0.0000000000000000 [Eh]
	 Same-Spin Energy          =      -0.4840747130248294 [Eh]
	 Opposite-Spin Energy      =      -1.5704808853725467 [Eh]
	 Correlation Energy        =      -2.0545555983973762 [Eh]
	 Total Energy              =    -821.5438057679826898 [Eh]

	 ================> DF-SCS-MP2 Energies <==================
	-----------------------------------------------------------
	 SCS Same-Spin Scale       =       0.3333333333333333 [-]
	 SCS Opposite-Spin Scale   =       1.2000000000000000 [-]
	 SCS Same-Spin Energy      =      -0.1613582376749431 [Eh]
	 SCS Opposite-Spin Energy  =      -1.8845770624470559 [Eh]
	 SCS Correlation Energy    =      -2.0459353001219989 [Eh]
	 SCS Total Energy          =    -821.5351854697072440 [Eh]
	-----------------------------------------------------------

  Dipole Moment: [D]
     X:    -0.0075      Y:     2.8404      Z:     0.6818     Total:     2.9211

*** Psi4 exiting successfully. Buy a developer a beer!
