                               Psi4 1.3.2 release

  ==> Input File <==

--------------------------------------------------------------------------
#psi4
#
memory 32 gb

molecule  {
0 1
  S        1.8142300     0.7226310    -0.3411240
  O       -1.8432130    -0.9348080    -0.8000930
  O        0.4941690    -1.0618130     1.1146640
  C       -0.8273310     0.8335030     0.4756360
  C       -3.3832440     0.5955310     0.2374230
  C       -2.1910758     0.1239196    -0.0511026
  C        0.4326040    -0.0039200     0.5084100
  C       -4.5116740    -0.2794210    -0.2844450
  C        3.0576300    -0.5565920    -0.0082180
  C        4.4432860    -0.0468870    -0.3740170
  H       -0.6942050     1.7459430    -0.1201930
  H       -1.0474180     1.1506300     1.5016930
  H       -3.4528060     0.7235440     1.3254800
  H       -3.4442640     1.6111560    -0.1826160
  H       -5.4818800     0.1657790    -0.0500790
  H       -4.4326880    -0.4035450    -1.3660960
  H       -4.4661600    -1.2732880     0.1669010
  H        2.9964590    -0.8086780     1.0500210
  H        2.8025100    -1.4530070    -0.5759610
  H        4.5013120     0.2245390    -1.4310650
  H        4.7086350     0.8297180     0.2214350
  H        5.1861620    -0.8265290    -0.1846820
units angstrom
no_reorient  #important for SAPT in psi4, default
symmetry c1  #important for SAPT in psi4, default
}

set PROPERTIES_ORIGIN ["COM"]
properties('MP2/aug-cc-pvtz', properties = ['dipole'])
--------------------------------------------------------------------------

    Molecular point group: c1
  Charge       = 0
  Multiplicity = 1
  Basis Set: AUG-CC-PVTZ
    Blend: AUG-CC-PVTZ
  Basis Set: (AUG-CC-PVTZ AUX)
    Blend: AUG-CC-PVTZ-JKFIT

    Orbital Energies [Eh]
    ---------------------

    Doubly Occupied:

       1A    -91.969114     2A    -20.549647     3A    -20.545155
       4A    -11.364345     5A    -11.356214     6A    -11.269616
       7A    -11.259970     8A    -11.253869     9A    -11.232643
      10A    -11.229526    11A     -8.970666    12A     -6.651823
      13A     -6.650711    14A     -6.650078    15A     -1.387292
      16A     -1.317943    17A     -1.125102    18A     -1.086585
      19A     -1.037003    20A     -0.968205    21A     -0.927061
      22A     -0.835490    23A     -0.756118    24A     -0.728809
      25A     -0.675854    26A     -0.667872    27A     -0.650322
      28A     -0.639874    29A     -0.631027    30A     -0.595937
      31A     -0.591461    32A     -0.556888    33A     -0.549411
      34A     -0.535587    35A     -0.528774    36A     -0.516544
      37A     -0.514745    38A     -0.495772    39A     -0.462045
      40A     -0.447120    41A     -0.421624    42A     -0.408491
      43A     -0.367279

  @DF-RHF Final Energy:  -819.42694238711567

   => Energetics <=

    Nuclear Repulsion Energy =            601.9038546014844542
    One-Electron Energy =               -2319.9023620986231435
    Two-Electron Energy =                 898.5715651100230161
    Total Energy =                       -819.4269423871156732
  Basis Set: (AUG-CC-PVTZ AUX)
    Blend: AUG-CC-PVTZ-RI
    Molecular point group: c1

    Geometry (in Angstrom), charge = 0, multiplicity = 1:

       Center              X                  Y                   Z               Mass
    ------------   -----------------  -----------------  -----------------  -----------------
         S            1.827833093892     0.717249829231    -0.344416269919    31.972071174400
         O           -1.829609906108    -0.940189170769    -0.803385269919    15.994914619570
         O            0.507772093892    -1.067194170769     1.111371730081    15.994914619570
         C           -0.813727906108     0.828121829231     0.472343730081    12.000000000000
         C           -3.369640906108     0.590149829231     0.234130730081    12.000000000000
         C           -2.177472706108     0.118538429231    -0.054394869919    12.000000000000
         C            0.446207093892    -0.009301170769     0.505117730081    12.000000000000
         C           -4.498070906108    -0.284802170769    -0.287737269919    12.000000000000
         C            3.071233093892    -0.561973170769    -0.011510269919    12.000000000000
         C            4.456889093892    -0.052268170769    -0.377309269919    12.000000000000
         H           -0.680601906108     1.740561829231    -0.123485269919     1.007825032230
         H           -1.033814906108     1.145248829231     1.498400730081     1.007825032230
         H           -3.439202906108     0.718162829231     1.322187730081     1.007825032230
         H           -3.430660906108     1.605774829231    -0.185908269919     1.007825032230
         H           -5.468276906108     0.160397829231    -0.053371269919     1.007825032230
         H           -4.419084906108    -0.408926170769    -1.369388269919     1.007825032230
         H           -4.452556906108    -1.278669170769     0.163608730081     1.007825032230
         H            3.010062093892    -0.814059170769     1.046728730081     1.007825032230
         H            2.816113093892    -1.458388170769    -0.579253269919     1.007825032230
         H            4.514915093892     0.219157829231    -1.434357269919     1.007825032230
         H            4.722238093892     0.824336829231     0.218142730081     1.007825032230
         H            5.199765093892    -0.831910170769    -0.187974269919     1.007825032230

  Basis Set: AUG-CC-PVTZ
    Blend: AUG-CC-PVTZ
  Basis Set: (AUG-CC-PVTZ AUX)
    Blend: AUG-CC-PVTZ-JKFIT
	 Reference Energy          =    -819.4269423871156732 [Eh]
	 Singles Energy            =      -0.0000000000000000 [Eh]
	 Same-Spin Energy          =      -0.4898137219415961 [Eh]
	 Opposite-Spin Energy      =      -1.5817675873142278 [Eh]
	 Correlation Energy        =      -2.0715813092558237 [Eh]
	 Total Energy              =    -821.4985236963715352 [Eh]

	 ================> DF-SCS-MP2 Energies <==================
	-----------------------------------------------------------
	 SCS Same-Spin Scale       =       0.3333333333333333 [-]
	 SCS Opposite-Spin Scale   =       1.2000000000000000 [-]
	 SCS Same-Spin Energy      =      -0.1632712406471987 [Eh]
	 SCS Opposite-Spin Energy  =      -1.8981211047770734 [Eh]
	 SCS Correlation Energy    =      -2.0613923454242720 [Eh]
	 SCS Total Energy          =    -821.4883347325398972 [Eh]
	-----------------------------------------------------------

  Dipole Moment: [D]
     X:    -0.9524      Y:     3.0686      Z:     0.8220     Total:     3.3165

*** Psi4 exiting successfully. Buy a developer a beer!
