                               Psi4 1.3.2 release

  ==> Input File <==

--------------------------------------------------------------------------
#psi4
#
memory 32 gb

molecule  {
0 1
  S        1.8142300     0.7226310    -0.3411240
  O       -1.8432130    -0.9348080    -0.8000930
  O        0.4941690    -1.0618130     1.1146640
  C       -0.8273310     0.8335030     0.4756360
  C       -3.3832440     0.5955310     0.2374230
  C       -2.0096370     0.0521440    -0.0950140
  C        0.4675395     0.0506029     0.4627710
  C       -4.5116740    -0.2794210    -0.2844450
  C        3.0576300    -0.5565920    -0.0082180
  C        4.4432860    -0.0468870    -0.3740170
  H       -0.6400950     1.7295177    -0.1304843
  H       -1.0474180     1.1506300     1.5016930
  H       -3.4528060     0.7235440     1.3254800
  H       -3.4442640     1.6111560    -0.1826160
  H       -5.4818800     0.1657790    -0.0500790
  H       -4.4326880    -0.4035450    -1.3660960
  H       -4.4661600    -1.2732880     0.1669010
  H        2.9964590    -0.8086780     1.0500210
  H        2.8025100    -1.4530070    -0.5759610
  H        4.5013120     0.2245390    -1.4310650
  H        4.7086350     0.8297180     0.2214350
  H        5.1861620    -0.8265290    -0.1846820
units angstrom
no_reorient  #important for SAPT in psi4, default
symmetry c1  #important for SAPT in psi4, default
}

set PROPERTIES_ORIGIN ["COM"]
properties('MP2/aug-cc-pvtz', properties = ['dipole'])
--------------------------------------------------------------------------

    Molecular point group: c1
  Charge       = 0
  Multiplicity = 1
  Basis Set: AUG-CC-PVTZ
    Blend: AUG-CC-PVTZ
  Basis Set: (AUG-CC-PVTZ AUX)
    Blend: AUG-CC-PVTZ-JKFIT

    Orbital Energies [Eh]
    ---------------------

    Doubly Occupied:

       1A    -91.982758     2A    -20.553454     3A    -20.541541
       4A    -11.367171     5A    -11.344849     6A    -11.267811
       7A    -11.266533     8A    -11.248869     9A    -11.235762
      10A    -11.221289    11A     -8.985350    12A     -6.666645
      13A     -6.665332    14A     -6.664814    15A     -1.387246
      16A     -1.341801    17A     -1.103367    18A     -1.077283
      19A     -1.043397    20A     -0.984759    21A     -0.896180
      22A     -0.845201    23A     -0.759577    24A     -0.721453
      25A     -0.675161    26A     -0.664450    27A     -0.643017
      28A     -0.637217    29A     -0.630750    30A     -0.602738
      31A     -0.591015    32A     -0.554729    33A     -0.543417
      34A     -0.530745    35A     -0.525628    36A     -0.520228
      37A     -0.511203    38A     -0.494621    39A     -0.483304
      40A     -0.468342    41A     -0.427657    42A     -0.412122
      43A     -0.375933

  @DF-RHF Final Energy:  -819.47917444750192

   => Energetics <=

    Nuclear Repulsion Energy =            603.5381187020547031
    One-Electron Energy =               -2323.1051515617168661
    Two-Electron Energy =                 900.0878584121601307
    Total Energy =                       -819.4791744475019186
  Basis Set: (AUG-CC-PVTZ AUX)
    Blend: AUG-CC-PVTZ-RI
    Molecular point group: c1

    Geometry (in Angstrom), charge = 0, multiplicity = 1:

       Center              X                  Y                   Z               Mass
    ------------   -----------------  -----------------  -----------------  -----------------
         S            1.811269964039     0.718646755974    -0.337637530102    31.972071174400
         O           -1.846173035961    -0.938792244026    -0.796606530102    15.994914619570
         O            0.491208964039    -1.065797244026     1.118150469898    15.994914619570
         C           -0.830291035961     0.829518755974     0.479122469898    12.000000000000
         C           -3.386204035961     0.591546755974     0.240909469898    12.000000000000
         C           -2.012597035961     0.048159755974    -0.091527530102    12.000000000000
         C            0.464579464039     0.046618655974     0.466257469898    12.000000000000
         C           -4.514634035961    -0.283405244026    -0.280958530102    12.000000000000
         C            3.054669964039    -0.560576244026    -0.004731530102    12.000000000000
         C            4.440325964039    -0.050871244026    -0.370530530102    12.000000000000
         H           -0.643055035961     1.725533455974    -0.126997830102     1.007825032230
         H           -1.050378035961     1.146645755974     1.505179469898     1.007825032230
         H           -3.455766035961     0.719559755974     1.328966469898     1.007825032230
         H           -3.447224035961     1.607171755974    -0.179129530102     1.007825032230
         H           -5.484840035961     0.161794755974    -0.046592530102     1.007825032230
         H           -4.435648035961    -0.407529244026    -1.362609530102     1.007825032230
         H           -4.469120035961    -1.277272244026     0.170387469898     1.007825032230
         H            2.993498964039    -0.812662244026     1.053507469898     1.007825032230
         H            2.799549964039    -1.456991244026    -0.572474530102     1.007825032230
         H            4.498351964039     0.220554755974    -1.427578530102     1.007825032230
         H            4.705674964039     0.825733755974     0.224921469898     1.007825032230
         H            5.183201964039    -0.830513244026    -0.181195530102     1.007825032230

  Basis Set: AUG-CC-PVTZ
    Blend: AUG-CC-PVTZ
  Basis Set: (AUG-CC-PVTZ AUX)
    Blend: AUG-CC-PVTZ-JKFIT
	 Reference Energy          =    -819.4791744475019186 [Eh]
	 Singles Energy            =      -0.0000000000000000 [Eh]
	 Same-Spin Energy          =      -0.4864725968950255 [Eh]
	 Opposite-Spin Energy      =      -1.5753171750917070 [Eh]
	 Correlation Energy        =      -2.0617897719867324 [Eh]
	 Total Energy              =    -821.5409642194886146 [Eh]

	 ================> DF-SCS-MP2 Energies <==================
	-----------------------------------------------------------
	 SCS Same-Spin Scale       =       0.3333333333333333 [-]
	 SCS Opposite-Spin Scale   =       1.2000000000000000 [-]
	 SCS Same-Spin Energy      =      -0.1621575322983418 [Eh]
	 SCS Opposite-Spin Energy  =      -1.8903806101100482 [Eh]
	 SCS Correlation Energy    =      -2.0525381424083902 [Eh]
	 SCS Total Energy          =    -821.5317125899102848 [Eh]
	-----------------------------------------------------------

  Dipole Moment: [D]
     X:     0.5358      Y:     3.0874      Z:     0.3750     Total:     3.1559

*** Psi4 exiting successfully. Buy a developer a beer!
