                               Psi4 1.4a3.dev225

  ==> Input File <==

--------------------------------------------------------------------------
#psi4
#
memory 32 gb

molecule  {
0 1
  S        1.5586770    -0.2994370    -0.7152220
  O       -1.5255240    -0.4876820     1.0921970
  O        0.7924220     1.7006740     0.8461850
  C       -0.8878030     0.9736540    -0.7120840
  C       -3.2304390    -0.0998550    -0.5631210
  C       -1.8542380     0.0638590     0.0480780
  C        0.4791140     0.9485020    -0.0654040
  C       -4.1634610    -0.9398430     0.2972900
  C        2.9497330    -0.0790050     0.4324980
  C        4.0540790    -1.0751370     0.1033520
  H       -0.8477436     0.6702220    -1.7861093
  H       -1.2645150     2.0025910    -0.6674260
  H       -3.6447290     0.9013370    -0.7419330
  H       -3.1015980    -0.5455960    -1.5588690
  H       -5.1413450    -1.0357370    -0.1813640
  H       -3.7504260    -1.9381500     0.4523140
  H       -4.2995020    -0.4825820     1.2793320
  H        3.3022180     0.9509290     0.3487650
  H        2.5726230    -0.2199470     1.4475820
  H        3.7004310    -2.1050230     0.1947960
  H        4.4320470    -0.9299840    -0.9117720
  H        4.8873260    -0.9394890     0.7982930
units angstrom
no_reorient  #important for SAPT in psi4, default
symmetry c1  #important for SAPT in psi4, default
}

set PROPERTIES_ORIGIN ["COM"]
properties('MP2/aug-cc-pvtz', properties = ['dipole'])
--------------------------------------------------------------------------

    Molecular point group: c1
  Charge       = 0
  Multiplicity = 1
  Basis Set: AUG-CC-PVTZ
    Blend: AUG-CC-PVTZ
  Basis Set: (AUG-CC-PVTZ AUX)
    Blend: AUG-CC-PVTZ-JKFIT

    Orbital Energies [Eh]
    ---------------------

    Doubly Occupied:

       1A    -91.968408     2A    -20.559343     3A    -20.555161
       4A    -11.365594     5A    -11.350030     6A    -11.268640
       7A    -11.261541     8A    -11.252358     9A    -11.230049
      10A    -11.224526    11A     -8.970189    12A     -6.651381
      13A     -6.650238    14A     -6.649600    15A     -1.396926
      16A     -1.385734    17A     -1.092814    18A     -1.076764
      19A     -1.042875    20A     -0.969602    21A     -0.897708
      22A     -0.835969    23A     -0.761060    24A     -0.725567
      25A     -0.677974    26A     -0.668969    27A     -0.649418
      28A     -0.636698    29A     -0.632423    30A     -0.610360
      31A     -0.589692    32A     -0.559851    33A     -0.545768
      34A     -0.530982    35A     -0.526364    36A     -0.522289
      37A     -0.512438    38A     -0.504491    39A     -0.493874
      40A     -0.462713    41A     -0.432241    42A     -0.406721
      43A     -0.368072

  @DF-RHF Final Energy:  -819.49508726141084

   => Energetics <=

    Nuclear Repulsion Energy =            610.1244061824816072
    One-Electron Energy =               -2336.2921567392404540
    Two-Electron Energy =                 906.6726632953480021
    Total Energy =                       -819.4950872614108448
  Basis Set: (AUG-CC-PVTZ AUX)
    Blend: AUG-CC-PVTZ-RI
    Molecular point group: c1

    Geometry (in Angstrom), charge = 0, multiplicity = 1:

       Center              X                  Y                   Z               Mass
    ------------   -----------------  -----------------  -----------------  -----------------
         S            1.539357832429    -0.322141733784    -0.723267091396    31.972071174400
         O           -1.544843167571    -0.510386733784     1.084151908604    15.994914619570
         O            0.773102832429     1.677969266216     0.838139908604    15.994914619570
         C           -0.907122167571     0.950949266216    -0.720129091396    12.000000000000
         C           -3.249758167571    -0.122559733784    -0.571166091396    12.000000000000
         C           -1.873557167571     0.041154266216     0.040032908604    12.000000000000
         C            0.459794832429     0.925797266216    -0.073449091396    12.000000000000
         C           -4.182780167571    -0.962547733784     0.289244908604    12.000000000000
         C            2.930413832429    -0.101709733784     0.424452908604    12.000000000000
         C            4.034759832429    -1.097841733784     0.095306908604    12.000000000000
         H           -0.867062767571     0.647517266216    -1.794154391396     1.007825032230
         H           -1.283834167571     1.979886266216    -0.675471091396     1.007825032230
         H           -3.664048167571     0.878632266216    -0.749978091396     1.007825032230
         H           -3.120917167571    -0.568300733784    -1.566914091396     1.007825032230
         H           -5.160664167571    -1.058441733784    -0.189409091396     1.007825032230
         H           -3.769745167571    -1.960854733784     0.444268908604     1.007825032230
         H           -4.318821167571    -0.505286733784     1.271286908604     1.007825032230
         H            3.282898832429     0.928224266216     0.340719908604     1.007825032230
         H            2.553303832429    -0.242651733784     1.439536908604     1.007825032230
         H            3.681111832429    -2.127727733784     0.186750908604     1.007825032230
         H            4.412727832429    -0.952688733784    -0.919817091396     1.007825032230
         H            4.868006832429    -0.962193733784     0.790247908604     1.007825032230

  Basis Set: AUG-CC-PVTZ
    Blend: AUG-CC-PVTZ
  Basis Set: (AUG-CC-PVTZ AUX)
    Blend: AUG-CC-PVTZ-JKFIT
	 Reference Energy          =    -819.4950872614108448 [Eh]
	 Singles Energy            =      -0.0000000000000000 [Eh]
	 Same-Spin Energy          =      -0.4845764985976048 [Eh]
	 Opposite-Spin Energy      =      -1.5715407170066107 [Eh]
	 Correlation Energy        =      -2.0561172156042153 [Eh]
	 Total Energy              =    -821.5512044770150624 [Eh]

	 ================> DF-SCS-MP2 Energies <==================
	-----------------------------------------------------------
	 SCS Same-Spin Scale       =       0.3333333333333333 [-]
	 SCS Opposite-Spin Scale   =       1.2000000000000000 [-]
	 SCS Same-Spin Energy      =      -0.1615254995325349 [Eh]
	 SCS Opposite-Spin Energy  =      -1.8858488604079326 [Eh]
	 SCS Correlation Energy    =      -2.0473743599404677 [Eh]
	 SCS Total Energy          =    -821.5424616213513218 [Eh]
	-----------------------------------------------------------

  Dipole Moment: [D]
     X:    -0.7507      Y:    -0.2141      Z:    -2.6869     Total:     2.7980

*** Psi4 exiting successfully. Buy a developer a beer!
