                               Psi4 1.3.2 release

  ==> Input File <==

--------------------------------------------------------------------------
#psi4
#
memory 32 gb

molecule  {
0 1
  S        1.8142300     0.7226310    -0.3411240
  O       -1.8432130    -0.9348080    -0.8000930
  O        0.4941690    -1.0618130     1.1146640
  C       -0.8273310     0.8335030     0.4756360
  C       -3.3832440     0.5955310     0.2374230
  C       -2.0096370     0.0521440    -0.0950140
  C        0.4326040    -0.0039200     0.5084100
  C       -4.5116740    -0.2794210    -0.2844450
  C        3.0576300    -0.5565920    -0.0082180
  C        4.4432860    -0.0468870    -0.3740170
  H       -0.6942050     1.7459430    -0.1201930
  H       -1.0474180     1.1506300     1.5016930
  H       -3.4528060     0.7235440     1.3254800
  H       -3.4442640     1.6111560    -0.1826160
  H       -5.4818800     0.1657790    -0.0500790
  H       -4.4326880    -0.4035450    -1.3660960
  H       -4.4661600    -1.2732880     0.1669010
  H        2.9964590    -0.8086780     1.0500210
  H        2.8492644    -1.2887260    -0.4719139
  H        4.5013120     0.2245390    -1.4310650
  H        4.7086350     0.8297180     0.2214350
  H        5.1861620    -0.8265290    -0.1846820
units angstrom
no_reorient  #important for SAPT in psi4, default
symmetry c1  #important for SAPT in psi4, default
}

set PROPERTIES_ORIGIN ["COM"]
properties('MP2/aug-cc-pvtz', properties = ['dipole'])
--------------------------------------------------------------------------

    Molecular point group: c1
  Charge       = 0
  Multiplicity = 1
  Basis Set: AUG-CC-PVTZ
    Blend: AUG-CC-PVTZ
  Basis Set: (AUG-CC-PVTZ AUX)
    Blend: AUG-CC-PVTZ-JKFIT

    Orbital Energies [Eh]
    ---------------------

    Doubly Occupied:

       1A    -91.971220     2A    -20.555520     3A    -20.555061
       4A    -11.367527     5A    -11.346053     6A    -11.266731
       7A    -11.249853     8A    -11.239536     9A    -11.230820
      10A    -11.222275    11A     -8.972907    12A     -6.654068
      13A     -6.652936    14A     -6.652325    15A     -1.397436
      16A     -1.383986    17A     -1.101137    18A     -1.080379
      19A     -1.044211    20A     -0.972458    21A     -0.897407
      22A     -0.859410    23A     -0.764590    24A     -0.728358
      25A     -0.678168    26A     -0.670010    27A     -0.654672
      28A     -0.646668    29A     -0.636710    30A     -0.608712
      31A     -0.595561    32A     -0.559947    33A     -0.546699
      34A     -0.536177    35A     -0.530592    36A     -0.521318
      37A     -0.512864    38A     -0.508748    39A     -0.489094
      40A     -0.466383    41A     -0.429690    42A     -0.406302
      43A     -0.372978

  @DF-RHF Final Energy:  -819.46060399712894

   => Energetics <=

    Nuclear Repulsion Energy =            604.5214727090525457
    One-Electron Energy =               -2324.8891509406853402
    Two-Electron Energy =                 900.9070742345039662
    Total Energy =                       -819.4606039971289420
  Basis Set: (AUG-CC-PVTZ AUX)
    Blend: AUG-CC-PVTZ-RI
    Molecular point group: c1

    Geometry (in Angstrom), charge = 0, multiplicity = 1:

       Center              X                  Y                   Z               Mass
    ------------   -----------------  -----------------  -----------------  -----------------
         S            1.813935529146     0.721596692590    -0.341779217553    31.972071174400
         O           -1.843507470854    -0.935842307410    -0.800748217553    15.994914619570
         O            0.493874529146    -1.062847307410     1.114008782447    15.994914619570
         C           -0.827625470854     0.832468692590     0.474980782447    12.000000000000
         C           -3.383538470854     0.594496692590     0.236767782447    12.000000000000
         C           -2.009931470854     0.051109692590    -0.095669217553    12.000000000000
         C            0.432309529146    -0.004954307410     0.507754782447    12.000000000000
         C           -4.511968470854    -0.280455307410    -0.285100217553    12.000000000000
         C            3.057335529146    -0.557626307410    -0.008873217553    12.000000000000
         C            4.442991529146    -0.047921307410    -0.374672217553    12.000000000000
         H           -0.694499470854     1.744908692590    -0.120848217553     1.007825032230
         H           -1.047712470854     1.149595692590     1.501037782447     1.007825032230
         H           -3.453100470854     0.722509692590     1.324824782447     1.007825032230
         H           -3.444558470854     1.610121692590    -0.183271217553     1.007825032230
         H           -5.482174470854     0.164744692590    -0.050734217553     1.007825032230
         H           -4.432982470854    -0.404579307410    -1.366751217553     1.007825032230
         H           -4.466454470854    -1.274322307410     0.166245782447     1.007825032230
         H            2.996164529146    -0.809712307410     1.049365782447     1.007825032230
         H            2.848969929146    -1.289760307410    -0.472569117553     1.007825032230
         H            4.501017529146     0.223504692590    -1.431720217553     1.007825032230
         H            4.708340529146     0.828683692590     0.220779782447     1.007825032230
         H            5.185867529146    -0.827563307410    -0.185337217553     1.007825032230

  Basis Set: AUG-CC-PVTZ
    Blend: AUG-CC-PVTZ
  Basis Set: (AUG-CC-PVTZ AUX)
    Blend: AUG-CC-PVTZ-JKFIT
	 Reference Energy          =    -819.4606039971289420 [Eh]
	 Singles Energy            =      -0.0000000000000000 [Eh]
	 Same-Spin Energy          =      -0.4840627986157998 [Eh]
	 Opposite-Spin Energy      =      -1.5703558432694140 [Eh]
	 Correlation Energy        =      -2.0544186418852139 [Eh]
	 Total Energy              =    -821.5150226390142052 [Eh]

	 ================> DF-SCS-MP2 Energies <==================
	-----------------------------------------------------------
	 SCS Same-Spin Scale       =       0.3333333333333333 [-]
	 SCS Opposite-Spin Scale   =       1.2000000000000000 [-]
	 SCS Same-Spin Energy      =      -0.1613542662052666 [Eh]
	 SCS Opposite-Spin Energy  =      -1.8844270119232966 [Eh]
	 SCS Correlation Energy    =      -2.0457812781285631 [Eh]
	 SCS Total Energy          =    -821.5063852752574576 [Eh]
	-----------------------------------------------------------

  Dipole Moment: [D]
     X:     0.0046      Y:     2.8096      Z:     0.6890     Total:     2.8929

*** Psi4 exiting successfully. Buy a developer a beer!
