                               Psi4 1.3.2 release

  ==> Input File <==

--------------------------------------------------------------------------
#psi4
#
memory 32 gb

molecule  {
0 1
  S        1.8842447     0.7792853    -0.3713712
  O       -1.8432130    -0.9348080    -0.8000930
  O        0.4941690    -1.0618130     1.1146640
  C       -0.8273310     0.8335030     0.4756360
  C       -3.3832440     0.5955310     0.2374230
  C       -2.0096370     0.0521440    -0.0950140
  C        0.4326040    -0.0039200     0.5084100
  C       -4.5116740    -0.2794210    -0.2844450
  C        3.0576300    -0.5565920    -0.0082180
  C        4.4098559     0.0219412    -0.3960775
  H       -0.6942050     1.7459430    -0.1201930
  H       -1.0474180     1.1506300     1.5016930
  H       -3.4528060     0.7235440     1.3254800
  H       -3.4442640     1.6111560    -0.1826160
  H       -5.4818800     0.1657790    -0.0500790
  H       -4.4326880    -0.4035450    -1.3660960
  H       -4.4661600    -1.2732880     0.1669010
  H        2.9964590    -0.8086780     1.0500210
  H        2.8025100    -1.4530070    -0.5759610
  H        4.5013120     0.2245390    -1.4310650
  H        4.7086350     0.8297180     0.2214350
  H        5.1861620    -0.8265290    -0.1846820
units angstrom
no_reorient  #important for SAPT in psi4, default
symmetry c1  #important for SAPT in psi4, default
}

set PROPERTIES_ORIGIN ["COM"]
properties('MP2/aug-cc-pvtz', properties = ['dipole'])
--------------------------------------------------------------------------

    Molecular point group: c1
  Charge       = 0
  Multiplicity = 1
  Basis Set: AUG-CC-PVTZ
    Blend: AUG-CC-PVTZ
  Basis Set: (AUG-CC-PVTZ AUX)
    Blend: AUG-CC-PVTZ-JKFIT

    Orbital Energies [Eh]
    ---------------------

    Doubly Occupied:

       1A    -91.971250     2A    -20.564576     3A    -20.556836
       4A    -11.375328     5A    -11.347427     6A    -11.268674
       7A    -11.261753     8A    -11.250872     9A    -11.230172
      10A    -11.223088    11A     -8.971369    12A     -6.652408
      13A     -6.651220    14A     -6.650621    15A     -1.400932
      16A     -1.386310    17A     -1.089680    18A     -1.077804
      19A     -1.042376    20A     -0.958015    21A     -0.896563
      22A     -0.832686    23A     -0.763864    24A     -0.729687
      25A     -0.678690    26A     -0.667912    27A     -0.649352
      28A     -0.641950    29A     -0.634276    30A     -0.609814
      31A     -0.591934    32A     -0.551188    33A     -0.545797
      34A     -0.535634    35A     -0.527420    36A     -0.522358
      37A     -0.515491    38A     -0.508187    39A     -0.489783
      40A     -0.456718    41A     -0.431439    42A     -0.400675
      43A     -0.368870

  @DF-RHF Final Energy:  -819.48146168082667

   => Energetics <=

    Nuclear Repulsion Energy =            600.6096509461909818
    One-Electron Energy =               -2317.2202273858961235
    Two-Electron Energy =                 897.1291147588785861
    Total Energy =                       -819.4814616808266692
  Basis Set: (AUG-CC-PVTZ AUX)
    Blend: AUG-CC-PVTZ-RI
    Molecular point group: c1

    Geometry (in Angstrom), charge = 0, multiplicity = 1:

       Center              X                  Y                   Z               Mass
    ------------   -----------------  -----------------  -----------------  -----------------
         S            1.872765170510     0.762808083333    -0.363675249420    31.972071174400
         O           -1.854692529490    -0.951285216667    -0.792397049420    15.994914619570
         O            0.482689470510    -1.078290216667     1.122359950580    15.994914619570
         C           -0.838810529490     0.817025783333     0.483331950580    12.000000000000
         C           -3.394723529490     0.579053783333     0.245118950580    12.000000000000
         C           -2.021116529490     0.035666783333    -0.087318049420    12.000000000000
         C            0.421124470510    -0.020397216667     0.516105950580    12.000000000000
         C           -4.523153529490    -0.295898216667    -0.276749049420    12.000000000000
         C            3.046150470510    -0.573069216667    -0.000522049420    12.000000000000
         C            4.398376370510     0.005463983333    -0.388381549420    12.000000000000
         H           -0.705684529490     1.729465783333    -0.112497049420     1.007825032230
         H           -1.058897529490     1.134152783333     1.509388950580     1.007825032230
         H           -3.464285529490     0.707066783333     1.333175950580     1.007825032230
         H           -3.455743529490     1.594678783333    -0.174920049420     1.007825032230
         H           -5.493359529490     0.149301783333    -0.042383049420     1.007825032230
         H           -4.444167529490    -0.420022216667    -1.358400049420     1.007825032230
         H           -4.477639529490    -1.289765216667     0.174596950580     1.007825032230
         H            2.984979470510    -0.825155216667     1.057716950580     1.007825032230
         H            2.791030470510    -1.469484216667    -0.568265049420     1.007825032230
         H            4.489832470510     0.208061783333    -1.423369049420     1.007825032230
         H            4.697155470510     0.813240783333     0.229130950580     1.007825032230
         H            5.174682470510    -0.843006216667    -0.176986049420     1.007825032230

  Basis Set: AUG-CC-PVTZ
    Blend: AUG-CC-PVTZ
  Basis Set: (AUG-CC-PVTZ AUX)
    Blend: AUG-CC-PVTZ-JKFIT
	 Reference Energy          =    -819.4814616808266692 [Eh]
	 Singles Energy            =      -0.0000000000000000 [Eh]
	 Same-Spin Energy          =      -0.4845518441760805 [Eh]
	 Opposite-Spin Energy      =      -1.5730642339181491 [Eh]
	 Correlation Energy        =      -2.0576160780942296 [Eh]
	 Total Energy              =    -821.5390777589209392 [Eh]

	 ================> DF-SCS-MP2 Energies <==================
	-----------------------------------------------------------
	 SCS Same-Spin Scale       =       0.3333333333333333 [-]
	 SCS Opposite-Spin Scale   =       1.2000000000000000 [-]
	 SCS Same-Spin Energy      =      -0.1615172813920268 [Eh]
	 SCS Opposite-Spin Energy  =      -1.8876770807017789 [Eh]
	 SCS Correlation Energy    =      -2.0491943620938056 [Eh]
	 SCS Total Energy          =    -821.5306560429204410 [Eh]
	-----------------------------------------------------------

  Dipole Moment: [D]
     X:    -0.3717      Y:     2.7338      Z:     0.8310     Total:     2.8814

*** Psi4 exiting successfully. Buy a developer a beer!
