                               Psi4 1.4a3.dev225

  ==> Input File <==

--------------------------------------------------------------------------
#psi4
#
memory 32 gb

molecule  {
0 1
  S        1.5586770    -0.2994370    -0.7152220
  O       -1.5255240    -0.4876820     1.0921970
  O        0.7924220     1.7006740     0.8461850
  C       -0.8878030     0.9736540    -0.7120840
  C       -3.2304390    -0.0998550    -0.5631210
  C       -1.8542380     0.0638590     0.0480780
  C        0.4791140     0.9485020    -0.0654040
  C       -4.1634610    -0.9398430     0.2972900
  C        2.9497330    -0.0790050     0.4324980
  C        4.0540790    -1.0751370     0.1033520
  H       -0.8484610     0.6756560    -1.7668750
  H       -1.2645150     2.0025910    -0.6674260
  H       -3.6258664     0.8557528    -0.7337917
  H       -3.1015980    -0.5455960    -1.5588690
  H       -5.1413450    -1.0357370    -0.1813640
  H       -3.7504260    -1.9381500     0.4523140
  H       -4.2995020    -0.4825820     1.2793320
  H        3.3022180     0.9509290     0.3487650
  H        2.5726230    -0.2199470     1.4475820
  H        3.7004310    -2.1050230     0.1947960
  H        4.4320470    -0.9299840    -0.9117720
  H        4.8873260    -0.9394890     0.7982930
units angstrom
no_reorient  #important for SAPT in psi4, default
symmetry c1  #important for SAPT in psi4, default
}

set PROPERTIES_ORIGIN ["COM"]
properties('MP2/aug-cc-pvtz', properties = ['dipole'])
--------------------------------------------------------------------------

    Molecular point group: c1
  Charge       = 0
  Multiplicity = 1
  Basis Set: AUG-CC-PVTZ
    Blend: AUG-CC-PVTZ
  Basis Set: (AUG-CC-PVTZ AUX)
    Blend: AUG-CC-PVTZ-JKFIT

    Orbital Energies [Eh]
    ---------------------

    Doubly Occupied:

       1A    -91.968428     2A    -20.558932     3A    -20.555023
       4A    -11.365476     5A    -11.349498     6A    -11.266479
       7A    -11.261586     8A    -11.246307     9A    -11.230062
      10A    -11.224057    11A     -8.970214    12A     -6.651407
      13A     -6.650264    14A     -6.649626    15A     -1.396668
      16A     -1.385493    17A     -1.093800    18A     -1.078358
      19A     -1.044465    20A     -0.969733    21A     -0.898855
      22A     -0.836459    23A     -0.763188    24A     -0.726914
      25A     -0.679937    26A     -0.670404    27A     -0.649632
      28A     -0.639258    29A     -0.632426    30A     -0.610637
      31A     -0.591570    32A     -0.559865    33A     -0.545888
      34A     -0.530868    35A     -0.526301    36A     -0.523595
      37A     -0.513510    38A     -0.504429    39A     -0.495388
      40A     -0.462742    41A     -0.432085    42A     -0.406559
      43A     -0.368091

  @DF-RHF Final Energy:  -819.49479064724096

   => Energetics <=

    Nuclear Repulsion Energy =            610.4725190159663271
    One-Electron Energy =               -2336.9656667210565502
    Two-Electron Energy =                 906.9983570578492618
    Total Energy =                       -819.4947906472409613
  Basis Set: (AUG-CC-PVTZ AUX)
    Blend: AUG-CC-PVTZ-RI
    Molecular point group: c1

    Geometry (in Angstrom), charge = 0, multiplicity = 1:

       Center              X                  Y                   Z               Mass
    ------------   -----------------  -----------------  -----------------  -----------------
         S            1.539243577359    -0.321888919600    -0.723439467623    31.972071174400
         O           -1.544957422641    -0.510133919600     1.083979532377    15.994914619570
         O            0.772988577359     1.678222080400     0.837967532377    15.994914619570
         C           -0.907236422641     0.951202080400    -0.720301467623    12.000000000000
         C           -3.249872422641    -0.122306919600    -0.571338467623    12.000000000000
         C           -1.873671422641     0.041407080400     0.039860532377    12.000000000000
         C            0.459680577359     0.926050080400    -0.073621467623    12.000000000000
         C           -4.182894422641    -0.962294919600     0.289072532377    12.000000000000
         C            2.930299577359    -0.101456919600     0.424280532377    12.000000000000
         C            4.034645577359    -1.097588919600     0.095134532377    12.000000000000
         H           -0.867894422641     0.653204080400    -1.775092467623     1.007825032230
         H           -1.283948422641     1.980139080400    -0.675643467623     1.007825032230
         H           -3.645299822641     0.833300880400    -0.742009167623     1.007825032230
         H           -3.121031422641    -0.568047919600    -1.567086467623     1.007825032230
         H           -5.160778422641    -1.058188919600    -0.189581467623     1.007825032230
         H           -3.769859422641    -1.960601919600     0.444096532377     1.007825032230
         H           -4.318935422641    -0.505033919600     1.271114532377     1.007825032230
         H            3.282784577359     0.928477080400     0.340547532377     1.007825032230
         H            2.553189577359    -0.242398919600     1.439364532377     1.007825032230
         H            3.680997577359    -2.127474919600     0.186578532377     1.007825032230
         H            4.412613577359    -0.952435919600    -0.919989467623     1.007825032230
         H            4.867892577359    -0.961940919600     0.790075532377     1.007825032230

  Basis Set: AUG-CC-PVTZ
    Blend: AUG-CC-PVTZ
  Basis Set: (AUG-CC-PVTZ AUX)
    Blend: AUG-CC-PVTZ-JKFIT
	 Reference Energy          =    -819.4947906472409613 [Eh]
	 Singles Energy            =      -0.0000000000000000 [Eh]
	 Same-Spin Energy          =      -0.4845324769906553 [Eh]
	 Opposite-Spin Energy      =      -1.5711070527793156 [Eh]
	 Correlation Energy        =      -2.0556395297699708 [Eh]
	 Total Energy              =    -821.5504301770109805 [Eh]

	 ================> DF-SCS-MP2 Energies <==================
	-----------------------------------------------------------
	 SCS Same-Spin Scale       =       0.3333333333333333 [-]
	 SCS Opposite-Spin Scale   =       1.2000000000000000 [-]
	 SCS Same-Spin Energy      =      -0.1615108256635517 [Eh]
	 SCS Opposite-Spin Energy  =      -1.8853284633351786 [Eh]
	 SCS Correlation Energy    =      -2.0468392889987301 [Eh]
	 SCS Total Energy          =    -821.5416299362397012 [Eh]
	-----------------------------------------------------------

  Dipole Moment: [D]
     X:    -0.7490      Y:    -0.1957      Z:    -2.6989     Total:     2.8077

*** Psi4 exiting successfully. Buy a developer a beer!
