                               Psi4 1.4a3.dev225

  ==> Input File <==

--------------------------------------------------------------------------
#psi4
#
memory 32 gb

molecule  {
0 1
  S        1.5586770    -0.2994370    -0.7152220
  O       -1.5255240    -0.4876820     1.0921970
  O        0.7924220     1.7006740     0.8461850
  C       -0.8878030     0.9736540    -0.7120840
  C       -3.2304390    -0.0998550    -0.5631210
  C       -1.8542380     0.0638590     0.0480780
  C        0.4791140     0.9485020    -0.0654040
  C       -4.1634610    -0.9398430     0.2972900
  C        2.9650460    -0.0765785     0.4451323
  C        4.0540790    -1.0751370     0.1033520
  H       -0.8484610     0.6756560    -1.7668750
  H       -1.2645150     2.0025910    -0.6674260
  H       -3.6447290     0.9013370    -0.7419330
  H       -3.1015980    -0.5455960    -1.5588690
  H       -5.1413450    -1.0357370    -0.1813640
  H       -3.7504260    -1.9381500     0.4523140
  H       -4.2995020    -0.4825820     1.2793320
  H        3.3022180     0.9509290     0.3487650
  H        2.5726230    -0.2199470     1.4475820
  H        3.7004310    -2.1050230     0.1947960
  H        4.4320470    -0.9299840    -0.9117720
  H        4.8873260    -0.9394890     0.7982930
units angstrom
no_reorient  #important for SAPT in psi4, default
symmetry c1  #important for SAPT in psi4, default
}

set PROPERTIES_ORIGIN ["COM"]
properties('MP2/aug-cc-pvtz', properties = ['dipole'])
--------------------------------------------------------------------------

    Molecular point group: c1
  Charge       = 0
  Multiplicity = 1
  Basis Set: AUG-CC-PVTZ
    Blend: AUG-CC-PVTZ
  Basis Set: (AUG-CC-PVTZ AUX)
    Blend: AUG-CC-PVTZ-JKFIT

    Orbital Energies [Eh]
    ---------------------

    Doubly Occupied:

       1A    -91.967638     2A    -20.558985     3A    -20.554499
       4A    -11.365069     5A    -11.349655     6A    -11.266032
       7A    -11.262280     8A    -11.252211     9A    -11.230094
      10A    -11.224408    11A     -8.969227    12A     -6.650400
      13A     -6.649249    14A     -6.648637    15A     -1.396484
      16A     -1.385263    17A     -1.092206    18A     -1.076420
      19A     -1.043544    20A     -0.969651    21A     -0.897435
      22A     -0.837144    23A     -0.760927    24A     -0.726154
      25A     -0.678182    26A     -0.668996    27A     -0.648866
      28A     -0.636336    29A     -0.634583    30A     -0.610536
      31A     -0.590691    32A     -0.560679    33A     -0.545853
      34A     -0.530991    35A     -0.528589    36A     -0.522261
      37A     -0.513380    38A     -0.505686    39A     -0.493748
      40A     -0.458190    41A     -0.431784    42A     -0.406187
      43A     -0.368129

  @DF-RHF Final Energy:  -819.49569506079149

   => Energetics <=

    Nuclear Repulsion Energy =            609.8819240297001443
    One-Electron Energy =               -2335.8206828385668814
    Two-Electron Energy =                 906.4430637480751329
    Total Energy =                       -819.4956950607914905
  Basis Set: (AUG-CC-PVTZ AUX)
    Blend: AUG-CC-PVTZ-RI
    Molecular point group: c1

    Geometry (in Angstrom), charge = 0, multiplicity = 1:

       Center              X                  Y                   Z               Mass
    ------------   -----------------  -----------------  -----------------  -----------------
         S            1.538214275086    -0.322357874161    -0.724335446358    31.972071174400
         O           -1.545986724914    -0.510602874161     1.083083553642    15.994914619570
         O            0.771959275086     1.677753125839     0.837071553642    15.994914619570
         C           -0.908265724914     0.950733125839    -0.721197446358    12.000000000000
         C           -3.250901724914    -0.122775874161    -0.572234446358    12.000000000000
         C           -1.874700724914     0.040938125839     0.038964553642    12.000000000000
         C            0.458651275086     0.925581125839    -0.074517446358    12.000000000000
         C           -4.183923724914    -0.962763874161     0.288176553642    12.000000000000
         C            2.944583275086    -0.099499374161     0.436018853642    12.000000000000
         C            4.033616275086    -1.098057874161     0.094238553642    12.000000000000
         H           -0.868923724914     0.652735125839    -1.775988446358     1.007825032230
         H           -1.284977724914     1.979670125839    -0.676539446358     1.007825032230
         H           -3.665191724914     0.878416125839    -0.751046446358     1.007825032230
         H           -3.122060724914    -0.568516874161    -1.567982446358     1.007825032230
         H           -5.161807724914    -1.058657874161    -0.190477446358     1.007825032230
         H           -3.770888724914    -1.961070874161     0.443200553642     1.007825032230
         H           -4.319964724914    -0.505502874161     1.270218553642     1.007825032230
         H            3.281755275086     0.928008125839     0.339651553642     1.007825032230
         H            2.552160275086    -0.242867874161     1.438468553642     1.007825032230
         H            3.679968275086    -2.127943874161     0.185682553642     1.007825032230
         H            4.411584275086    -0.952904874161    -0.920885446358     1.007825032230
         H            4.866863275086    -0.962409874161     0.789179553642     1.007825032230

  Basis Set: AUG-CC-PVTZ
    Blend: AUG-CC-PVTZ
  Basis Set: (AUG-CC-PVTZ AUX)
    Blend: AUG-CC-PVTZ-JKFIT
	 Reference Energy          =    -819.4956950607914905 [Eh]
	 Singles Energy            =      -0.0000000000000000 [Eh]
	 Same-Spin Energy          =      -0.4844488599459915 [Eh]
	 Opposite-Spin Energy      =      -1.5712920201004574 [Eh]
	 Correlation Energy        =      -2.0557408800464492 [Eh]
	 Total Energy              =    -821.5514359408379050 [Eh]

	 ================> DF-SCS-MP2 Energies <==================
	-----------------------------------------------------------
	 SCS Same-Spin Scale       =       0.3333333333333333 [-]
	 SCS Opposite-Spin Scale   =       1.2000000000000000 [-]
	 SCS Same-Spin Energy      =      -0.1614829533153305 [Eh]
	 SCS Opposite-Spin Energy  =      -1.8855504241205487 [Eh]
	 SCS Correlation Energy    =      -2.0470333774358793 [Eh]
	 SCS Total Energy          =    -821.5427284382274138 [Eh]
	-----------------------------------------------------------

  Dipole Moment: [D]
     X:    -0.7150      Y:    -0.2213      Z:    -2.6754     Total:     2.7781

*** Psi4 exiting successfully. Buy a developer a beer!
