                               Psi4 1.3.2 release

  ==> Input File <==

--------------------------------------------------------------------------
#psi4
#
memory 32 gb

molecule  {
0 1
  S        1.8142300     0.7226310    -0.3411240
  O       -1.8432130    -0.9348080    -0.8000930
  O        0.4941690    -1.0618130     1.1146640
  C       -0.8273310     0.8335030     0.4756360
  C       -3.3832440     0.5955310     0.2374230
  C       -2.0096370     0.0521440    -0.0950140
  C        0.4326040    -0.0039200     0.5084100
  C       -4.5116740    -0.2794210    -0.2844450
  C        2.9205966    -0.4156106    -0.0449071
  C        4.4432860    -0.0468870    -0.3740170
  H       -0.6942050     1.7459430    -0.1201930
  H       -1.0474180     1.1506300     1.5016930
  H       -3.4528060     0.7235440     1.3254800
  H       -3.4442640     1.6111560    -0.1826160
  H       -5.4818800     0.1657790    -0.0500790
  H       -4.4326880    -0.4035450    -1.3660960
  H       -4.4661600    -1.2732880     0.1669010
  H        2.9964590    -0.8086780     1.0500210
  H        2.8025100    -1.4530070    -0.5759610
  H        4.5013120     0.2245390    -1.4310650
  H        4.7086350     0.8297180     0.2214350
  H        5.1861620    -0.8265290    -0.1846820
units angstrom
no_reorient  #important for SAPT in psi4, default
symmetry c1  #important for SAPT in psi4, default
}

set PROPERTIES_ORIGIN ["COM"]
properties('MP2/aug-cc-pvtz', properties = ['dipole'])
--------------------------------------------------------------------------

    Molecular point group: c1
  Charge       = 0
  Multiplicity = 1
  Basis Set: AUG-CC-PVTZ
    Blend: AUG-CC-PVTZ
  Basis Set: (AUG-CC-PVTZ AUX)
    Blend: AUG-CC-PVTZ-JKFIT

    Orbital Energies [Eh]
    ---------------------

    Doubly Occupied:

       1A    -91.973559     2A    -20.558980     3A    -20.556767
       4A    -11.368774     5A    -11.347301     6A    -11.268819
       7A    -11.262837     8A    -11.250832     9A    -11.236683
      10A    -11.223011    11A     -8.979068    12A     -6.660668
      13A     -6.659181    14A     -6.658290    15A     -1.399806
      16A     -1.385746    17A     -1.118901    18A     -1.081459
      19A     -1.042660    20A     -0.969099    21A     -0.899658
      22A     -0.830588    23A     -0.756912    24A     -0.729237
      25A     -0.684884    26A     -0.673987    27A     -0.650616
      28A     -0.640913    29A     -0.620038    30A     -0.607620
      31A     -0.596859    32A     -0.557908    33A     -0.548470
      34A     -0.535232    35A     -0.523488    36A     -0.520644
      37A     -0.511437    38A     -0.496816    39A     -0.487567
      40A     -0.474387    41A     -0.432066    42A     -0.407472
      43A     -0.361659

  @DF-RHF Final Energy:  -819.45480796823404

   => Energetics <=

    Nuclear Repulsion Energy =            607.0788235636603076
    One-Electron Energy =               -2329.9654627623458509
    Two-Electron Energy =                 903.4318312304515075
    Total Energy =                       -819.4548079682340358
  Basis Set: (AUG-CC-PVTZ AUX)
    Blend: AUG-CC-PVTZ-RI
    Molecular point group: c1

    Geometry (in Angstrom), charge = 0, multiplicity = 1:

       Center              X                  Y                   Z               Mass
    ------------   -----------------  -----------------  -----------------  -----------------
         S            1.824503849983     0.712061203790    -0.338373339921    31.972071174400
         O           -1.832939150017    -0.945377796210    -0.797342339921    15.994914619570
         O            0.504442849983    -1.072382796210     1.117414660079    15.994914619570
         C           -0.817057150017     0.822933203790     0.478386660079    12.000000000000
         C           -3.372970150017     0.584961203790     0.240173660079    12.000000000000
         C           -1.999363150017     0.041574203790    -0.092263339921    12.000000000000
         C            0.442877849983    -0.014489796210     0.511160660079    12.000000000000
         C           -4.501400150017    -0.289990796210    -0.281694339921    12.000000000000
         C            2.930870449983    -0.426180396210    -0.042156439921    12.000000000000
         C            4.453559849983    -0.057456796210    -0.371266339921    12.000000000000
         H           -0.683931150017     1.735373203790    -0.117442339921     1.007825032230
         H           -1.037144150017     1.140060203790     1.504443660079     1.007825032230
         H           -3.442532150017     0.712974203790     1.328230660079     1.007825032230
         H           -3.433990150017     1.600586203790    -0.179865339921     1.007825032230
         H           -5.471606150017     0.155209203790    -0.047328339921     1.007825032230
         H           -4.422414150017    -0.414114796210    -1.363345339921     1.007825032230
         H           -4.455886150017    -1.283857796210     0.169651660079     1.007825032230
         H            3.006732849983    -0.819247796210     1.052771660079     1.007825032230
         H            2.812783849983    -1.463576796210    -0.573210339921     1.007825032230
         H            4.511585849983     0.213969203790    -1.428314339921     1.007825032230
         H            4.718908849983     0.819148203790     0.224185660079     1.007825032230
         H            5.196435849983    -0.837098796210    -0.181931339921     1.007825032230

  Basis Set: AUG-CC-PVTZ
    Blend: AUG-CC-PVTZ
  Basis Set: (AUG-CC-PVTZ AUX)
    Blend: AUG-CC-PVTZ-JKFIT
	 Reference Energy          =    -819.4548079682340358 [Eh]
	 Singles Energy            =      -0.0000000000000000 [Eh]
	 Same-Spin Energy          =      -0.4870310159595252 [Eh]
	 Opposite-Spin Energy      =      -1.5746641293399262 [Eh]
	 Correlation Energy        =      -2.0616951452994514 [Eh]
	 Total Energy              =    -821.5165031135335312 [Eh]

	 ================> DF-SCS-MP2 Energies <==================
	-----------------------------------------------------------
	 SCS Same-Spin Scale       =       0.3333333333333333 [-]
	 SCS Opposite-Spin Scale   =       1.2000000000000000 [-]
	 SCS Same-Spin Energy      =      -0.1623436719865084 [Eh]
	 SCS Opposite-Spin Energy  =      -1.8895969552079113 [Eh]
	 SCS Correlation Energy    =      -2.0519406271944196 [Eh]
	 SCS Total Energy          =    -821.5067485954284621 [Eh]
	-----------------------------------------------------------

  Dipole Moment: [D]
     X:    -0.2020      Y:     2.9499      Z:     0.6889     Total:     3.0359

*** Psi4 exiting successfully. Buy a developer a beer!
