                               Psi4 1.3.2 release

  ==> Input File <==

--------------------------------------------------------------------------
#psi4
#
memory 32 gb

molecule  {
0 1
  S        1.8483089     0.6731208    -0.3257783
  O       -1.8432130    -0.9348080    -0.8000930
  O        0.4941690    -1.0618130     1.1146640
  C       -0.8517851     0.7961497     0.5038580
  C       -3.3832440     0.5955310     0.2374230
  C       -2.0096370     0.0521440    -0.0950140
  C        0.4326040    -0.0039200     0.5084100
  C       -4.5116740    -0.2794210    -0.2844450
  C        3.0576300    -0.5565920    -0.0082180
  C        4.4432860    -0.0468870    -0.3740170
  H       -0.6942050     1.7459430    -0.1201930
  H       -1.0474180     1.1506300     1.5016930
  H       -3.4528060     0.7235440     1.3254800
  H       -3.4442640     1.6111560    -0.1826160
  H       -5.4818800     0.1657790    -0.0500790
  H       -4.4326880    -0.4035450    -1.3660960
  H       -4.4661600    -1.2732880     0.1669010
  H        2.9964590    -0.8086780     1.0500210
  H        2.8025100    -1.4530070    -0.5759610
  H        4.5013120     0.2245390    -1.4310650
  H        4.7086350     0.8297180     0.2214350
  H        5.1861620    -0.8265290    -0.1846820
units angstrom
no_reorient  #important for SAPT in psi4, default
symmetry c1  #important for SAPT in psi4, default
}

set PROPERTIES_ORIGIN ["COM"]
properties('MP2/aug-cc-pvtz', properties = ['dipole'])
--------------------------------------------------------------------------

    Molecular point group: c1
  Charge       = 0
  Multiplicity = 1
  Basis Set: AUG-CC-PVTZ
    Blend: AUG-CC-PVTZ
  Basis Set: (AUG-CC-PVTZ AUX)
    Blend: AUG-CC-PVTZ-JKFIT

    Orbital Energies [Eh]
    ---------------------

    Doubly Occupied:

       1A    -91.970281     2A    -20.554992     3A    -20.553619
       4A    -11.366728     5A    -11.345131     6A    -11.269633
       7A    -11.258255     8A    -11.249690     9A    -11.232909
      10A    -11.222270    11A     -8.972905    12A     -6.654121
      13A     -6.653080    14A     -6.652346    15A     -1.398055
      16A     -1.384221    17A     -1.101267    18A     -1.081933
      19A     -1.042408    20A     -0.973746    21A     -0.897577
      22A     -0.839440    23A     -0.762947    24A     -0.726228
      25A     -0.681211    26A     -0.669715    27A     -0.650370
      28A     -0.639402    29A     -0.636654    30A     -0.609947
      31A     -0.590272    32A     -0.557295    33A     -0.546925
      34A     -0.533841    35A     -0.529520    36A     -0.521548
      37A     -0.510280    38A     -0.504958    39A     -0.487513
      40A     -0.471510    41A     -0.430469    42A     -0.406969
      43A     -0.367930

  @DF-RHF Final Energy:  -819.49032462688979

   => Energetics <=

    Nuclear Repulsion Energy =            604.9642402069730451
    One-Electron Energy =               -2325.8889086336157561
    Two-Electron Energy =                 901.4343437997529236
    Total Energy =                       -819.4903246268897874
  Basis Set: (AUG-CC-PVTZ AUX)
    Blend: AUG-CC-PVTZ-RI
    Molecular point group: c1

    Geometry (in Angstrom), charge = 0, multiplicity = 1:

       Center              X                  Y                   Z               Mass
    ------------   -----------------  -----------------  -----------------  -----------------
         S            1.843334788933     0.685811391852    -0.330959667415    31.972071174400
         O           -1.848187111067    -0.922117408148    -0.805274367415    15.994914619570
         O            0.489194888933    -1.049122408148     1.109482632585    15.994914619570
         C           -0.856759211067     0.808840291852     0.498676632585    12.000000000000
         C           -3.388218111067     0.608221591852     0.232241632585    12.000000000000
         C           -2.014611111067     0.064834591852    -0.100195367415    12.000000000000
         C            0.427629888933     0.008770591852     0.503228632585    12.000000000000
         C           -4.516648111067    -0.266730408148    -0.289626367415    12.000000000000
         C            3.052655888933    -0.543901408148    -0.013399367415    12.000000000000
         C            4.438311888933    -0.034196408148    -0.379198367415    12.000000000000
         H           -0.699179111067     1.758633591852    -0.125374367415     1.007825032230
         H           -1.052392111067     1.163320591852     1.496511632585     1.007825032230
         H           -3.457780111067     0.736234591852     1.320298632585     1.007825032230
         H           -3.449238111067     1.623846591852    -0.187797367415     1.007825032230
         H           -5.486854111067     0.178469591852    -0.055260367415     1.007825032230
         H           -4.437662111067    -0.390854408148    -1.371277367415     1.007825032230
         H           -4.471134111067    -1.260597408148     0.161719632585     1.007825032230
         H            2.991484888933    -0.795987408148     1.044839632585     1.007825032230
         H            2.797535888933    -1.440316408148    -0.581142367415     1.007825032230
         H            4.496337888933     0.237229591852    -1.436246367415     1.007825032230
         H            4.703660888933     0.842408591852     0.216253632585     1.007825032230
         H            5.181187888933    -0.813838408148    -0.189863367415     1.007825032230

  Basis Set: AUG-CC-PVTZ
    Blend: AUG-CC-PVTZ
  Basis Set: (AUG-CC-PVTZ AUX)
    Blend: AUG-CC-PVTZ-JKFIT
	 Reference Energy          =    -819.4903246268897874 [Eh]
	 Singles Energy            =      -0.0000000000000000 [Eh]
	 Same-Spin Energy          =      -0.4846339583765550 [Eh]
	 Opposite-Spin Energy      =      -1.5709486247262703 [Eh]
	 Correlation Energy        =      -2.0555825831028254 [Eh]
	 Total Energy              =    -821.5459072099926061 [Eh]

	 ================> DF-SCS-MP2 Energies <==================
	-----------------------------------------------------------
	 SCS Same-Spin Scale       =       0.3333333333333333 [-]
	 SCS Opposite-Spin Scale   =       1.2000000000000000 [-]
	 SCS Same-Spin Energy      =      -0.1615446527921850 [Eh]
	 SCS Opposite-Spin Energy  =      -1.8851383496715242 [Eh]
	 SCS Correlation Energy    =      -2.0466830024637090 [Eh]
	 SCS Total Energy          =    -821.5370076293535249 [Eh]
	-----------------------------------------------------------

  Dipole Moment: [D]
     X:     0.0758      Y:     2.8341      Z:     0.7236     Total:     2.9260

*** Psi4 exiting successfully. Buy a developer a beer!
