                               Psi4 1.4a3.dev225

  ==> Input File <==

--------------------------------------------------------------------------
#psi4
#
memory 32 gb

molecule  {
0 1
  S        1.5586770    -0.2994370    -0.7152220
  O       -1.5255240    -0.4876820     1.0921970
  O        0.7924220     1.7006740     0.8461850
  C       -0.8878030     0.9736540    -0.7120840
  C       -3.2304390    -0.0998550    -0.5631210
  C       -1.8542380     0.0638590     0.0480780
  C        0.4739890     0.9361982    -0.0803155
  C       -4.1634610    -0.9398430     0.2972900
  C        2.9497330    -0.0790050     0.4324980
  C        4.0540790    -1.0751370     0.1033520
  H       -0.8484610     0.6756560    -1.7668750
  H       -1.2645150     2.0025910    -0.6674260
  H       -3.6447290     0.9013370    -0.7419330
  H       -3.1015980    -0.5455960    -1.5588690
  H       -5.1413450    -1.0357370    -0.1813640
  H       -3.7504260    -1.9381500     0.4523140
  H       -4.2995020    -0.4825820     1.2793320
  H        3.3022180     0.9509290     0.3487650
  H        2.5726230    -0.2199470     1.4475820
  H        3.7004310    -2.1050230     0.1947960
  H        4.4320470    -0.9299840    -0.9117720
  H        4.8873260    -0.9394890     0.7982930
units angstrom
no_reorient  #important for SAPT in psi4, default
symmetry c1  #important for SAPT in psi4, default
}

set PROPERTIES_ORIGIN ["COM"]
properties('MP2/aug-cc-pvtz', properties = ['dipole'])
--------------------------------------------------------------------------

    Molecular point group: c1
  Charge       = 0
  Multiplicity = 1
  Basis Set: AUG-CC-PVTZ
    Blend: AUG-CC-PVTZ
  Basis Set: (AUG-CC-PVTZ AUX)
    Blend: AUG-CC-PVTZ-JKFIT

    Orbital Energies [Eh]
    ---------------------

    Doubly Occupied:

       1A    -91.970580     2A    -20.559490     3A    -20.551987
       4A    -11.366153     5A    -11.350270     6A    -11.266607
       7A    -11.262462     8A    -11.252651     9A    -11.230807
      10A    -11.224701    11A     -8.972429    12A     -6.653642
      13A     -6.652486    14A     -6.651866    15A     -1.394028
      16A     -1.374176    17A     -1.095157    18A     -1.077799
      19A     -1.045054    20A     -0.971920    21A     -0.898521
      22A     -0.837522    23A     -0.761662    24A     -0.726239
      25A     -0.678731    26A     -0.669453    27A     -0.647259
      28A     -0.635073    29A     -0.632816    30A     -0.609928
      31A     -0.590779    32A     -0.558489    33A     -0.544256
      34A     -0.529199    35A     -0.526391    36A     -0.522249
      37A     -0.512413    38A     -0.501024    39A     -0.493999
      40A     -0.463900    41A     -0.432429    42A     -0.408749
      43A     -0.368875

  @DF-RHF Final Energy:  -819.49284833586398

   => Energetics <=

    Nuclear Repulsion Energy =            610.2246141912781923
    One-Electron Energy =               -2336.4864807005496914
    Two-Electron Energy =                 906.7690181734074031
    Total Energy =                       -819.4928483358639824
  Basis Set: (AUG-CC-PVTZ AUX)
    Blend: AUG-CC-PVTZ-RI
    Molecular point group: c1

    Geometry (in Angstrom), charge = 0, multiplicity = 1:

       Center              X                  Y                   Z               Mass
    ------------   -----------------  -----------------  -----------------  -----------------
         S            1.539746590683    -0.321253486822    -0.722270231612    31.972071174400
         O           -1.544454409317    -0.509498486822     1.085148768388    15.994914619570
         O            0.773491590683     1.678857513178     0.839136768388    15.994914619570
         C           -0.906733409317     0.951837513178    -0.719132231612    12.000000000000
         C           -3.249369409317    -0.121671486822    -0.570169231612    12.000000000000
         C           -1.873168409317     0.042042513178     0.041029768388    12.000000000000
         C            0.455058590683     0.914381713178    -0.087363731612    12.000000000000
         C           -4.182391409317    -0.961659486822     0.290241768388    12.000000000000
         C            2.930802590683    -0.100821486822     0.425449768388    12.000000000000
         C            4.035148590683    -1.096953486822     0.096303768388    12.000000000000
         H           -0.867391409317     0.653839513178    -1.773923231612     1.007825032230
         H           -1.283445409317     1.980774513178    -0.674474231612     1.007825032230
         H           -3.663659409317     0.879520513178    -0.748981231612     1.007825032230
         H           -3.120528409317    -0.567412486822    -1.565917231612     1.007825032230
         H           -5.160275409317    -1.057553486822    -0.188412231612     1.007825032230
         H           -3.769356409317    -1.959966486822     0.445265768388     1.007825032230
         H           -4.318432409317    -0.504398486822     1.272283768388     1.007825032230
         H            3.283287590683     0.929112513178     0.341716768388     1.007825032230
         H            2.553692590683    -0.241763486822     1.440533768388     1.007825032230
         H            3.681500590683    -2.126839486822     0.187747768388     1.007825032230
         H            4.413116590683    -0.951800486822    -0.918820231612     1.007825032230
         H            4.868395590683    -0.961305486822     0.791244768388     1.007825032230

  Basis Set: AUG-CC-PVTZ
    Blend: AUG-CC-PVTZ
  Basis Set: (AUG-CC-PVTZ AUX)
    Blend: AUG-CC-PVTZ-JKFIT
	 Reference Energy          =    -819.4928483358639824 [Eh]
	 Singles Energy            =      -0.0000000000000000 [Eh]
	 Same-Spin Energy          =      -0.4851678412274393 [Eh]
	 Opposite-Spin Energy      =      -1.5725883335550273 [Eh]
	 Correlation Energy        =      -2.0577561747824666 [Eh]
	 Total Energy              =    -821.5506045106463944 [Eh]

	 ================> DF-SCS-MP2 Energies <==================
	-----------------------------------------------------------
	 SCS Same-Spin Scale       =       0.3333333333333333 [-]
	 SCS Opposite-Spin Scale   =       1.2000000000000000 [-]
	 SCS Same-Spin Energy      =      -0.1617226137424798 [Eh]
	 SCS Opposite-Spin Energy  =      -1.8871060002660327 [Eh]
	 SCS Correlation Energy    =      -2.0488286140085123 [Eh]
	 SCS Total Energy          =    -821.5416769498724534 [Eh]
	-----------------------------------------------------------

  Dipole Moment: [D]
     X:    -0.7150      Y:    -0.3119      Z:    -2.7528     Total:     2.8612

*** Psi4 exiting successfully. Buy a developer a beer!
