                               Psi4 1.3.2 release

  ==> Input File <==

--------------------------------------------------------------------------
#psi4
#
memory 32 gb

molecule  {
0 1
  S        1.8454648     0.7615704    -0.3021309
  O       -1.8432130    -0.9348080    -0.8000930
  O        0.4941690    -1.0618130     1.1146640
  C       -0.8273310     0.8335030     0.4756360
  C       -3.3832440     0.5955310     0.2374230
  C       -2.0096370     0.0521440    -0.0950140
  C        0.4326040    -0.0039200     0.5084100
  C       -4.5116740    -0.2794210    -0.2844450
  C        3.0576300    -0.5565920    -0.0082180
  C        4.4432860    -0.0468870    -0.3740170
  H       -0.6942050     1.7459430    -0.1201930
  H       -1.0474180     1.1506300     1.5016930
  H       -3.4528060     0.7235440     1.3254800
  H       -3.4442640     1.6111560    -0.1826160
  H       -5.4818800     0.1657790    -0.0500790
  H       -4.4326880    -0.4035450    -1.3660960
  H       -4.4661600    -1.2732880     0.1669010
  H        2.9964590    -0.8086780     1.0500210
  H        2.8332860    -1.4701409    -0.5614597
  H        4.5013120     0.2245390    -1.4310650
  H        4.7086350     0.8297180     0.2214350
  H        5.1861620    -0.8265290    -0.1846820
units angstrom
no_reorient  #important for SAPT in psi4, default
symmetry c1  #important for SAPT in psi4, default
}

set PROPERTIES_ORIGIN ["COM"]
properties('MP2/aug-cc-pvtz', properties = ['dipole'])
--------------------------------------------------------------------------

    Molecular point group: c1
  Charge       = 0
  Multiplicity = 1
  Basis Set: AUG-CC-PVTZ
    Blend: AUG-CC-PVTZ
  Basis Set: (AUG-CC-PVTZ AUX)
    Blend: AUG-CC-PVTZ-JKFIT

    Orbital Energies [Eh]
    ---------------------

    Doubly Occupied:

       1A    -91.973075     2A    -20.557773     3A    -20.556044
       4A    -11.369937     5A    -11.346574     6A    -11.267606
       7A    -11.261780     8A    -11.250231     9A    -11.230302
      10A    -11.222577    11A     -8.974159    12A     -6.655285
      13A     -6.654156    14A     -6.653542    15A     -1.398427
      16A     -1.384761    17A     -1.092516    18A     -1.077221
      19A     -1.042735    20A     -0.969061    21A     -0.896271
      22A     -0.835785    23A     -0.761375    24A     -0.728042
      25A     -0.678553    26A     -0.668511    27A     -0.648559
      28A     -0.636835    29A     -0.633349    30A     -0.608826
      31A     -0.595823    32A     -0.559422    33A     -0.545441
      34A     -0.533070    35A     -0.524855    36A     -0.520918
      37A     -0.511788    38A     -0.504551    39A     -0.489187
      40A     -0.466705    41A     -0.430510    42A     -0.405647
      43A     -0.371232

  @DF-RHF Final Energy:  -819.49307575263333

   => Energetics <=

    Nuclear Repulsion Energy =            602.3924884680135392
    One-Electron Energy =               -2320.7850916415281972
    Two-Electron Energy =                 898.8995274208812134
    Total Energy =                       -819.4930757526333309
  Basis Set: (AUG-CC-PVTZ AUX)
    Blend: AUG-CC-PVTZ-RI
    Molecular point group: c1

    Geometry (in Angstrom), charge = 0, multiplicity = 1:

       Center              X                  Y                   Z               Mass
    ------------   -----------------  -----------------  -----------------  -----------------
         S            1.839031608698     0.753900039504    -0.310011370646    31.972071174400
         O           -1.849646191302    -0.942478360496    -0.807973470646    15.994914619570
         O            0.487735808698    -1.069483360496     1.106783529354    15.994914619570
         C           -0.833764191302     0.825832639504     0.467755529354    12.000000000000
         C           -3.389677191302     0.587860639504     0.229542529354    12.000000000000
         C           -2.016070191302     0.044473639504    -0.102894470646    12.000000000000
         C            0.426170808698    -0.011590360496     0.500529529354    12.000000000000
         C           -4.518107191302    -0.287091360496    -0.292325470646    12.000000000000
         C            3.051196808698    -0.564262360496    -0.016098470646    12.000000000000
         C            4.436852808698    -0.054557360496    -0.381897470646    12.000000000000
         H           -0.700638191302     1.738272639504    -0.128073470646     1.007825032230
         H           -1.053851191302     1.142959639504     1.493812529354     1.007825032230
         H           -3.459239191302     0.715873639504     1.317599529354     1.007825032230
         H           -3.450697191302     1.603485639504    -0.190496470646     1.007825032230
         H           -5.488313191302     0.158108639504    -0.057959470646     1.007825032230
         H           -4.439121191302    -0.411215360496    -1.373976470646     1.007825032230
         H           -4.472593191302    -1.280958360496     0.159020529354     1.007825032230
         H            2.990025808698    -0.816348360496     1.042140529354     1.007825032230
         H            2.826852808698    -1.477811260496    -0.569340170646     1.007825032230
         H            4.494878808698     0.216868639504    -1.438945470646     1.007825032230
         H            4.702201808698     0.822047639504     0.213554529354     1.007825032230
         H            5.179728808698    -0.834199360496    -0.192562470646     1.007825032230

  Basis Set: AUG-CC-PVTZ
    Blend: AUG-CC-PVTZ
  Basis Set: (AUG-CC-PVTZ AUX)
    Blend: AUG-CC-PVTZ-JKFIT
	 Reference Energy          =    -819.4930757526333309 [Eh]
	 Singles Energy            =      -0.0000000000000000 [Eh]
	 Same-Spin Energy          =      -0.4841681600446500 [Eh]
	 Opposite-Spin Energy      =      -1.5714155154079887 [Eh]
	 Correlation Energy        =      -2.0555836754526386 [Eh]
	 Total Energy              =    -821.5486594280860118 [Eh]

	 ================> DF-SCS-MP2 Energies <==================
	-----------------------------------------------------------
	 SCS Same-Spin Scale       =       0.3333333333333333 [-]
	 SCS Opposite-Spin Scale   =       1.2000000000000000 [-]
	 SCS Same-Spin Energy      =      -0.1613893866815500 [Eh]
	 SCS Opposite-Spin Energy  =      -1.8856986184895863 [Eh]
	 SCS Correlation Energy    =      -2.0470880051711364 [Eh]
	 SCS Total Energy          =    -821.5401637578045211 [Eh]
	-----------------------------------------------------------

  Dipole Moment: [D]
     X:    -0.1210      Y:     2.7970      Z:     0.7174     Total:     2.8900

*** Psi4 exiting successfully. Buy a developer a beer!
