                               Psi4 1.4a3.dev225

  ==> Input File <==

--------------------------------------------------------------------------
#psi4
#
memory 32 gb

molecule  {
0 1
  S        1.5586770    -0.2994370    -0.7152220
  O       -1.5255240    -0.4876820     1.0921970
  O        0.7924220     1.7006740     0.8461850
  C       -0.8878030     0.9736540    -0.7120840
  C       -3.2304390    -0.0998550    -0.5631210
  C       -1.8542380     0.0638590     0.0480780
  C        0.4791140     0.9485020    -0.0654040
  C       -4.1634610    -0.9398430     0.2972900
  C        2.9497330    -0.0790050     0.4324980
  C        4.0540790    -1.0751370     0.1033520
  H       -0.8466675     0.6620709    -1.8149606
  H       -1.2645150     2.0025910    -0.6674260
  H       -3.6447290     0.9013370    -0.7419330
  H       -3.1015980    -0.5455960    -1.5588690
  H       -5.1413450    -1.0357370    -0.1813640
  H       -3.7504260    -1.9381500     0.4523140
  H       -4.2995020    -0.4825820     1.2793320
  H        3.3022180     0.9509290     0.3487650
  H        2.5726230    -0.2199470     1.4475820
  H        3.7004310    -2.1050230     0.1947960
  H        4.4320470    -0.9299840    -0.9117720
  H        4.8873260    -0.9394890     0.7982930
units angstrom
no_reorient  #important for SAPT in psi4, default
symmetry c1  #important for SAPT in psi4, default
}

set PROPERTIES_ORIGIN ["COM"]
properties('MP2/aug-cc-pvtz', properties = ['dipole'])
--------------------------------------------------------------------------

    Molecular point group: c1
  Charge       = 0
  Multiplicity = 1
  Basis Set: AUG-CC-PVTZ
    Blend: AUG-CC-PVTZ
  Basis Set: (AUG-CC-PVTZ AUX)
    Blend: AUG-CC-PVTZ-JKFIT

    Orbital Energies [Eh]
    ---------------------

    Doubly Occupied:

       1A    -91.968409     2A    -20.559537     3A    -20.555417
       4A    -11.365870     5A    -11.350252     6A    -11.271953
       7A    -11.261486     8A    -11.252300     9A    -11.230034
      10A    -11.224492    11A     -8.970182    12A     -6.651372
      13A     -6.650229    14A     -6.649591    15A     -1.397122
      16A     -1.385942    17A     -1.092208    18A     -1.076479
      19A     -1.042010    20A     -0.969409    21A     -0.897602
      22A     -0.835838    23A     -0.761188    24A     -0.724250
      25A     -0.677509    26A     -0.667363    27A     -0.649573
      28A     -0.636710    29A     -0.632410    30A     -0.609942
      31A     -0.587573    32A     -0.559797    33A     -0.545313
      34A     -0.531031    35A     -0.526370    36A     -0.522275
      37A     -0.511736    38A     -0.504556    39A     -0.493825
      40A     -0.462721    41A     -0.432280    42A     -0.406873
      43A     -0.368055

  @DF-RHF Final Energy:  -819.49339265996184

   => Energetics <=

    Nuclear Repulsion Energy =            609.9764062362288541
    One-Electron Energy =               -2336.0014313876904453
    Two-Electron Energy =                 906.5316324914998631
    Total Energy =                       -819.4933926599618417
  Basis Set: (AUG-CC-PVTZ AUX)
    Blend: AUG-CC-PVTZ-RI
    Molecular point group: c1

    Geometry (in Angstrom), charge = 0, multiplicity = 1:

       Center              X                  Y                   Z               Mass
    ------------   -----------------  -----------------  -----------------  -----------------
         S            1.539351056539    -0.322090408667    -0.723085423114    31.972071174400
         O           -1.544849943461    -0.510335408667     1.084333576886    15.994914619570
         O            0.773096056539     1.678020591333     0.838321576886    15.994914619570
         C           -0.907128943461     0.951000591333    -0.719947423114    12.000000000000
         C           -3.249764943461    -0.122508408667    -0.570984423114    12.000000000000
         C           -1.873563943461     0.041205591333     0.040214576886    12.000000000000
         C            0.459788056539     0.925848591333    -0.073267423114    12.000000000000
         C           -4.182786943461    -0.962496408667     0.289426576886    12.000000000000
         C            2.930407056539    -0.101658408667     0.424634576886    12.000000000000
         C            4.034753056539    -1.097790408667     0.095488576886    12.000000000000
         H           -0.865993443461     0.639417491333    -1.822824023114     1.007825032230
         H           -1.283840943461     1.979937591333    -0.675289423114     1.007825032230
         H           -3.664054943461     0.878683591333    -0.749796423114     1.007825032230
         H           -3.120923943461    -0.568249408667    -1.566732423114     1.007825032230
         H           -5.160670943461    -1.058390408667    -0.189227423114     1.007825032230
         H           -3.769751943461    -1.960803408667     0.444450576886     1.007825032230
         H           -4.318827943461    -0.505235408667     1.271468576886     1.007825032230
         H            3.282892056539     0.928275591333     0.340901576886     1.007825032230
         H            2.553297056539    -0.242600408667     1.439718576886     1.007825032230
         H            3.681105056539    -2.127676408667     0.186932576886     1.007825032230
         H            4.412721056539    -0.952637408667    -0.919635423114     1.007825032230
         H            4.868000056539    -0.962142408667     0.790429576886     1.007825032230

  Basis Set: AUG-CC-PVTZ
    Blend: AUG-CC-PVTZ
  Basis Set: (AUG-CC-PVTZ AUX)
    Blend: AUG-CC-PVTZ-JKFIT
	 Reference Energy          =    -819.4933926599618417 [Eh]
	 Singles Energy            =      -0.0000000000000000 [Eh]
	 Same-Spin Energy          =      -0.4846277488497400 [Eh]
	 Opposite-Spin Energy      =      -1.5717950388866531 [Eh]
	 Correlation Energy        =      -2.0564227877363930 [Eh]
	 Total Energy              =    -821.5498154476982791 [Eh]

	 ================> DF-SCS-MP2 Energies <==================
	-----------------------------------------------------------
	 SCS Same-Spin Scale       =       0.3333333333333333 [-]
	 SCS Opposite-Spin Scale   =       1.2000000000000000 [-]
	 SCS Same-Spin Energy      =      -0.1615425829499133 [Eh]
	 SCS Opposite-Spin Energy  =      -1.8861540466639837 [Eh]
	 SCS Correlation Energy    =      -2.0476966296138972 [Eh]
	 SCS Total Energy          =    -821.5410892895757797 [Eh]
	-----------------------------------------------------------

  Dipole Moment: [D]
     X:    -0.7476      Y:    -0.2134      Z:    -2.6821     Total:     2.7925

*** Psi4 exiting successfully. Buy a developer a beer!
