                               Psi4 1.3.2 release

  ==> Input File <==

--------------------------------------------------------------------------
#psi4
#
memory 32 gb

molecule  {
0 1
  S        1.8142300     0.7226310    -0.3411240
  O       -1.8432130    -0.9348080    -0.8000930
  O        0.4941690    -1.0618130     1.1146640
  C       -0.8273310     0.8335030     0.4756360
  C       -3.3832440     0.5955310     0.2374230
  C       -2.0096370     0.0521440    -0.0950140
  C        0.5880866     0.0778431     0.4128069
  C       -4.5116740    -0.2794210    -0.2844450
  C        3.0576300    -0.5565920    -0.0082180
  C        4.4432860    -0.0468870    -0.3740170
  H       -0.6942050     1.7459430    -0.1201930
  H       -1.0474180     1.1506300     1.5016930
  H       -3.4528060     0.7235440     1.3254800
  H       -3.4442640     1.6111560    -0.1826160
  H       -5.4818800     0.1657790    -0.0500790
  H       -4.4326880    -0.4035450    -1.3660960
  H       -4.4661600    -1.2732880     0.1669010
  H        2.9964590    -0.8086780     1.0500210
  H        2.8025100    -1.4530070    -0.5759610
  H        4.5013120     0.2245390    -1.4310650
  H        4.7086350     0.8297180     0.2214350
  H        5.1861620    -0.8265290    -0.1846820
units angstrom
no_reorient  #important for SAPT in psi4, default
symmetry c1  #important for SAPT in psi4, default
}

set PROPERTIES_ORIGIN ["COM"]
properties('MP2/aug-cc-pvtz', properties = ['dipole'])
--------------------------------------------------------------------------

    Molecular point group: c1
  Charge       = 0
  Multiplicity = 1
  Basis Set: AUG-CC-PVTZ
    Blend: AUG-CC-PVTZ
  Basis Set: (AUG-CC-PVTZ AUX)
    Blend: AUG-CC-PVTZ-JKFIT

    Orbital Energies [Eh]
    ---------------------

    Doubly Occupied:

       1A    -91.995035     2A    -20.545998     3A    -20.526245
       4A    -11.362697     5A    -11.338133     6A    -11.275019
       7A    -11.266138     8A    -11.244845     9A    -11.241396
      10A    -11.218138    11A     -9.001256    12A     -6.682951
      13A     -6.680839    14A     -6.680517    15A     -1.379078
      16A     -1.305864    17A     -1.127670    18A     -1.069964
      19A     -1.039375    20A     -0.998056    21A     -0.889473
      22A     -0.855755    23A     -0.751341    24A     -0.718509
      25A     -0.666135    26A     -0.653197    27A     -0.648174
      28A     -0.636689    29A     -0.621089    30A     -0.595183
      31A     -0.587320    32A     -0.551259    33A     -0.547078
      34A     -0.534370    35A     -0.525936    36A     -0.516683
      37A     -0.507616    38A     -0.490487    39A     -0.478604
      40A     -0.469292    41A     -0.418604    42A     -0.405244
      43A     -0.380726

  @DF-RHF Final Energy:  -819.44082371857564

   => Energetics <=

    Nuclear Repulsion Energy =            604.0532720467518857
    One-Electron Energy =               -2324.1322377437709292
    Two-Electron Energy =                 900.6381419784435138
    Total Energy =                       -819.4408237185756434
  Basis Set: (AUG-CC-PVTZ AUX)
    Blend: AUG-CC-PVTZ-RI
    Molecular point group: c1

    Geometry (in Angstrom), charge = 0, multiplicity = 1:

       Center              X                  Y                   Z               Mass
    ------------   -----------------  -----------------  -----------------  -----------------
         S            1.802572798547     0.716501027879    -0.333956330375    31.972071174400
         O           -1.854870201453    -0.940937972121    -0.792925330375    15.994914619570
         O            0.482511798547    -1.067942972121     1.121831669625    15.994914619570
         C           -0.838988201453     0.827373027879     0.482803669625    12.000000000000
         C           -3.394901201453     0.589401027879     0.244590669625    12.000000000000
         C           -2.021294201453     0.046014027879    -0.087846330375    12.000000000000
         C            0.576429398547     0.071713127879     0.419974569625    12.000000000000
         C           -4.523331201453    -0.285550972121    -0.277277330375    12.000000000000
         C            3.045972798547    -0.562721972121    -0.001050330375    12.000000000000
         C            4.431628798547    -0.053016972121    -0.366849330375    12.000000000000
         H           -0.705862201453     1.739813027879    -0.113025330375     1.007825032230
         H           -1.059075201453     1.144500027879     1.508860669625     1.007825032230
         H           -3.464463201453     0.717414027879     1.332647669625     1.007825032230
         H           -3.455921201453     1.605026027879    -0.175448330375     1.007825032230
         H           -5.493537201453     0.159649027879    -0.042911330375     1.007825032230
         H           -4.444345201453    -0.409674972121    -1.358928330375     1.007825032230
         H           -4.477817201453    -1.279417972121     0.174068669625     1.007825032230
         H            2.984801798547    -0.814807972121     1.057188669625     1.007825032230
         H            2.790852798547    -1.459136972121    -0.568793330375     1.007825032230
         H            4.489654798547     0.218409027879    -1.423897330375     1.007825032230
         H            4.696977798547     0.823588027879     0.228602669625     1.007825032230
         H            5.174504798547    -0.832658972121    -0.177514330375     1.007825032230

  Basis Set: AUG-CC-PVTZ
    Blend: AUG-CC-PVTZ
  Basis Set: (AUG-CC-PVTZ AUX)
    Blend: AUG-CC-PVTZ-JKFIT
	 Reference Energy          =    -819.4408237185756434 [Eh]
	 Singles Energy            =      -0.0000000000000000 [Eh]
	 Same-Spin Energy          =      -0.4889122457376512 [Eh]
	 Opposite-Spin Energy      =      -1.5794050401355313 [Eh]
	 Correlation Energy        =      -2.0683172858731824 [Eh]
	 Total Energy              =    -821.5091410044487930 [Eh]

	 ================> DF-SCS-MP2 Energies <==================
	-----------------------------------------------------------
	 SCS Same-Spin Scale       =       0.3333333333333333 [-]
	 SCS Opposite-Spin Scale   =       1.2000000000000000 [-]
	 SCS Same-Spin Energy      =      -0.1629707485792171 [Eh]
	 SCS Opposite-Spin Energy  =      -1.8952860481626375 [Eh]
	 SCS Correlation Energy    =      -2.0582567967418544 [Eh]
	 SCS Total Energy          =    -821.4990805153174733 [Eh]
	-----------------------------------------------------------

  Dipole Moment: [D]
     X:     1.4590      Y:     3.3566      Z:     0.0020     Total:     3.6600

*** Psi4 exiting successfully. Buy a developer a beer!
