                               Psi4 1.3.2 release

  ==> Input File <==

--------------------------------------------------------------------------
#psi4
#
memory 32 gb

molecule  {
0 1
  S        1.7702296     0.6613149    -0.3988385
  O       -1.8432130    -0.9348080    -0.8000930
  O        0.4941690    -1.0618130     1.1146640
  C       -0.8273310     0.8335030     0.4756360
  C       -3.3832440     0.5955310     0.2374230
  C       -2.0096370     0.0521440    -0.0950140
  C        0.4326040    -0.0039200     0.5084100
  C       -4.5116740    -0.2794210    -0.2844450
  C        3.0576300    -0.5565920    -0.0082180
  C        4.4432860    -0.0468870    -0.3740170
  H       -0.6942050     1.7459430    -0.1201930
  H       -1.0474180     1.1506300     1.5016930
  H       -3.4528060     0.7235440     1.3254800
  H       -3.4442640     1.6111560    -0.1826160
  H       -5.4818800     0.1657790    -0.0500790
  H       -4.4326880    -0.4035450    -1.3660960
  H       -4.4661600    -1.2732880     0.1669010
  H        2.9964590    -0.8086780     1.0500210
  H        2.7569404    -1.4252653    -0.5964107
  H        4.5013120     0.2245390    -1.4310650
  H        4.7086350     0.8297180     0.2214350
  H        5.1861620    -0.8265290    -0.1846820
units angstrom
no_reorient  #important for SAPT in psi4, default
symmetry c1  #important for SAPT in psi4, default
}

set PROPERTIES_ORIGIN ["COM"]
properties('MP2/aug-cc-pvtz', properties = ['dipole'])
--------------------------------------------------------------------------

    Molecular point group: c1
  Charge       = 0
  Multiplicity = 1
  Basis Set: AUG-CC-PVTZ
    Blend: AUG-CC-PVTZ
  Basis Set: (AUG-CC-PVTZ AUX)
    Blend: AUG-CC-PVTZ-JKFIT

    Orbital Energies [Eh]
    ---------------------

    Doubly Occupied:

       1A    -91.970521     2A    -20.554939     3A    -20.551526
       4A    -11.364079     5A    -11.345482     6A    -11.265855
       7A    -11.263648     8A    -11.249462     9A    -11.233479
      10A    -11.221952    11A     -8.972914    12A     -6.654102
      13A     -6.652969    14A     -6.652342    15A     -1.396127
      16A     -1.382942    17A     -1.096105    18A     -1.077119
      19A     -1.042699    20A     -0.976036    21A     -0.896128
      22A     -0.840452    23A     -0.758307    24A     -0.725313
      25A     -0.677685    26A     -0.668110    27A     -0.647649
      28A     -0.639658    29A     -0.633362    30A     -0.608438
      31A     -0.594038    32A     -0.560347    33A     -0.547580
      34A     -0.533396    35A     -0.530492    36A     -0.520622
      37A     -0.511876    38A     -0.504859    39A     -0.488066
      40A     -0.462370    41A     -0.428733    42A     -0.407171
      43A     -0.369970

  @DF-RHF Final Energy:  -819.49393058525857

   => Energetics <=

    Nuclear Repulsion Energy =            604.9081625387793792
    One-Electron Energy =               -2325.8463483945697590
    Two-Electron Energy =                 901.4442552705318121
    Total Energy =                       -819.4939305852585676
  Basis Set: (AUG-CC-PVTZ AUX)
    Blend: AUG-CC-PVTZ-RI
    Molecular point group: c1

    Geometry (in Angstrom), charge = 0, multiplicity = 1:

       Center              X                  Y                   Z               Mass
    ------------   -----------------  -----------------  -----------------  -----------------
         S            1.779305800820     0.673388586347    -0.387180992345    31.972071174400
         O           -1.834136799180    -0.922734313653    -0.788435492345    15.994914619570
         O            0.503245200820    -1.049739313653     1.126321507655    15.994914619570
         C           -0.818254799180     0.845576686347     0.487293507655    12.000000000000
         C           -3.374167799180     0.607604686347     0.249080507655    12.000000000000
         C           -2.000560799180     0.064217686347    -0.083356492345    12.000000000000
         C            0.441680200820     0.008153686347     0.520067507655    12.000000000000
         C           -4.502597799180    -0.267347313653    -0.272787492345    12.000000000000
         C            3.066706200820    -0.544518313653     0.003439507655    12.000000000000
         C            4.452362200820    -0.034813313653    -0.362359492345    12.000000000000
         H           -0.685128799180     1.758016686347    -0.108535492345     1.007825032230
         H           -1.038341799180     1.162703686347     1.513350507655     1.007825032230
         H           -3.443729799180     0.735617686347     1.337137507655     1.007825032230
         H           -3.435187799180     1.623229686347    -0.170958492345     1.007825032230
         H           -5.472803799180     0.177852686347    -0.038421492345     1.007825032230
         H           -4.423611799180    -0.391471313653    -1.354438492345     1.007825032230
         H           -4.457083799180    -1.261214313653     0.178558507655     1.007825032230
         H            3.005535200820    -0.796604313653     1.061678507655     1.007825032230
         H            2.766016600820    -1.413191613653    -0.584753192345     1.007825032230
         H            4.510388200820     0.236612686347    -1.419407492345     1.007825032230
         H            4.717711200820     0.841791686347     0.233092507655     1.007825032230
         H            5.195238200820    -0.814455313653    -0.173024492345     1.007825032230

  Basis Set: AUG-CC-PVTZ
    Blend: AUG-CC-PVTZ
  Basis Set: (AUG-CC-PVTZ AUX)
    Blend: AUG-CC-PVTZ-JKFIT
	 Reference Energy          =    -819.4939305852585676 [Eh]
	 Singles Energy            =      -0.0000000000000000 [Eh]
	 Same-Spin Energy          =      -0.4844117831831456 [Eh]
	 Opposite-Spin Energy      =      -1.5708328341197961 [Eh]
	 Correlation Energy        =      -2.0552446173029417 [Eh]
	 Total Energy              =    -821.5491752025615142 [Eh]

	 ================> DF-SCS-MP2 Energies <==================
	-----------------------------------------------------------
	 SCS Same-Spin Scale       =       0.3333333333333333 [-]
	 SCS Opposite-Spin Scale   =       1.2000000000000000 [-]
	 SCS Same-Spin Energy      =      -0.1614705943943819 [Eh]
	 SCS Opposite-Spin Energy  =      -1.8849994009437552 [Eh]
	 SCS Correlation Energy    =      -2.0464699953381369 [Eh]
	 SCS Total Energy          =    -821.5404005805967245 [Eh]
	-----------------------------------------------------------

  Dipole Moment: [D]
     X:     0.1556      Y:     2.8840      Z:     0.6400     Total:     2.9582

*** Psi4 exiting successfully. Buy a developer a beer!
