                               Psi4 1.3.2 release

  ==> Input File <==

--------------------------------------------------------------------------
#psi4
#
memory 32 gb

molecule  {
0 1
  S        1.8142300     0.7226310    -0.3411240
  O       -1.8856439    -0.9387396    -0.8033099
  O        0.4941690    -1.0618130     1.1146640
  C       -0.8618159     0.8667284     0.4990987
  C       -3.3832440     0.5955310     0.2374230
  C       -2.0096370     0.0521440    -0.0950140
  C        0.4326040    -0.0039200     0.5084100
  C       -4.5116740    -0.2794210    -0.2844450
  C        3.0576300    -0.5565920    -0.0082180
  C        4.4432860    -0.0468870    -0.3740170
  H       -0.6942050     1.7459430    -0.1201930
  H       -1.0474180     1.1506300     1.5016930
  H       -3.4528060     0.7235440     1.3254800
  H       -3.4442640     1.6111560    -0.1826160
  H       -5.4818800     0.1657790    -0.0500790
  H       -4.4326880    -0.4035450    -1.3660960
  H       -4.4661600    -1.2732880     0.1669010
  H        2.9964590    -0.8086780     1.0500210
  H        2.8025100    -1.4530070    -0.5759610
  H        4.5013120     0.2245390    -1.4310650
  H        4.7086350     0.8297180     0.2214350
  H        5.1861620    -0.8265290    -0.1846820
units angstrom
no_reorient  #important for SAPT in psi4, default
symmetry c1  #important for SAPT in psi4, default
}

set PROPERTIES_ORIGIN ["COM"]
properties('MP2/aug-cc-pvtz', properties = ['dipole'])
--------------------------------------------------------------------------

    Molecular point group: c1
  Charge       = 0
  Multiplicity = 1
  Basis Set: AUG-CC-PVTZ
    Blend: AUG-CC-PVTZ
  Basis Set: (AUG-CC-PVTZ AUX)
    Blend: AUG-CC-PVTZ-JKFIT

    Orbital Energies [Eh]
    ---------------------

    Doubly Occupied:

       1A    -91.973341     2A    -20.556862     3A    -20.556684
       4A    -11.370147     5A    -11.346033     6A    -11.267705
       7A    -11.263552     8A    -11.246158     9A    -11.232344
      10A    -11.219899    11A     -8.974903    12A     -6.656053
      13A     -6.654929    14A     -6.654312    15A     -1.397179
      16A     -1.384713    17A     -1.093489    18A     -1.077461
      19A     -1.039140    20A     -0.973477    21A     -0.893189
      22A     -0.838326    23A     -0.756158    24A     -0.729000
      25A     -0.677073    26A     -0.671556    27A     -0.645664
      28A     -0.637652    29A     -0.633810    30A     -0.610129
      31A     -0.600109    32A     -0.560269    33A     -0.546538
      34A     -0.531973    35A     -0.527702    36A     -0.519381
      37A     -0.512798    38A     -0.505830    39A     -0.489155
      40A     -0.465711    41A     -0.430221    42A     -0.403073
      43A     -0.372144

  @DF-RHF Final Energy:  -819.49162752836298

   => Energetics <=

    Nuclear Repulsion Energy =            602.3675594310718679
    One-Electron Energy =               -2320.7266913015550927
    Two-Electron Energy =                 898.8675043421202417
    Total Energy =                       -819.4916275283629830
  Basis Set: (AUG-CC-PVTZ AUX)
    Blend: AUG-CC-PVTZ-RI
    Molecular point group: c1

    Geometry (in Angstrom), charge = 0, multiplicity = 1:

       Center              X                  Y                   Z               Mass
    ------------   -----------------  -----------------  -----------------  -----------------
         S            1.821055656450     0.720532984254    -0.342561676462    31.972071174400
         O           -1.878818243550    -0.940837615746    -0.804747576462    15.994914619570
         O            0.500994656450    -1.063911015746     1.113226323538    15.994914619570
         C           -0.854990243550     0.864630384254     0.497661023538    12.000000000000
         C           -3.376418343550     0.593432984254     0.235985323538    12.000000000000
         C           -2.002811343550     0.050045984254    -0.096451676462    12.000000000000
         C            0.439429656450    -0.006018015746     0.506972323538    12.000000000000
         C           -4.504848343550    -0.281519015746    -0.285882676462    12.000000000000
         C            3.064455656450    -0.558690015746    -0.009655676462    12.000000000000
         C            4.450111656450    -0.048985015746    -0.375454676462    12.000000000000
         H           -0.687379343550     1.743844984254    -0.121630676462     1.007825032230
         H           -1.040592343550     1.148531984254     1.500255323538     1.007825032230
         H           -3.445980343550     0.721445984254     1.324042323538     1.007825032230
         H           -3.437438343550     1.609057984254    -0.184053676462     1.007825032230
         H           -5.475054343550     0.163680984254    -0.051516676462     1.007825032230
         H           -4.425862343550    -0.405643015746    -1.367533676462     1.007825032230
         H           -4.459334343550    -1.275386015746     0.165463323538     1.007825032230
         H            3.003284656450    -0.810776015746     1.048583323538     1.007825032230
         H            2.809335656450    -1.455105015746    -0.577398676462     1.007825032230
         H            4.508137656450     0.222440984254    -1.432502676462     1.007825032230
         H            4.715460656450     0.827619984254     0.219997323538     1.007825032230
         H            5.192987656450    -0.828627015746    -0.186119676462     1.007825032230

  Basis Set: AUG-CC-PVTZ
    Blend: AUG-CC-PVTZ
  Basis Set: (AUG-CC-PVTZ AUX)
    Blend: AUG-CC-PVTZ-JKFIT
	 Reference Energy          =    -819.4916275283629830 [Eh]
	 Singles Energy            =      -0.0000000000000000 [Eh]
	 Same-Spin Energy          =      -0.4840831307641213 [Eh]
	 Opposite-Spin Energy      =      -1.5710630224792244 [Eh]
	 Correlation Energy        =      -2.0551461532433457 [Eh]
	 Total Energy              =    -821.5467736816062825 [Eh]

	 ================> DF-SCS-MP2 Energies <==================
	-----------------------------------------------------------
	 SCS Same-Spin Scale       =       0.3333333333333333 [-]
	 SCS Opposite-Spin Scale   =       1.2000000000000000 [-]
	 SCS Same-Spin Energy      =      -0.1613610435880404 [Eh]
	 SCS Opposite-Spin Energy  =      -1.8852756269750692 [Eh]
	 SCS Correlation Energy    =      -2.0466366705631098 [Eh]
	 SCS Total Energy          =    -821.5382641989260719 [Eh]
	-----------------------------------------------------------

  Dipole Moment: [D]
     X:     0.2296      Y:     2.8150      Z:     0.6990     Total:     2.9096

*** Psi4 exiting successfully. Buy a developer a beer!
