                               Psi4 1.3.2 release

  ==> Input File <==

--------------------------------------------------------------------------
#psi4
#
memory 32 gb

molecule  {
0 1
  S        1.8142300     0.7226310    -0.3411240
  O       -1.8432130    -0.9348080    -0.8000930
  O        0.4941690    -1.0618130     1.1146640
  C       -0.8273310     0.8335030     0.4756360
  C       -3.3832440     0.5955310     0.2374230
  C       -1.8281982    -0.0196316    -0.1389254
  C        0.4326040    -0.0039200     0.5084100
  C       -4.5116740    -0.2794210    -0.2844450
  C        3.0576300    -0.5565920    -0.0082180
  C        4.4432860    -0.0468870    -0.3740170
  H       -0.6942050     1.7459430    -0.1201930
  H       -1.0474180     1.1506300     1.5016930
  H       -3.4528060     0.7235440     1.3254800
  H       -3.4442640     1.6111560    -0.1826160
  H       -5.4818800     0.1657790    -0.0500790
  H       -4.4326880    -0.4035450    -1.3660960
  H       -4.4661600    -1.2732880     0.1669010
  H        2.9964590    -0.8086780     1.0500210
  H        2.8025100    -1.4530070    -0.5759610
  H        4.5013120     0.2245390    -1.4310650
  H        4.7086350     0.8297180     0.2214350
  H        5.1861620    -0.8265290    -0.1846820
units angstrom
no_reorient  #important for SAPT in psi4, default
symmetry c1  #important for SAPT in psi4, default
}

set PROPERTIES_ORIGIN ["COM"]
properties('MP2/aug-cc-pvtz', properties = ['dipole'])
--------------------------------------------------------------------------

    Molecular point group: c1
  Charge       = 0
  Multiplicity = 1
  Basis Set: AUG-CC-PVTZ
    Blend: AUG-CC-PVTZ
  Basis Set: (AUG-CC-PVTZ AUX)
    Blend: AUG-CC-PVTZ-JKFIT

    Orbital Energies [Eh]
    ---------------------

    Doubly Occupied:

       1A    -91.976243     2A    -20.566372     3A    -20.561836
       4A    -11.371958     5A    -11.341665     6A    -11.271137
       7A    -11.266076     8A    -11.234363     9A    -11.232603
      10A    -11.211527    11A     -8.977903    12A     -6.659052
      13A     -6.657900    14A     -6.657304    15A     -1.461665
      16A     -1.399782    17A     -1.103321    18A     -1.079397
      19A     -1.022667    20A     -0.977584    21A     -0.869352
      22A     -0.835485    23A     -0.764833    24A     -0.740501
      25A     -0.692169    26A     -0.677867    27A     -0.662894
      28A     -0.639069    29A     -0.628463    30A     -0.621283
      31A     -0.594052    32A     -0.564697    33A     -0.556075
      34A     -0.537946    35A     -0.535201    36A     -0.525629
      37A     -0.511568    38A     -0.509389    39A     -0.488370
      40A     -0.469472    41A     -0.426797    42A     -0.378010
      43A     -0.371010

  @DF-RHF Final Energy:  -819.46233103996929

   => Energetics <=

    Nuclear Repulsion Energy =            605.4602770565004448
    One-Electron Energy =               -2326.5842484261261234
    Two-Electron Energy =                 901.6616403296563931
    Total Energy =                       -819.4623310399692855
  Basis Set: (AUG-CC-PVTZ AUX)
    Blend: AUG-CC-PVTZ-RI
    Molecular point group: c1

    Geometry (in Angstrom), charge = 0, multiplicity = 1:

       Center              X                  Y                   Z               Mass
    ------------   -----------------  -----------------  -----------------  -----------------
         S            1.800626762237     0.728012415725    -0.337831856266    31.972071174400
         O           -1.856816237763    -0.929426584275    -0.796800856266    15.994914619570
         O            0.480565762237    -1.056431584275     1.117956143734    15.994914619570
         C           -0.840934237763     0.838884415725     0.478928143734    12.000000000000
         C           -3.396847237763     0.600912415725     0.240715143734    12.000000000000
         C           -1.841801437763    -0.014250184275    -0.135633256266    12.000000000000
         C            0.419000762237     0.001461415725     0.511702143734    12.000000000000
         C           -4.525277237763    -0.274039584275    -0.281152856266    12.000000000000
         C            3.044026762237    -0.551210584275    -0.004925856266    12.000000000000
         C            4.429682762237    -0.041505584275    -0.370724856266    12.000000000000
         H           -0.707808237763     1.751324415725    -0.116900856266     1.007825032230
         H           -1.061021237763     1.156011415725     1.504985143734     1.007825032230
         H           -3.466409237763     0.728925415725     1.328772143734     1.007825032230
         H           -3.457867237763     1.616537415725    -0.179323856266     1.007825032230
         H           -5.495483237763     0.171160415725    -0.046786856266     1.007825032230
         H           -4.446291237763    -0.398163584275    -1.362803856266     1.007825032230
         H           -4.479763237763    -1.267906584275     0.170193143734     1.007825032230
         H            2.982855762237    -0.803296584275     1.053313143734     1.007825032230
         H            2.788906762237    -1.447625584275    -0.572668856266     1.007825032230
         H            4.487708762237     0.229920415725    -1.427772856266     1.007825032230
         H            4.695031762237     0.835099415725     0.224727143734     1.007825032230
         H            5.172558762237    -0.821147584275    -0.181389856266     1.007825032230

  Basis Set: AUG-CC-PVTZ
    Blend: AUG-CC-PVTZ
  Basis Set: (AUG-CC-PVTZ AUX)
    Blend: AUG-CC-PVTZ-JKFIT
	 Reference Energy          =    -819.4623310399692855 [Eh]
	 Singles Energy            =      -0.0000000000000000 [Eh]
	 Same-Spin Energy          =      -0.4833098800551536 [Eh]
	 Opposite-Spin Energy      =      -1.5685883225820474 [Eh]
	 Correlation Energy        =      -2.0518982026372008 [Eh]
	 Total Energy              =    -821.5142292426064614 [Eh]

	 ================> DF-SCS-MP2 Energies <==================
	-----------------------------------------------------------
	 SCS Same-Spin Scale       =       0.3333333333333333 [-]
	 SCS Opposite-Spin Scale   =       1.2000000000000000 [-]
	 SCS Same-Spin Energy      =      -0.1611032933517179 [Eh]
	 SCS Opposite-Spin Energy  =      -1.8823059870984569 [Eh]
	 SCS Correlation Energy    =      -2.0434092804501747 [Eh]
	 SCS Total Energy          =    -821.5057403204194770 [Eh]
	-----------------------------------------------------------

  Dipole Moment: [D]
     X:     1.1854      Y:     2.5194      Z:     0.4828     Total:     2.8258

*** Psi4 exiting successfully. Buy a developer a beer!
