                               Psi4 1.3.2 release

  ==> Input File <==

--------------------------------------------------------------------------
#psi4
#
memory 32 gb

molecule  {
0 1
  S        1.8142300     0.7226310    -0.3411240
  O       -1.8432130    -0.9348080    -0.8000930
  O        0.4941690    -1.0618130     1.1146640
  C       -0.8273310     0.8335030     0.4756360
  C       -3.3832440     0.5955310     0.2374230
  C       -2.0096370     0.0521440    -0.0950140
  C        0.4326040    -0.0039200     0.5084100
  C       -4.5116740    -0.2794210    -0.2844450
  C        3.1946634    -0.6975734     0.0284711
  C        4.4432860    -0.0468870    -0.3740170
  H       -0.6942050     1.7459430    -0.1201930
  H       -1.0474180     1.1506300     1.5016930
  H       -3.4528060     0.7235440     1.3254800
  H       -3.4442640     1.6111560    -0.1826160
  H       -5.4818800     0.1657790    -0.0500790
  H       -4.4326880    -0.4035450    -1.3660960
  H       -4.4661600    -1.2732880     0.1669010
  H        2.9964590    -0.8086780     1.0500210
  H        2.8025100    -1.4530070    -0.5759610
  H        4.5013120     0.2245390    -1.4310650
  H        4.7086350     0.8297180     0.2214350
  H        5.1861620    -0.8265290    -0.1846820
units angstrom
no_reorient  #important for SAPT in psi4, default
symmetry c1  #important for SAPT in psi4, default
}

set PROPERTIES_ORIGIN ["COM"]
properties('MP2/aug-cc-pvtz', properties = ['dipole'])
--------------------------------------------------------------------------

    Molecular point group: c1
  Charge       = 0
  Multiplicity = 1
  Basis Set: AUG-CC-PVTZ
    Blend: AUG-CC-PVTZ
  Basis Set: (AUG-CC-PVTZ AUX)
    Blend: AUG-CC-PVTZ-JKFIT

    Orbital Energies [Eh]
    ---------------------

    Doubly Occupied:

       1A    -91.960117     2A    -20.552522     3A    -20.549176
       4A    -11.362415     5A    -11.342936     6A    -11.276050
       7A    -11.261973     8A    -11.247489     9A    -11.235818
      10A    -11.220479    11A     -8.960772    12A     -6.641747
      13A     -6.640561    14A     -6.640091    15A     -1.393037
      16A     -1.380142    17A     -1.087397    18A     -1.076625
      19A     -1.042347    20A     -0.967810    21A     -0.892466
      22A     -0.850039    23A     -0.757557    24A     -0.722210
      25A     -0.673953    26A     -0.661291    27A     -0.659294
      28A     -0.642976    29A     -0.629815    30A     -0.606170
      31A     -0.591578    32A     -0.582597    33A     -0.548031
      34A     -0.539290    35A     -0.533985    36A     -0.522974
      37A     -0.516003    38A     -0.506144    39A     -0.486213
      40A     -0.432202    41A     -0.410119    42A     -0.400490
      43A     -0.366972

  @DF-RHF Final Energy:  -819.47469605077754

   => Energetics <=

    Nuclear Repulsion Energy =            600.2278465087396171
    One-Electron Energy =               -2316.6613471862165170
    Two-Electron Energy =                 896.9588046266992478
    Total Energy =                       -819.4746960507775384
  Basis Set: (AUG-CC-PVTZ AUX)
    Blend: AUG-CC-PVTZ-RI
    Molecular point group: c1

    Geometry (in Angstrom), charge = 0, multiplicity = 1:

       Center              X                  Y                   Z               Mass
    ------------   -----------------  -----------------  -----------------  -----------------
         S            1.803956006146     0.733201041166    -0.343874786264    31.972071174400
         O           -1.853486993854    -0.924237958834    -0.802843786264    15.994914619570
         O            0.483895006146    -1.051242958834     1.111913213736    15.994914619570
         C           -0.837604993854     0.844073041166     0.472885213736    12.000000000000
         C           -3.393517993854     0.606101041166     0.234672213736    12.000000000000
         C           -2.019910993854     0.062714041166    -0.097764786264    12.000000000000
         C            0.422330006146     0.006650041166     0.505659213736    12.000000000000
         C           -4.521947993854    -0.268850958834    -0.287195786264    12.000000000000
         C            3.184389406146    -0.687003358834     0.025720313736    12.000000000000
         C            4.433012006146    -0.036316958834    -0.376767786264    12.000000000000
         H           -0.704478993854     1.756513041166    -0.122943786264     1.007825032230
         H           -1.057691993854     1.161200041166     1.498942213736     1.007825032230
         H           -3.463079993854     0.734114041166     1.322729213736     1.007825032230
         H           -3.454537993854     1.621726041166    -0.185366786264     1.007825032230
         H           -5.492153993854     0.176349041166    -0.052829786264     1.007825032230
         H           -4.442961993854    -0.392974958834    -1.368846786264     1.007825032230
         H           -4.476433993854    -1.262717958834     0.164150213736     1.007825032230
         H            2.986185006146    -0.798107958834     1.047270213736     1.007825032230
         H            2.792236006146    -1.442436958834    -0.578711786264     1.007825032230
         H            4.491038006146     0.235109041166    -1.433815786264     1.007825032230
         H            4.698361006146     0.840288041166     0.218684213736     1.007825032230
         H            5.175888006146    -0.815958958834    -0.187432786264     1.007825032230

  Basis Set: AUG-CC-PVTZ
    Blend: AUG-CC-PVTZ
  Basis Set: (AUG-CC-PVTZ AUX)
    Blend: AUG-CC-PVTZ-JKFIT
	 Reference Energy          =    -819.4746960507775384 [Eh]
	 Singles Energy            =      -0.0000000000000000 [Eh]
	 Same-Spin Energy          =      -0.4841673618821083 [Eh]
	 Opposite-Spin Energy      =      -1.5714965248171864 [Eh]
	 Correlation Energy        =      -2.0556638866992945 [Eh]
	 Total Energy              =    -821.5303599374768737 [Eh]

	 ================> DF-SCS-MP2 Energies <==================
	-----------------------------------------------------------
	 SCS Same-Spin Scale       =       0.3333333333333333 [-]
	 SCS Opposite-Spin Scale   =       1.2000000000000000 [-]
	 SCS Same-Spin Energy      =      -0.1613891206273694 [Eh]
	 SCS Opposite-Spin Energy  =      -1.8857958297806237 [Eh]
	 SCS Correlation Energy    =      -2.0471849504079929 [Eh]
	 SCS Total Energy          =    -821.5218810011855339 [Eh]
	-----------------------------------------------------------

  Dipole Moment: [D]
     X:     0.4701      Y:     2.6609      Z:     0.6697     Total:     2.7839

*** Psi4 exiting successfully. Buy a developer a beer!
