                               Psi4 1.3.2 release

  ==> Input File <==

--------------------------------------------------------------------------
#psi4
#
memory 32 gb

molecule  {
0 1
  S        1.8142300     0.7226310    -0.3411240
  O       -1.8220704    -0.9323909    -0.7981621
  O        0.4941690    -1.0618130     1.1146640
  C       -0.8106262     0.8165307     0.4636421
  C       -3.3832440     0.5955310     0.2374230
  C       -2.0096370     0.0521440    -0.0950140
  C        0.4326040    -0.0039200     0.5084100
  C       -4.5116740    -0.2794210    -0.2844450
  C        3.0576300    -0.5565920    -0.0082180
  C        4.4432860    -0.0468870    -0.3740170
  H       -0.6942050     1.7459430    -0.1201930
  H       -1.0474180     1.1506300     1.5016930
  H       -3.4528060     0.7235440     1.3254800
  H       -3.4442640     1.6111560    -0.1826160
  H       -5.4818800     0.1657790    -0.0500790
  H       -4.4326880    -0.4035450    -1.3660960
  H       -4.4661600    -1.2732880     0.1669010
  H        2.9964590    -0.8086780     1.0500210
  H        2.8025100    -1.4530070    -0.5759610
  H        4.5013120     0.2245390    -1.4310650
  H        4.7086350     0.8297180     0.2214350
  H        5.1861620    -0.8265290    -0.1846820
units angstrom
no_reorient  #important for SAPT in psi4, default
symmetry c1  #important for SAPT in psi4, default
}

set PROPERTIES_ORIGIN ["COM"]
properties('MP2/aug-cc-pvtz', properties = ['dipole'])
--------------------------------------------------------------------------

    Molecular point group: c1
  Charge       = 0
  Multiplicity = 1
  Basis Set: AUG-CC-PVTZ
    Blend: AUG-CC-PVTZ
  Basis Set: (AUG-CC-PVTZ AUX)
    Blend: AUG-CC-PVTZ-JKFIT

    Orbital Energies [Eh]
    ---------------------

    Doubly Occupied:

       1A    -91.971486     2A    -20.555007     3A    -20.554167
       4A    -11.365974     5A    -11.346278     6A    -11.266651
       7A    -11.262125     8A    -11.251776     9A    -11.231262
      10A    -11.223518    11A     -8.973122    12A     -6.654276
      13A     -6.653144    14A     -6.652532    15A     -1.397579
      16A     -1.383656    17A     -1.094283    18A     -1.077130
      19A     -1.044604    20A     -0.971387    21A     -0.897759
      22A     -0.837420    23A     -0.762347    24A     -0.725813
      25A     -0.678826    26A     -0.667129    27A     -0.649165
      28A     -0.637824    29A     -0.633880    30A     -0.608012
      31A     -0.592368    32A     -0.559438    33A     -0.546129
      34A     -0.533621    35A     -0.526875    36A     -0.521544
      37A     -0.511118    38A     -0.503981    39A     -0.488085
      40A     -0.464901    41A     -0.429268    42A     -0.407739
      43A     -0.370607

  @DF-RHF Final Energy:  -819.49362379425725

   => Energetics <=

    Nuclear Repulsion Energy =            603.9974118035287347
    One-Electron Energy =               -2324.0144600389767220
    Two-Electron Energy =                 900.5234244411906275
    Total Energy =                       -819.4936237942572461
  Basis Set: (AUG-CC-PVTZ AUX)
    Blend: AUG-CC-PVTZ-RI
    Molecular point group: c1

    Geometry (in Angstrom), charge = 0, multiplicity = 1:

       Center              X                  Y                   Z               Mass
    ------------   -----------------  -----------------  -----------------  -----------------
         S            1.810864653709     0.723662052260    -0.340417795536    31.972071174400
         O           -1.825435746291    -0.931359847740    -0.797455895536    15.994914619570
         O            0.490803653709    -1.060781947740     1.115370204464    15.994914619570
         C           -0.813991546291     0.817561752260     0.464348304464    12.000000000000
         C           -3.386609346291     0.596562052260     0.238129204464    12.000000000000
         C           -2.013002346291     0.053175052260    -0.094307795536    12.000000000000
         C            0.429238653709    -0.002888947740     0.509116204464    12.000000000000
         C           -4.515039346291    -0.278389947740    -0.283738795536    12.000000000000
         C            3.054264653709    -0.555560947740    -0.007511795536    12.000000000000
         C            4.439920653709    -0.045855947740    -0.373310795536    12.000000000000
         H           -0.697570346291     1.746974052260    -0.119486795536     1.007825032230
         H           -1.050783346291     1.151661052260     1.502399204464     1.007825032230
         H           -3.456171346291     0.724575052260     1.326186204464     1.007825032230
         H           -3.447629346291     1.612187052260    -0.181909795536     1.007825032230
         H           -5.485245346291     0.166810052260    -0.049372795536     1.007825032230
         H           -4.436053346291    -0.402513947740    -1.365389795536     1.007825032230
         H           -4.469525346291    -1.272256947740     0.167607204464     1.007825032230
         H            2.993093653709    -0.807646947740     1.050727204464     1.007825032230
         H            2.799144653709    -1.451975947740    -0.575254795536     1.007825032230
         H            4.497946653709     0.225570052260    -1.430358795536     1.007825032230
         H            4.705269653709     0.830749052260     0.222141204464     1.007825032230
         H            5.182796653709    -0.825497947740    -0.183975795536     1.007825032230

  Basis Set: AUG-CC-PVTZ
    Blend: AUG-CC-PVTZ
  Basis Set: (AUG-CC-PVTZ AUX)
    Blend: AUG-CC-PVTZ-JKFIT
	 Reference Energy          =    -819.4936237942572461 [Eh]
	 Singles Energy            =      -0.0000000000000000 [Eh]
	 Same-Spin Energy          =      -0.4843954641794641 [Eh]
	 Opposite-Spin Energy      =      -1.5712829115986240 [Eh]
	 Correlation Energy        =      -2.0556783757780881 [Eh]
	 Total Energy              =    -821.5493021700353893 [Eh]

	 ================> DF-SCS-MP2 Energies <==================
	-----------------------------------------------------------
	 SCS Same-Spin Scale       =       0.3333333333333333 [-]
	 SCS Opposite-Spin Scale   =       1.2000000000000000 [-]
	 SCS Same-Spin Energy      =      -0.1614651547264880 [Eh]
	 SCS Opposite-Spin Energy  =      -1.8855394939183487 [Eh]
	 SCS Correlation Energy    =      -2.0470046486448368 [Eh]
	 SCS Total Energy          =    -821.5406284429020616 [Eh]
	-----------------------------------------------------------

  Dipole Moment: [D]
     X:    -0.1144      Y:     2.8416      Z:     0.6726     Total:     2.9224

*** Psi4 exiting successfully. Buy a developer a beer!
