                               Psi4 1.4a3.dev225

  ==> Input File <==

--------------------------------------------------------------------------
#psi4
#
memory 32 gb

molecule  {
0 1
  S        1.5586770    -0.2994370    -0.7152220
  O       -1.5255240    -0.4876820     1.0921970
  O        0.7924220     1.7006740     0.8461850
  C       -0.8878030     0.9736540    -0.7120840
  C       -3.2304390    -0.0998550    -0.5631210
  C       -1.8542380     0.0638590     0.0480780
  C        0.4669392     0.9625757    -0.0580756
  C       -4.1634610    -0.9398430     0.2972900
  C        2.9497330    -0.0790050     0.4324980
  C        4.0540790    -1.0751370     0.1033520
  H       -0.8484610     0.6756560    -1.7668750
  H       -1.2645150     2.0025910    -0.6674260
  H       -3.6447290     0.9013370    -0.7419330
  H       -3.1015980    -0.5455960    -1.5588690
  H       -5.1413450    -1.0357370    -0.1813640
  H       -3.7504260    -1.9381500     0.4523140
  H       -4.2995020    -0.4825820     1.2793320
  H        3.3022180     0.9509290     0.3487650
  H        2.5726230    -0.2199470     1.4475820
  H        3.7004310    -2.1050230     0.1947960
  H        4.4320470    -0.9299840    -0.9117720
  H        4.8873260    -0.9394890     0.7982930
units angstrom
no_reorient  #important for SAPT in psi4, default
symmetry c1  #important for SAPT in psi4, default
}

set PROPERTIES_ORIGIN ["COM"]
properties('MP2/aug-cc-pvtz', properties = ['dipole'])
--------------------------------------------------------------------------

    Molecular point group: c1
  Charge       = 0
  Multiplicity = 1
  Basis Set: AUG-CC-PVTZ
    Blend: AUG-CC-PVTZ
  Basis Set: (AUG-CC-PVTZ AUX)
    Blend: AUG-CC-PVTZ-JKFIT

    Orbital Energies [Eh]
    ---------------------

    Doubly Occupied:

       1A    -91.965596     2A    -20.560024     3A    -20.557811
       4A    -11.365820     5A    -11.350806     6A    -11.266972
       7A    -11.260235     8A    -11.252954     9A    -11.229005
      10A    -11.224953    11A     -8.967144    12A     -6.648304
      13A     -6.647211    14A     -6.646556    15A     -1.402585
      16A     -1.389662    17A     -1.092562    18A     -1.076231
      19A     -1.044770    20A     -0.966077    21A     -0.898616
      22A     -0.834046    23A     -0.762175    24A     -0.727724
      25A     -0.679583    26A     -0.671435    27A     -0.652195
      28A     -0.637771    29A     -0.631310    30A     -0.612192
      31A     -0.591150    32A     -0.560470    33A     -0.547590
      34A     -0.532075    35A     -0.526188    36A     -0.522698
      37A     -0.513320    38A     -0.505658    39A     -0.494525
      40A     -0.461597    41A     -0.432421    42A     -0.404834
      43A     -0.365916

  @DF-RHF Final Energy:  -819.49643043534115

   => Energetics <=

    Nuclear Repulsion Energy =            610.1498483893244611
    One-Electron Energy =               -2336.3310259755867264
    Two-Electron Energy =                 906.6847471509211118
    Total Energy =                       -819.4964304353411535
  Basis Set: (AUG-CC-PVTZ AUX)
    Blend: AUG-CC-PVTZ-RI
    Molecular point group: c1

    Geometry (in Angstrom), charge = 0, multiplicity = 1:

       Center              X                  Y                   Z               Mass
    ------------   -----------------  -----------------  -----------------  -----------------
         S            1.540275141349    -0.323231109616    -0.723937642595    31.972071174400
         O           -1.543925858651    -0.511476109616     1.083481357405    15.994914619570
         O            0.774020141349     1.676879890384     0.837469357405    15.994914619570
         C           -0.906204858651     0.949859890384    -0.720799642595    12.000000000000
         C           -3.248840858651    -0.123649109616    -0.571836642595    12.000000000000
         C           -1.872639858651     0.040064890384     0.039362357405    12.000000000000
         C            0.448537341349     0.938781590384    -0.066791242595    12.000000000000
         C           -4.181862858651    -0.963637109616     0.288574357405    12.000000000000
         C            2.931331141349    -0.102799109616     0.423782357405    12.000000000000
         C            4.035677141349    -1.098931109616     0.094636357405    12.000000000000
         H           -0.866862858651     0.651861890384    -1.775590642595     1.007825032230
         H           -1.282916858651     1.978796890384    -0.676141642595     1.007825032230
         H           -3.663130858651     0.877542890384    -0.750648642595     1.007825032230
         H           -3.119999858651    -0.569390109616    -1.567584642595     1.007825032230
         H           -5.159746858651    -1.059531109616    -0.190079642595     1.007825032230
         H           -3.768827858651    -1.961944109616     0.443598357405     1.007825032230
         H           -4.317903858651    -0.506376109616     1.270616357405     1.007825032230
         H            3.283816141349     0.927134890384     0.340049357405     1.007825032230
         H            2.554221141349    -0.243741109616     1.438866357405     1.007825032230
         H            3.682029141349    -2.128817109616     0.186080357405     1.007825032230
         H            4.413645141349    -0.953778109616    -0.920487642595     1.007825032230
         H            4.868924141349    -0.963283109616     0.789577357405     1.007825032230

  Basis Set: AUG-CC-PVTZ
    Blend: AUG-CC-PVTZ
  Basis Set: (AUG-CC-PVTZ AUX)
    Blend: AUG-CC-PVTZ-JKFIT
	 Reference Energy          =    -819.4964304353411535 [Eh]
	 Singles Energy            =      -0.0000000000000000 [Eh]
	 Same-Spin Energy          =      -0.4842709295291993 [Eh]
	 Opposite-Spin Energy      =      -1.5708654945163225 [Eh]
	 Correlation Energy        =      -2.0551364240455219 [Eh]
	 Total Energy              =    -821.5515668593866394 [Eh]

	 ================> DF-SCS-MP2 Energies <==================
	-----------------------------------------------------------
	 SCS Same-Spin Scale       =       0.3333333333333333 [-]
	 SCS Opposite-Spin Scale   =       1.2000000000000000 [-]
	 SCS Same-Spin Energy      =      -0.1614236431763997 [Eh]
	 SCS Opposite-Spin Energy  =      -1.8850385934195870 [Eh]
	 SCS Correlation Energy    =      -2.0464622365959868 [Eh]
	 SCS Total Energy          =    -821.5428926719371248 [Eh]
	-----------------------------------------------------------

  Dipole Moment: [D]
     X:    -0.8940      Y:    -0.1022      Z:    -2.6320     Total:     2.7816

*** Psi4 exiting successfully. Buy a developer a beer!
