                               Psi4 1.3.2 release

  ==> Input File <==

--------------------------------------------------------------------------
#psi4
#
memory 32 gb

molecule  {
0 1
  S        1.8142300     0.7226310    -0.3411240
  O       -1.7800012    -0.9276978    -0.7922120
  O        0.4941690    -1.0618130     1.1146640
  C       -0.8273310     0.8335030     0.4756360
  C       -3.3481401     0.6524293     0.2800153
  C       -2.0096370     0.0521440    -0.0950140
  C        0.4326040    -0.0039200     0.5084100
  C       -4.5116740    -0.2794210    -0.2844450
  C        3.0576300    -0.5565920    -0.0082180
  C        4.4432860    -0.0468870    -0.3740170
  H       -0.6942050     1.7459430    -0.1201930
  H       -1.0474180     1.1506300     1.5016930
  H       -3.4528060     0.7235440     1.3254800
  H       -3.4442640     1.6111560    -0.1826160
  H       -5.4818800     0.1657790    -0.0500790
  H       -4.4326880    -0.4035450    -1.3660960
  H       -4.4661600    -1.2732880     0.1669010
  H        2.9964590    -0.8086780     1.0500210
  H        2.8025100    -1.4530070    -0.5759610
  H        4.5013120     0.2245390    -1.4310650
  H        4.7086350     0.8297180     0.2214350
  H        5.1861620    -0.8265290    -0.1846820
units angstrom
no_reorient  #important for SAPT in psi4, default
symmetry c1  #important for SAPT in psi4, default
}

set PROPERTIES_ORIGIN ["COM"]
properties('MP2/aug-cc-pvtz', properties = ['dipole'])
--------------------------------------------------------------------------

    Molecular point group: c1
  Charge       = 0
  Multiplicity = 1
  Basis Set: AUG-CC-PVTZ
    Blend: AUG-CC-PVTZ
  Basis Set: (AUG-CC-PVTZ AUX)
    Blend: AUG-CC-PVTZ-JKFIT

    Orbital Energies [Eh]
    ---------------------

    Doubly Occupied:

       1A    -91.970218     2A    -20.558514     3A    -20.552605
       4A    -11.364846     5A    -11.347795     6A    -11.261681
       7A    -11.261219     8A    -11.250181     9A    -11.230581
      10A    -11.227585    11A     -8.971849    12A     -6.653004
      13A     -6.651876    14A     -6.651262    15A     -1.397140
      16A     -1.383282    17A     -1.092560    18A     -1.076519
      19A     -1.036386    20A     -0.969712    21A     -0.897405
      22A     -0.837227    23A     -0.764048    24A     -0.726027
      25A     -0.677699    26A     -0.669011    27A     -0.646112
      28A     -0.642704    29A     -0.633791    30A     -0.609856
      31A     -0.593537    32A     -0.558401    33A     -0.540957
      34A     -0.533236    35A     -0.527709    36A     -0.517856
      37A     -0.512799    38A     -0.503356    39A     -0.493299
      40A     -0.463682    41A     -0.428762    42A     -0.403703
      43A     -0.369402

  @DF-RHF Final Energy:  -819.48773727828575

   => Energetics <=

    Nuclear Repulsion Energy =            603.6723455698540874
    One-Electron Energy =               -2323.4013742379984251
    Two-Electron Energy =                 900.2412913898585884
    Total Energy =                       -819.4877372782857492
  Basis Set: (AUG-CC-PVTZ AUX)
    Blend: AUG-CC-PVTZ-RI
    Molecular point group: c1

    Geometry (in Angstrom), charge = 0, multiplicity = 1:

       Center              X                  Y                   Z               Mass
    ------------   -----------------  -----------------  -----------------  -----------------
         S            1.805281085618     0.717654691521    -0.345104946752    31.972071174400
         O           -1.788950114382    -0.932674108479    -0.796192946752    15.994914619570
         O            0.485220085618    -1.066789308479     1.110683053248    15.994914619570
         C           -0.836279914382     0.828526691521     0.471655053248    12.000000000000
         C           -3.357089014382     0.647452991521     0.276034353248    12.000000000000
         C           -2.018585914382     0.047167691521    -0.098994946752    12.000000000000
         C            0.423655085618    -0.008896308479     0.504429053248    12.000000000000
         C           -4.520622914382    -0.284397308479    -0.288425946752    12.000000000000
         C            3.048681085618    -0.561568308479    -0.012198946752    12.000000000000
         C            4.434337085618    -0.051863308479    -0.377997946752    12.000000000000
         H           -0.703153914382     1.740966691521    -0.124173946752     1.007825032230
         H           -1.056366914382     1.145653691521     1.497712053248     1.007825032230
         H           -3.461754914382     0.718567691521     1.321499053248     1.007825032230
         H           -3.453212914382     1.606179691521    -0.186596946752     1.007825032230
         H           -5.490828914382     0.160802691521    -0.054059946752     1.007825032230
         H           -4.441636914382    -0.408521308479    -1.370076946752     1.007825032230
         H           -4.475108914382    -1.278264308479     0.162920053248     1.007825032230
         H            2.987510085618    -0.813654308479     1.046040053248     1.007825032230
         H            2.793561085618    -1.457983308479    -0.579941946752     1.007825032230
         H            4.492363085618     0.219562691521    -1.435045946752     1.007825032230
         H            4.699686085618     0.824741691521     0.217454053248     1.007825032230
         H            5.177213085618    -0.831505308479    -0.188662946752     1.007825032230

  Basis Set: AUG-CC-PVTZ
    Blend: AUG-CC-PVTZ
  Basis Set: (AUG-CC-PVTZ AUX)
    Blend: AUG-CC-PVTZ-JKFIT
	 Reference Energy          =    -819.4877372782857492 [Eh]
	 Singles Energy            =      -0.0000000000000000 [Eh]
	 Same-Spin Energy          =      -0.4840493180121445 [Eh]
	 Opposite-Spin Energy      =      -1.5713657696501442 [Eh]
	 Correlation Energy        =      -2.0554150876622885 [Eh]
	 Total Energy              =    -821.5431523659480035 [Eh]

	 ================> DF-SCS-MP2 Energies <==================
	-----------------------------------------------------------
	 SCS Same-Spin Scale       =       0.3333333333333333 [-]
	 SCS Opposite-Spin Scale   =       1.2000000000000000 [-]
	 SCS Same-Spin Energy      =      -0.1613497726707148 [Eh]
	 SCS Opposite-Spin Energy  =      -1.8856389235801729 [Eh]
	 SCS Correlation Energy    =      -2.0469886962508879 [Eh]
	 SCS Total Energy          =    -821.5347259745366273 [Eh]
	-----------------------------------------------------------

  Dipole Moment: [D]
     X:    -0.2223      Y:     2.8138      Z:     0.6579     Total:     2.8982

*** Psi4 exiting successfully. Buy a developer a beer!
