                               Psi4 1.3.2 release

  ==> Input File <==

--------------------------------------------------------------------------
#psi4
#
memory 32 gb

molecule  {
0 1
  S        1.8142300     0.7226310    -0.3411240
  O       -1.8432130    -0.9348080    -0.8000930
  O        0.4941690    -1.0618130     1.1146640
  C       -0.8189388     0.8248471     0.4699448
  C       -3.3887414     0.5856985     0.2305172
  C       -2.0096370     0.0521440    -0.0950140
  C        0.4326040    -0.0039200     0.5084100
  C       -4.5116740    -0.2794210    -0.2844450
  C        3.0576300    -0.5565920    -0.0082180
  C        4.4432860    -0.0468870    -0.3740170
  H       -0.6942050     1.7459430    -0.1201930
  H       -1.0474180     1.1506300     1.5016930
  H       -3.4528060     0.7235440     1.3254800
  H       -3.4442640     1.6111560    -0.1826160
  H       -5.4818800     0.1657790    -0.0500790
  H       -4.4326880    -0.4035450    -1.3660960
  H       -4.4661600    -1.2732880     0.1669010
  H        2.9964590    -0.8086780     1.0500210
  H        2.8025100    -1.4530070    -0.5759610
  H        4.5013120     0.2245390    -1.4310650
  H        4.7086350     0.8297180     0.2214350
  H        5.1861620    -0.8265290    -0.1846820
units angstrom
no_reorient  #important for SAPT in psi4, default
symmetry c1  #important for SAPT in psi4, default
}

set PROPERTIES_ORIGIN ["COM"]
properties('MP2/aug-cc-pvtz', properties = ['dipole'])
--------------------------------------------------------------------------

    Molecular point group: c1
  Charge       = 0
  Multiplicity = 1
  Basis Set: AUG-CC-PVTZ
    Blend: AUG-CC-PVTZ
  Basis Set: (AUG-CC-PVTZ AUX)
    Blend: AUG-CC-PVTZ-JKFIT

    Orbital Energies [Eh]
    ---------------------

    Doubly Occupied:

       1A    -91.972123     2A    -20.555039     3A    -20.554781
       4A    -11.367148     5A    -11.345962     6A    -11.267574
       7A    -11.262606     8A    -11.250968     9A    -11.231625
      10A    -11.222024    11A     -8.973743    12A     -6.654896
      13A     -6.653766    14A     -6.653153    15A     -1.397585
      16A     -1.383908    17A     -1.094351    18A     -1.077393
      19A     -1.044833    20A     -0.972144    21A     -0.896757
      22A     -0.837642    23A     -0.760591    24A     -0.726438
      25A     -0.678597    26A     -0.667720    27A     -0.649043
      28A     -0.637225    29A     -0.633726    30A     -0.608190
      31A     -0.594030    32A     -0.559853    33A     -0.547860
      34A     -0.534060    35A     -0.527090    36A     -0.521173
      37A     -0.511237    38A     -0.503673    39A     -0.486876
      40A     -0.465398    41A     -0.429537    42A     -0.407449
      43A     -0.371163

  @DF-RHF Final Energy:  -819.49412622339651

   => Energetics <=

    Nuclear Repulsion Energy =            603.6922280232083722
    One-Electron Energy =               -2323.3908108668019850
    Two-Electron Energy =                 900.2044566201971065
    Total Energy =                       -819.4941262233965062
  Basis Set: (AUG-CC-PVTZ AUX)
    Blend: AUG-CC-PVTZ-RI
    Molecular point group: c1

    Geometry (in Angstrom), charge = 0, multiplicity = 1:

       Center              X                  Y                   Z               Mass
    ------------   -----------------  -----------------  -----------------  -----------------
         S            1.814012893756     0.724017269052    -0.340179617472    31.972071174400
         O           -1.843430106244    -0.933421730948    -0.799148617472    15.994914619570
         O            0.493951893756    -1.060426730948     1.115608382528    15.994914619570
         C           -0.819155906244     0.826233369052     0.470889182528    12.000000000000
         C           -3.388958506244     0.587084769052     0.231461582528    12.000000000000
         C           -2.009854106244     0.053530269052    -0.094069617472    12.000000000000
         C            0.432386893756    -0.002533730948     0.509354382528    12.000000000000
         C           -4.511891106244    -0.278034730948    -0.283500617472    12.000000000000
         C            3.057412893756    -0.555205730948    -0.007273617472    12.000000000000
         C            4.443068893756    -0.045500730948    -0.373072617472    12.000000000000
         H           -0.694422106244     1.747329269052    -0.119248617472     1.007825032230
         H           -1.047635106244     1.152016269052     1.502637382528     1.007825032230
         H           -3.453023106244     0.724930269052     1.326424382528     1.007825032230
         H           -3.444481106244     1.612542269052    -0.181671617472     1.007825032230
         H           -5.482097106244     0.167165269052    -0.049134617472     1.007825032230
         H           -4.432905106244    -0.402158730948    -1.365151617472     1.007825032230
         H           -4.466377106244    -1.271901730948     0.167845382528     1.007825032230
         H            2.996241893756    -0.807291730948     1.050965382528     1.007825032230
         H            2.802292893756    -1.451620730948    -0.575016617472     1.007825032230
         H            4.501094893756     0.225925269052    -1.430120617472     1.007825032230
         H            4.708417893756     0.831104269052     0.222379382528     1.007825032230
         H            5.185944893756    -0.825142730948    -0.183737617472     1.007825032230

  Basis Set: AUG-CC-PVTZ
    Blend: AUG-CC-PVTZ
  Basis Set: (AUG-CC-PVTZ AUX)
    Blend: AUG-CC-PVTZ-JKFIT
	 Reference Energy          =    -819.4941262233965062 [Eh]
	 Singles Energy            =      -0.0000000000000000 [Eh]
	 Same-Spin Energy          =      -0.4843766964882657 [Eh]
	 Opposite-Spin Energy      =      -1.5712106064285263 [Eh]
	 Correlation Energy        =      -2.0555873029167921 [Eh]
	 Total Energy              =    -821.5497135263133259 [Eh]

	 ================> DF-SCS-MP2 Energies <==================
	-----------------------------------------------------------
	 SCS Same-Spin Scale       =       0.3333333333333333 [-]
	 SCS Opposite-Spin Scale   =       1.2000000000000000 [-]
	 SCS Same-Spin Energy      =      -0.1614588988294219 [Eh]
	 SCS Opposite-Spin Energy  =      -1.8854527277142314 [Eh]
	 SCS Correlation Energy    =      -2.0469116265436531 [Eh]
	 SCS Total Energy          =    -821.5410378499401531 [Eh]
	-----------------------------------------------------------

  Dipole Moment: [D]
     X:    -0.0199      Y:     2.8399      Z:     0.6806     Total:     2.9204

*** Psi4 exiting successfully. Buy a developer a beer!
