                               Psi4 1.3.2 release

  ==> Input File <==

--------------------------------------------------------------------------
#psi4
#
memory 32 gb

molecule  {
0 1
  S        1.8142300     0.7226310    -0.3411240
  O       -1.8432130    -0.9348080    -0.8000930
  O        0.4941690    -1.0618130     1.1146640
  C       -0.7783503     0.7806984     0.4408520
  C       -3.4146450     0.5359417     0.1956271
  C       -2.0096370     0.0521440    -0.0950140
  C        0.4326040    -0.0039200     0.5084100
  C       -4.5116740    -0.2794210    -0.2844450
  C        3.0576300    -0.5565920    -0.0082180
  C        4.4432860    -0.0468870    -0.3740170
  H       -0.6942050     1.7459430    -0.1201930
  H       -1.0474180     1.1506300     1.5016930
  H       -3.4528060     0.7235440     1.3254800
  H       -3.4442640     1.6111560    -0.1826160
  H       -5.4818800     0.1657790    -0.0500790
  H       -4.4326880    -0.4035450    -1.3660960
  H       -4.4661600    -1.2732880     0.1669010
  H        2.9964590    -0.8086780     1.0500210
  H        2.8025100    -1.4530070    -0.5759610
  H        4.5013120     0.2245390    -1.4310650
  H        4.7086350     0.8297180     0.2214350
  H        5.1861620    -0.8265290    -0.1846820
units angstrom
no_reorient  #important for SAPT in psi4, default
symmetry c1  #important for SAPT in psi4, default
}

set PROPERTIES_ORIGIN ["COM"]
properties('MP2/aug-cc-pvtz', properties = ['dipole'])
--------------------------------------------------------------------------

    Molecular point group: c1
  Charge       = 0
  Multiplicity = 1
  Basis Set: AUG-CC-PVTZ
    Blend: AUG-CC-PVTZ
  Basis Set: (AUG-CC-PVTZ AUX)
    Blend: AUG-CC-PVTZ-JKFIT

    Orbital Energies [Eh]
    ---------------------

    Doubly Occupied:

       1A    -91.972104     2A    -20.554605     3A    -20.551015
       4A    -11.365188     5A    -11.345895     6A    -11.271964
       7A    -11.262504     8A    -11.257189     9A    -11.231550
      10A    -11.220692    11A     -8.973767    12A     -6.654921
      13A     -6.653781    14A     -6.653169    15A     -1.398802
      16A     -1.383750    17A     -1.097171    18A     -1.080147
      19A     -1.055668    20A     -0.972212    21A     -0.900115
      22A     -0.837312    23A     -0.764861    24A     -0.723260
      25A     -0.681052    26A     -0.667017    27A     -0.652658
      28A     -0.636133    29A     -0.632688    30A     -0.606328
      31A     -0.590277    32A     -0.562741    33A     -0.559599
      34A     -0.535718    35A     -0.526852    36A     -0.518904
      37A     -0.509496    38A     -0.496166    39A     -0.476158
      40A     -0.465206    41A     -0.428015    42A     -0.411356
      43A     -0.371217

  @DF-RHF Final Energy:  -819.47887477960307

   => Energetics <=

    Nuclear Repulsion Energy =            605.0185594838260386
    One-Electron Energy =               -2325.9764169193749694
    Two-Electron Energy =                 901.4789826559458561
    Total Energy =                       -819.4788747796030748
  Basis Set: (AUG-CC-PVTZ AUX)
    Blend: AUG-CC-PVTZ-RI
    Molecular point group: c1

    Geometry (in Angstrom), charge = 0, multiplicity = 1:

       Center              X                  Y                   Z               Mass
    ------------   -----------------  -----------------  -----------------  -----------------
         S            1.812911910230     0.731057726158    -0.335382572966    31.972071174400
         O           -1.844531089770    -0.926381273842    -0.794351572966    15.994914619570
         O            0.492850910230    -1.053386273842     1.120405427034    15.994914619570
         C           -0.779668389770     0.789125126158     0.446593427034    12.000000000000
         C           -3.415963089770     0.544368426158     0.201368527034    12.000000000000
         C           -2.010955089770     0.060570726158    -0.089272572966    12.000000000000
         C            0.431285910230     0.004506726158     0.514151427034    12.000000000000
         C           -4.512992089770    -0.270994273842    -0.278703572966    12.000000000000
         C            3.056311910230    -0.548165273842    -0.002476572966    12.000000000000
         C            4.441967910230    -0.038460273842    -0.368275572966    12.000000000000
         H           -0.695523089770     1.754369726158    -0.114451572966     1.007825032230
         H           -1.048736089770     1.159056726158     1.507434427034     1.007825032230
         H           -3.454124089770     0.731970726158     1.331221427034     1.007825032230
         H           -3.445582089770     1.619582726158    -0.176874572966     1.007825032230
         H           -5.483198089770     0.174205726158    -0.044337572966     1.007825032230
         H           -4.434006089770    -0.395118273842    -1.360354572966     1.007825032230
         H           -4.467478089770    -1.264861273842     0.172642427034     1.007825032230
         H            2.995140910230    -0.800251273842     1.055762427034     1.007825032230
         H            2.801191910230    -1.444580273842    -0.570219572966     1.007825032230
         H            4.499993910230     0.232965726158    -1.425323572966     1.007825032230
         H            4.707316910230     0.838144726158     0.227176427034     1.007825032230
         H            5.184843910230    -0.818102273842    -0.178940572966     1.007825032230

  Basis Set: AUG-CC-PVTZ
    Blend: AUG-CC-PVTZ
  Basis Set: (AUG-CC-PVTZ AUX)
    Blend: AUG-CC-PVTZ-JKFIT
	 Reference Energy          =    -819.4788747796030748 [Eh]
	 Singles Energy            =      -0.0000000000000000 [Eh]
	 Same-Spin Energy          =      -0.4856386208859514 [Eh]
	 Opposite-Spin Energy      =      -1.5728469081028957 [Eh]
	 Correlation Energy        =      -2.0584855289888471 [Eh]
	 Total Energy              =    -821.5373603085919285 [Eh]

	 ================> DF-SCS-MP2 Energies <==================
	-----------------------------------------------------------
	 SCS Same-Spin Scale       =       0.3333333333333333 [-]
	 SCS Opposite-Spin Scale   =       1.2000000000000000 [-]
	 SCS Same-Spin Energy      =      -0.1618795402953171 [Eh]
	 SCS Opposite-Spin Energy  =      -1.8874162897234747 [Eh]
	 SCS Correlation Energy    =      -2.0492958300187918 [Eh]
	 SCS Total Energy          =    -821.5281706096218386 [Eh]
	-----------------------------------------------------------

  Dipole Moment: [D]
     X:    -0.1356      Y:     2.8590      Z:     0.6643     Total:     2.9382

*** Psi4 exiting successfully. Buy a developer a beer!
