                               Psi4 1.4a3.dev225

  ==> Input File <==

--------------------------------------------------------------------------
#psi4
#
memory 32 gb

molecule  {
0 1
  S        1.5586770    -0.2994370    -0.7152220
  O       -1.5255240    -0.4876820     1.0921970
  O        0.7924220     1.7006740     0.8461850
  C       -0.8878030     0.9736540    -0.7120840
  C       -3.2304390    -0.0998550    -0.5631210
  C       -1.8542380     0.0638590     0.0480780
  C        0.5243050     0.9476705    -0.0440244
  C       -4.1634610    -0.9398430     0.2972900
  C        2.9497330    -0.0790050     0.4324980
  C        4.0540790    -1.0751370     0.1033520
  H       -0.8484610     0.6756560    -1.7668750
  H       -1.2645150     2.0025910    -0.6674260
  H       -3.6447290     0.9013370    -0.7419330
  H       -3.1015980    -0.5455960    -1.5588690
  H       -5.1413450    -1.0357370    -0.1813640
  H       -3.7504260    -1.9381500     0.4523140
  H       -4.2995020    -0.4825820     1.2793320
  H        3.3022180     0.9509290     0.3487650
  H        2.5726230    -0.2199470     1.4475820
  H        3.7004310    -2.1050230     0.1947960
  H        4.4320470    -0.9299840    -0.9117720
  H        4.8873260    -0.9394890     0.7982930
units angstrom
no_reorient  #important for SAPT in psi4, default
symmetry c1  #important for SAPT in psi4, default
}

set PROPERTIES_ORIGIN ["COM"]
properties('MP2/aug-cc-pvtz', properties = ['dipole'])
--------------------------------------------------------------------------

    Molecular point group: c1
  Charge       = 0
  Multiplicity = 1
  Basis Set: AUG-CC-PVTZ
    Blend: AUG-CC-PVTZ
  Basis Set: (AUG-CC-PVTZ AUX)
    Blend: AUG-CC-PVTZ-JKFIT

    Orbital Energies [Eh]
    ---------------------

    Doubly Occupied:

       1A    -91.969514     2A    -20.556473     3A    -20.556283
       4A    -11.362594     5A    -11.346619     6A    -11.263939
       7A    -11.262561     8A    -11.250310     9A    -11.230662
      10A    -11.223113    11A     -8.971770    12A     -6.652996
      13A     -6.651749    14A     -6.651108    15A     -1.409534
      16A     -1.387842    17A     -1.092675    18A     -1.075130
      19A     -1.035968    20A     -0.972827    21A     -0.893753
      22A     -0.837132    23A     -0.756399    24A     -0.725435
      25A     -0.675121    26A     -0.668109    27A     -0.649499
      28A     -0.638083    29A     -0.633966    30A     -0.609220
      31A     -0.590518    32A     -0.562262    33A     -0.550195
      34A     -0.533317    35A     -0.527071    36A     -0.521170
      37A     -0.512559    38A     -0.508230    39A     -0.491918
      40A     -0.462447    41A     -0.430611    42A     -0.402963
      43A     -0.371053

  @DF-RHF Final Energy:  -819.49606773590233

   => Energetics <=

    Nuclear Repulsion Energy =            610.4378005108834486
    One-Electron Energy =               -2336.9183419331952791
    Two-Electron Energy =                 906.9844736864096149
    Total Energy =                       -819.4960677359023293
  Basis Set: (AUG-CC-PVTZ AUX)
    Blend: AUG-CC-PVTZ-RI
    Molecular point group: c1

    Geometry (in Angstrom), charge = 0, multiplicity = 1:

       Center              X                  Y                   Z               Mass
    ------------   -----------------  -----------------  -----------------  -----------------
         S            1.535974206321    -0.322113609350    -0.724991115191    31.972071174400
         O           -1.548226793679    -0.510358609350     1.082427884809    15.994914619570
         O            0.769719206321     1.677997390650     0.836415884809    15.994914619570
         C           -0.910505793679     0.950977390650    -0.721853115191    12.000000000000
         C           -3.253141793679    -0.122531609350    -0.572890115191    12.000000000000
         C           -1.876940793679     0.041182390650     0.038308884809    12.000000000000
         C            0.501602206321     0.924993890650    -0.053793515191    12.000000000000
         C           -4.186163793679    -0.962519609350     0.287520884809    12.000000000000
         C            2.927030206321    -0.101681609350     0.422728884809    12.000000000000
         C            4.031376206321    -1.097813609350     0.093582884809    12.000000000000
         H           -0.871163793679     0.652979390650    -1.776644115191     1.007825032230
         H           -1.287217793679     1.979914390650    -0.677195115191     1.007825032230
         H           -3.667431793679     0.878660390650    -0.751702115191     1.007825032230
         H           -3.124300793679    -0.568272609350    -1.568638115191     1.007825032230
         H           -5.164047793679    -1.058413609350    -0.191133115191     1.007825032230
         H           -3.773128793679    -1.960826609350     0.442544884809     1.007825032230
         H           -4.322204793679    -0.505258609350     1.269562884809     1.007825032230
         H            3.279515206321     0.928252390650     0.338995884809     1.007825032230
         H            2.549920206321    -0.242623609350     1.437812884809     1.007825032230
         H            3.677728206321    -2.127699609350     0.185026884809     1.007825032230
         H            4.409344206321    -0.952660609350    -0.921541115191     1.007825032230
         H            4.864623206321    -0.962165609350     0.788523884809     1.007825032230

  Basis Set: AUG-CC-PVTZ
    Blend: AUG-CC-PVTZ
  Basis Set: (AUG-CC-PVTZ AUX)
    Blend: AUG-CC-PVTZ-JKFIT
	 Reference Energy          =    -819.4960677359023293 [Eh]
	 Singles Energy            =      -0.0000000000000000 [Eh]
	 Same-Spin Energy          =      -0.4837586643737347 [Eh]
	 Opposite-Spin Energy      =      -1.5698126373780301 [Eh]
	 Correlation Energy        =      -2.0535713017517647 [Eh]
	 Total Energy              =    -821.5496390376540603 [Eh]

	 ================> DF-SCS-MP2 Energies <==================
	-----------------------------------------------------------
	 SCS Same-Spin Scale       =       0.3333333333333333 [-]
	 SCS Opposite-Spin Scale   =       1.2000000000000000 [-]
	 SCS Same-Spin Energy      =      -0.1612528881245782 [Eh]
	 SCS Opposite-Spin Energy  =      -1.8837751648536361 [Eh]
	 SCS Correlation Energy    =      -2.0450280529782141 [Eh]
	 SCS Total Energy          =    -821.5410957888805115 [Eh]
	-----------------------------------------------------------

  Dipole Moment: [D]
     X:    -0.4972      Y:    -0.2223      Z:    -2.6500     Total:     2.7054

*** Psi4 exiting successfully. Buy a developer a beer!
