                               Psi4 1.3.2 release

  ==> Input File <==

--------------------------------------------------------------------------
#psi4
#
memory 32 gb

molecule  {
0 1
  S        1.8142300     0.7226310    -0.3411240
  O       -1.8432130    -0.9348080    -0.8000930
  O        0.4941690    -1.0618130     1.1146640
  C       -0.8273310     0.8335030     0.4756360
  C       -3.3832440     0.5955310     0.2374230
  C       -2.0096370     0.0521440    -0.0950140
  C        0.4326040    -0.0039200     0.5084100
  C       -4.4921710    -0.2737260    -0.3334663
  C        3.0576300    -0.5565920    -0.0082180
  C        4.4432860    -0.0468870    -0.3740170
  H       -0.6942050     1.7459430    -0.1201930
  H       -1.0474180     1.1506300     1.5016930
  H       -3.4213414     0.7453771     1.3242482
  H       -3.4442640     1.6111560    -0.1826160
  H       -5.4818800     0.1657790    -0.0500790
  H       -4.4326880    -0.4035450    -1.3660960
  H       -4.4661600    -1.2732880     0.1669010
  H        2.9964590    -0.8086780     1.0500210
  H        2.8025100    -1.4530070    -0.5759610
  H        4.5013120     0.2245390    -1.4310650
  H        4.7086350     0.8297180     0.2214350
  H        5.1861620    -0.8265290    -0.1846820
units angstrom
no_reorient  #important for SAPT in psi4, default
symmetry c1  #important for SAPT in psi4, default
}

set PROPERTIES_ORIGIN ["COM"]
properties('MP2/aug-cc-pvtz', properties = ['dipole'])
--------------------------------------------------------------------------

    Molecular point group: c1
  Charge       = 0
  Multiplicity = 1
  Basis Set: AUG-CC-PVTZ
    Blend: AUG-CC-PVTZ
  Basis Set: (AUG-CC-PVTZ AUX)
    Blend: AUG-CC-PVTZ-JKFIT

    Orbital Energies [Eh]
    ---------------------

    Doubly Occupied:

       1A    -91.972036     2A    -20.555124     3A    -20.554992
       4A    -11.367332     5A    -11.345380     6A    -11.266656
       7A    -11.262560     8A    -11.250447     9A    -11.231595
      10A    -11.223454    11A     -8.973648    12A     -6.654802
      13A     -6.653673    14A     -6.653059    15A     -1.397236
      16A     -1.383794    17A     -1.093929    18A     -1.077430
      19A     -1.042744    20A     -0.972066    21A     -0.897048
      22A     -0.837799    23A     -0.760166    24A     -0.726876
      25A     -0.677893    26A     -0.667977    27A     -0.648071
      28A     -0.638497    29A     -0.633849    30A     -0.608750
      31A     -0.595172    32A     -0.560008    33A     -0.544344
      34A     -0.535038    35A     -0.527575    36A     -0.524017
      37A     -0.510505    38A     -0.502731    39A     -0.487787
      40A     -0.465257    41A     -0.429271    42A     -0.405905
      43A     -0.371061

  @DF-RHF Final Energy:  -819.49117004681739

   => Energetics <=

    Nuclear Repulsion Energy =            603.6650975053526054
    One-Electron Energy =               -2323.3374237627062939
    Two-Electron Energy =                 900.1811562105363009
    Total Energy =                       -819.4911700468173876
  Basis Set: (AUG-CC-PVTZ AUX)
    Blend: AUG-CC-PVTZ-RI
    Molecular point group: c1

    Geometry (in Angstrom), charge = 0, multiplicity = 1:

       Center              X                  Y                   Z               Mass
    ------------   -----------------  -----------------  -----------------  -----------------
         S            1.812569589544     0.722066669679    -0.337440991089    31.972071174400
         O           -1.844873410456    -0.935372330321    -0.796409991089    15.994914619570
         O            0.492508589544    -1.062377330321     1.118347008911    15.994914619570
         C           -0.828991410456     0.832938669679     0.479319008911    12.000000000000
         C           -3.384904410456     0.594966669679     0.241106008911    12.000000000000
         C           -2.011297410456     0.051579669679    -0.091330991089    12.000000000000
         C            0.430943589544    -0.004484330321     0.512093008911    12.000000000000
         C           -4.493831410456    -0.274290330321    -0.329783291089    12.000000000000
         C            3.055969589544    -0.557156330321    -0.004534991089    12.000000000000
         C            4.441625589544    -0.047451330321    -0.370333991089    12.000000000000
         H           -0.695865410456     1.745378669679    -0.116509991089     1.007825032230
         H           -1.049078410456     1.150065669679     1.505376008911     1.007825032230
         H           -3.423001810456     0.744812769679     1.327931208911     1.007825032230
         H           -3.445924410456     1.610591669679    -0.178932991089     1.007825032230
         H           -5.483540410456     0.165214669679    -0.046395991089     1.007825032230
         H           -4.434348410456    -0.404109330321    -1.362412991089     1.007825032230
         H           -4.467820410456    -1.273852330321     0.170584008911     1.007825032230
         H            2.994798589544    -0.809242330321     1.053704008911     1.007825032230
         H            2.800849589544    -1.453571330321    -0.572277991089     1.007825032230
         H            4.499651589544     0.223974669679    -1.427381991089     1.007825032230
         H            4.706974589544     0.829153669679     0.225118008911     1.007825032230
         H            5.184501589544    -0.827093330321    -0.180998991089     1.007825032230

  Basis Set: AUG-CC-PVTZ
    Blend: AUG-CC-PVTZ
  Basis Set: (AUG-CC-PVTZ AUX)
    Blend: AUG-CC-PVTZ-JKFIT
	 Reference Energy          =    -819.4911700468173876 [Eh]
	 Singles Energy            =      -0.0000000000000000 [Eh]
	 Same-Spin Energy          =      -0.4843204815925071 [Eh]
	 Opposite-Spin Energy      =      -1.5712169630721062 [Eh]
	 Correlation Energy        =      -2.0555374446646133 [Eh]
	 Total Energy              =    -821.5467074914820387 [Eh]

	 ================> DF-SCS-MP2 Energies <==================
	-----------------------------------------------------------
	 SCS Same-Spin Scale       =       0.3333333333333333 [-]
	 SCS Opposite-Spin Scale   =       1.2000000000000000 [-]
	 SCS Same-Spin Energy      =      -0.1614401605308357 [Eh]
	 SCS Opposite-Spin Energy  =      -1.8854603556865275 [Eh]
	 SCS Correlation Energy    =      -2.0469005162173630 [Eh]
	 SCS Total Energy          =    -821.5380705630348075 [Eh]
	-----------------------------------------------------------

  Dipole Moment: [D]
     X:    -0.0003      Y:     2.8443      Z:     0.6683     Total:     2.9217

*** Psi4 exiting successfully. Buy a developer a beer!
