                               Psi4 1.3.2 release

  ==> Input File <==

--------------------------------------------------------------------------
#psi4
#
memory 32 gb

molecule  {
0 1
  S        1.8490956     0.6745165    -0.3233053
  O       -1.8432130    -0.9348080    -0.8000930
  O        0.5352922    -1.0647398     1.1038831
  C       -0.8273310     0.8335030     0.4756360
  C       -3.3832440     0.5955310     0.2374230
  C       -2.0096370     0.0521440    -0.0950140
  C        0.4326040    -0.0039200     0.5084100
  C       -4.5116740    -0.2794210    -0.2844450
  C        3.0576300    -0.5565920    -0.0082180
  C        4.4432860    -0.0468870    -0.3740170
  H       -0.6942050     1.7459430    -0.1201930
  H       -1.0474180     1.1506300     1.5016930
  H       -3.4528060     0.7235440     1.3254800
  H       -3.4442640     1.6111560    -0.1826160
  H       -5.4818800     0.1657790    -0.0500790
  H       -4.4326880    -0.4035450    -1.3660960
  H       -4.4661600    -1.2732880     0.1669010
  H        2.9964590    -0.8086780     1.0500210
  H        2.8025100    -1.4530070    -0.5759610
  H        4.5013120     0.2245390    -1.4310650
  H        4.7086350     0.8297180     0.2214350
  H        5.1861620    -0.8265290    -0.1846820
units angstrom
no_reorient  #important for SAPT in psi4, default
symmetry c1  #important for SAPT in psi4, default
}

set PROPERTIES_ORIGIN ["COM"]
properties('MP2/aug-cc-pvtz', properties = ['dipole'])
--------------------------------------------------------------------------

    Molecular point group: c1
  Charge       = 0
  Multiplicity = 1
  Basis Set: AUG-CC-PVTZ
    Blend: AUG-CC-PVTZ
  Basis Set: (AUG-CC-PVTZ AUX)
    Blend: AUG-CC-PVTZ-JKFIT

    Orbital Energies [Eh]
    ---------------------

    Doubly Occupied:

       1A    -91.966634     2A    -20.557303     3A    -20.554411
       4A    -11.367869     5A    -11.347977     6A    -11.270450
       7A    -11.256046     8A    -11.251252     9A    -11.231243
      10A    -11.223305    11A     -8.969486    12A     -6.650698
      13A     -6.649668    14A     -6.648941    15A     -1.398238
      16A     -1.385578    17A     -1.099854    18A     -1.081166
      19A     -1.044223    20A     -0.971151    21A     -0.898300
      22A     -0.838067    23A     -0.760293    24A     -0.727775
      25A     -0.680304    26A     -0.671024    27A     -0.650003
      28A     -0.639507    29A     -0.635897    30A     -0.609964
      31A     -0.596987    32A     -0.558189    33A     -0.547225
      34A     -0.534473    35A     -0.527623    36A     -0.522015
      37A     -0.512614    38A     -0.504973    39A     -0.490128
      40A     -0.470127    41A     -0.430300    42A     -0.404762
      43A     -0.365719

  @DF-RHF Final Energy:  -819.49273591973986

   => Energetics <=

    Nuclear Repulsion Energy =            604.7875011811155446
    One-Electron Energy =               -2325.5569533500806756
    Two-Electron Energy =                 901.2767162492251600
    Total Energy =                       -819.4927359197398573
  Basis Set: (AUG-CC-PVTZ AUX)
    Blend: AUG-CC-PVTZ-RI
    Molecular point group: c1

    Geometry (in Angstrom), charge = 0, multiplicity = 1:

       Center              X                  Y                   Z               Mass
    ------------   -----------------  -----------------  -----------------  -----------------
         S            1.838021343257     0.684420256877    -0.325787379787    31.972071174400
         O           -1.854287256743    -0.924904243123    -0.802575079787    15.994914619570
         O            0.524217943257    -1.054836043123     1.101401020213    15.994914619570
         C           -0.838405256743     0.843406756877     0.473153920213    12.000000000000
         C           -3.394318256743     0.605434756877     0.234940920213    12.000000000000
         C           -2.020711256743     0.062047756877    -0.097496079787    12.000000000000
         C            0.421529743257     0.005983756877     0.505927920213    12.000000000000
         C           -4.522748256743    -0.269517243123    -0.286927079787    12.000000000000
         C            3.046555743257    -0.546688243123    -0.010700079787    12.000000000000
         C            4.432211743257    -0.036983243123    -0.376499079787    12.000000000000
         H           -0.705279256743     1.755846756877    -0.122675079787     1.007825032230
         H           -1.058492256743     1.160533756877     1.499210920213     1.007825032230
         H           -3.463880256743     0.733447756877     1.322997920213     1.007825032230
         H           -3.455338256743     1.621059756877    -0.185098079787     1.007825032230
         H           -5.492954256743     0.175682756877    -0.052561079787     1.007825032230
         H           -4.443762256743    -0.393641243123    -1.368578079787     1.007825032230
         H           -4.477234256743    -1.263384243123     0.164418920213     1.007825032230
         H            2.985384743257    -0.798774243123     1.047538920213     1.007825032230
         H            2.791435743257    -1.443103243123    -0.578443079787     1.007825032230
         H            4.490237743257     0.234442756877    -1.433547079787     1.007825032230
         H            4.697560743257     0.839621756877     0.218952920213     1.007825032230
         H            5.175087743257    -0.816625243123    -0.187164079787     1.007825032230

  Basis Set: AUG-CC-PVTZ
    Blend: AUG-CC-PVTZ
  Basis Set: (AUG-CC-PVTZ AUX)
    Blend: AUG-CC-PVTZ-JKFIT
	 Reference Energy          =    -819.4927359197398573 [Eh]
	 Singles Energy            =      -0.0000000000000000 [Eh]
	 Same-Spin Energy          =      -0.4846362433741893 [Eh]
	 Opposite-Spin Energy      =      -1.5707642413397140 [Eh]
	 Correlation Energy        =      -2.0554004847139034 [Eh]
	 Total Energy              =    -821.5481364044537713 [Eh]

	 ================> DF-SCS-MP2 Energies <==================
	-----------------------------------------------------------
	 SCS Same-Spin Scale       =       0.3333333333333333 [-]
	 SCS Opposite-Spin Scale   =       1.2000000000000000 [-]
	 SCS Same-Spin Energy      =      -0.1615454144580631 [Eh]
	 SCS Opposite-Spin Energy  =      -1.8849170896076568 [Eh]
	 SCS Correlation Energy    =      -2.0464625040657198 [Eh]
	 SCS Total Energy          =    -821.5391984238056011 [Eh]
	-----------------------------------------------------------

  Dipole Moment: [D]
     X:    -0.1736      Y:     2.8281      Z:     0.7243     Total:     2.9245

*** Psi4 exiting successfully. Buy a developer a beer!
