                               Psi4 1.3.2 release

  ==> Input File <==

--------------------------------------------------------------------------
#psi4
#
memory 32 gb

molecule  {
0 1
  S        1.8142300     0.7226310    -0.3411240
  O       -1.8432130    -0.9348080    -0.8000930
  O        0.4941690    -1.0618130     1.1146640
  C       -0.8273310     0.8335030     0.4756360
  C       -3.3832440     0.5955310     0.2374230
  C       -2.0096370     0.0521440    -0.0950140
  C        0.4264430    -0.0127879     0.5160111
  C       -4.5116740    -0.2794210    -0.2844450
  C        3.0576300    -0.5565920    -0.0082180
  C        4.4432860    -0.0468870    -0.3740170
  H       -0.7032628     1.7484385    -0.1183182
  H       -1.0474180     1.1506300     1.5016930
  H       -3.4528060     0.7235440     1.3254800
  H       -3.4442640     1.6111560    -0.1826160
  H       -5.4818800     0.1657790    -0.0500790
  H       -4.4326880    -0.4035450    -1.3660960
  H       -4.4661600    -1.2732880     0.1669010
  H        2.9964590    -0.8086780     1.0500210
  H        2.8025100    -1.4530070    -0.5759610
  H        4.5013120     0.2245390    -1.4310650
  H        4.7086350     0.8297180     0.2214350
  H        5.1861620    -0.8265290    -0.1846820
units angstrom
no_reorient  #important for SAPT in psi4, default
symmetry c1  #important for SAPT in psi4, default
}

set PROPERTIES_ORIGIN ["COM"]
properties('MP2/aug-cc-pvtz', properties = ['dipole'])
--------------------------------------------------------------------------

    Molecular point group: c1
  Charge       = 0
  Multiplicity = 1
  Basis Set: AUG-CC-PVTZ
    Blend: AUG-CC-PVTZ
  Basis Set: (AUG-CC-PVTZ AUX)
    Blend: AUG-CC-PVTZ-JKFIT

    Orbital Energies [Eh]
    ---------------------

    Doubly Occupied:

       1A    -91.970155     2A    -20.557354     3A    -20.555952
       4A    -11.367516     5A    -11.346350     6A    -11.267028
       7A    -11.261722     8A    -11.250094     9A    -11.230909
      10A    -11.222494    11A     -8.971649    12A     -6.652782
      13A     -6.651677    14A     -6.651050    15A     -1.404119
      16A     -1.386452    17A     -1.092732    18A     -1.076952
      19A     -1.042723    20A     -0.969901    21A     -0.896209
      22A     -0.836426    23A     -0.760232    24A     -0.728080
      25A     -0.678717    26A     -0.669020    27A     -0.650566
      28A     -0.638037    29A     -0.633501    30A     -0.609795
      31A     -0.595323    32A     -0.560481    33A     -0.547449
      34A     -0.534175    35A     -0.527219    36A     -0.520986
      37A     -0.511979    38A     -0.506003    39A     -0.489287
      40A     -0.464527    41A     -0.429924    42A     -0.404801
      43A     -0.369943

  @DF-RHF Final Energy:  -819.49567993116239

   => Energetics <=

    Nuclear Repulsion Energy =            603.4338902759716348
    One-Electron Energy =               -2322.8745570487685654
    Two-Electron Energy =                 899.9449868416345453
    Total Energy =                       -819.4956799311623854
  Basis Set: (AUG-CC-PVTZ AUX)
    Blend: AUG-CC-PVTZ-RI
    Molecular point group: c1

    Geometry (in Angstrom), charge = 0, multiplicity = 1:

       Center              X                  Y                   Z               Mass
    ------------   -----------------  -----------------  -----------------  -----------------
         S            1.814748876314     0.723280269664    -0.341705751915    31.972071174400
         O           -1.842694123686    -0.934158730336    -0.800674751915    15.994914619570
         O            0.494687876314    -1.061163730336     1.114082248085    15.994914619570
         C           -0.826812123686     0.834152269664     0.475054248085    12.000000000000
         C           -3.382725123686     0.596180269664     0.236841248085    12.000000000000
         C           -2.009118123686     0.052793269664    -0.095595751915    12.000000000000
         C            0.426961876314    -0.012138630336     0.515429348085    12.000000000000
         C           -4.511155123686    -0.278771730336    -0.285026751915    12.000000000000
         C            3.058148876314    -0.555942730336    -0.008799751915    12.000000000000
         C            4.443804876314    -0.046237730336    -0.374598751915    12.000000000000
         H           -0.702743923686     1.749087769664    -0.118899951915     1.007825032230
         H           -1.046899123686     1.151279269664     1.501111248085     1.007825032230
         H           -3.452287123686     0.724193269664     1.324898248085     1.007825032230
         H           -3.443745123686     1.611805269664    -0.183197751915     1.007825032230
         H           -5.481361123686     0.166428269664    -0.050660751915     1.007825032230
         H           -4.432169123686    -0.402895730336    -1.366677751915     1.007825032230
         H           -4.465641123686    -1.272638730336     0.166319248085     1.007825032230
         H            2.996977876314    -0.808028730336     1.049439248085     1.007825032230
         H            2.803028876314    -1.452357730336    -0.576542751915     1.007825032230
         H            4.501830876314     0.225188269664    -1.431646751915     1.007825032230
         H            4.709153876314     0.830367269664     0.220853248085     1.007825032230
         H            5.186680876314    -0.825879730336    -0.185263751915     1.007825032230

  Basis Set: AUG-CC-PVTZ
    Blend: AUG-CC-PVTZ
  Basis Set: (AUG-CC-PVTZ AUX)
    Blend: AUG-CC-PVTZ-JKFIT
	 Reference Energy          =    -819.4956799311623854 [Eh]
	 Singles Energy            =      -0.0000000000000000 [Eh]
	 Same-Spin Energy          =      -0.4839046215549767 [Eh]
	 Opposite-Spin Energy      =      -1.5704463450124311 [Eh]
	 Correlation Energy        =      -2.0543509665674078 [Eh]
	 Total Energy              =    -821.5500308977298118 [Eh]

	 ================> DF-SCS-MP2 Energies <==================
	-----------------------------------------------------------
	 SCS Same-Spin Scale       =       0.3333333333333333 [-]
	 SCS Opposite-Spin Scale   =       1.2000000000000000 [-]
	 SCS Same-Spin Energy      =      -0.1613015405183255 [Eh]
	 SCS Opposite-Spin Energy  =      -1.8845356140149172 [Eh]
	 SCS Correlation Energy    =      -2.0458371545332428 [Eh]
	 SCS Total Energy          =    -821.5415170856956593 [Eh]
	-----------------------------------------------------------

  Dipole Moment: [D]
     X:    -0.0965      Y:     2.7869      Z:     0.7394     Total:     2.8849

*** Psi4 exiting successfully. Buy a developer a beer!
