                               Psi4 1.4a3.dev225

  ==> Input File <==

--------------------------------------------------------------------------
#psi4
#
memory 32 gb

molecule  {
0 1
  S        1.5586770    -0.2994370    -0.7152220
  O       -1.5255240    -0.4876820     1.0921970
  O        0.7924220     1.7006740     0.8461850
  C       -0.8878030     0.9736540    -0.7120840
  C       -3.2304390    -0.0998550    -0.5631210
  C       -1.8542380     0.0638590     0.0480780
  C        0.4791140     0.9485020    -0.0654040
  C       -4.1634610    -0.9398430     0.2972900
  C        2.9497330    -0.0790050     0.4324980
  C        4.0540790    -1.0751370     0.1033520
  H       -0.8491784     0.6810900    -1.7476407
  H       -1.2645150     2.0025910    -0.6674260
  H       -3.6447290     0.9013370    -0.7419330
  H       -3.1015980    -0.5455960    -1.5588690
  H       -5.1413450    -1.0357370    -0.1813640
  H       -3.7504260    -1.9381500     0.4523140
  H       -4.2995020    -0.4825820     1.2793320
  H        3.3022180     0.9509290     0.3487650
  H        2.5726230    -0.2199470     1.4475820
  H        3.7004310    -2.1050230     0.1947960
  H        4.4320470    -0.9299840    -0.9117720
  H        4.8873260    -0.9394890     0.7982930
units angstrom
no_reorient  #important for SAPT in psi4, default
symmetry c1  #important for SAPT in psi4, default
}

set PROPERTIES_ORIGIN ["COM"]
properties('MP2/aug-cc-pvtz', properties = ['dipole'])
--------------------------------------------------------------------------

    Molecular point group: c1
  Charge       = 0
  Multiplicity = 1
  Basis Set: AUG-CC-PVTZ
    Blend: AUG-CC-PVTZ
  Basis Set: (AUG-CC-PVTZ AUX)
    Blend: AUG-CC-PVTZ-JKFIT

    Orbital Energies [Eh]
    ---------------------

    Doubly Occupied:

       1A    -91.968412     2A    -20.559112     3A    -20.554842
       4A    -11.365253     5A    -11.349759     6A    -11.264109
       7A    -11.261616     8A    -11.252438     9A    -11.230072
      10A    -11.224574    11A     -8.970204    12A     -6.651399
      13A     -6.650256    14A     -6.649619    15A     -1.396688
      16A     -1.385479    17A     -1.093809    18A     -1.077183
      19A     -1.044147    20A     -0.969893    21A     -0.897879
      22A     -0.836180    23A     -0.760908    24A     -0.727742
      25A     -0.679115    26A     -0.670757    27A     -0.649232
      28A     -0.636687    29A     -0.632444    30A     -0.611093
      31A     -0.592242    32A     -0.559912    33A     -0.546303
      34A     -0.530925    35A     -0.526361    36A     -0.522312
      37A     -0.513250    38A     -0.504412    39A     -0.493923
      40A     -0.462705    41A     -0.432187    42A     -0.406540
      43A     -0.368096

  @DF-RHF Final Energy:  -819.49579700619381

   => Energetics <=

    Nuclear Repulsion Energy =            610.3285580079618740
    One-Electron Energy =               -2336.6885757482950794
    Two-Electron Energy =                 906.8642207341393942
    Total Energy =                       -819.4957970061938113
  Basis Set: (AUG-CC-PVTZ AUX)
    Blend: AUG-CC-PVTZ-RI
    Molecular point group: c1

    Geometry (in Angstrom), charge = 0, multiplicity = 1:

       Center              X                  Y                   Z               Mass
    ------------   -----------------  -----------------  -----------------  -----------------
         S            1.539366866949    -0.322210166433    -0.723509317032    31.972071174400
         O           -1.544834133051    -0.510455166433     1.083909682968    15.994914619570
         O            0.773111866949     1.677900833567     0.837897682968    15.994914619570
         C           -0.907113133051     0.950880833567    -0.720371317032    12.000000000000
         C           -3.249749133051    -0.122628166433    -0.571408317032    12.000000000000
         C           -1.873548133051     0.041085833567     0.039790682968    12.000000000000
         C            0.459803866949     0.925728833567    -0.073691317032    12.000000000000
         C           -4.182771133051    -0.962616166433     0.289002682968    12.000000000000
         C            2.930422866949    -0.101778166433     0.424210682968    12.000000000000
         C            4.034768866949    -1.097910166433     0.095064682968    12.000000000000
         H           -0.868488533051     0.658316833567    -1.755928017032     1.007825032230
         H           -1.283825133051     1.979817833567    -0.675713317032     1.007825032230
         H           -3.664039133051     0.878563833567    -0.750220317032     1.007825032230
         H           -3.120908133051    -0.568369166433    -1.567156317032     1.007825032230
         H           -5.160655133051    -1.058510166433    -0.189651317032     1.007825032230
         H           -3.769736133051    -1.960923166433     0.444026682968     1.007825032230
         H           -4.318812133051    -0.505355166433     1.271044682968     1.007825032230
         H            3.282907866949     0.928155833567     0.340477682968     1.007825032230
         H            2.553312866949    -0.242720166433     1.439294682968     1.007825032230
         H            3.681120866949    -2.127796166433     0.186508682968     1.007825032230
         H            4.412736866949    -0.952757166433    -0.920059317032     1.007825032230
         H            4.868015866949    -0.962262166433     0.790005682968     1.007825032230

  Basis Set: AUG-CC-PVTZ
    Blend: AUG-CC-PVTZ
  Basis Set: (AUG-CC-PVTZ AUX)
    Blend: AUG-CC-PVTZ-JKFIT
	 Reference Energy          =    -819.4957970061938113 [Eh]
	 Singles Energy            =      -0.0000000000000000 [Eh]
	 Same-Spin Energy          =      -0.4845143858391842 [Eh]
	 Opposite-Spin Energy      =      -1.5712408381145064 [Eh]
	 Correlation Energy        =      -2.0557552239536907 [Eh]
	 Total Energy              =    -821.5515522301475357 [Eh]

	 ================> DF-SCS-MP2 Energies <==================
	-----------------------------------------------------------
	 SCS Same-Spin Scale       =       0.3333333333333333 [-]
	 SCS Opposite-Spin Scale   =       1.2000000000000000 [-]
	 SCS Same-Spin Energy      =      -0.1615047952797281 [Eh]
	 SCS Opposite-Spin Energy  =      -1.8854890057374076 [Eh]
	 SCS Correlation Energy    =      -2.0469938010171358 [Eh]
	 SCS Total Energy          =    -821.5427908072109631 [Eh]
	-----------------------------------------------------------

  Dipole Moment: [D]
     X:    -0.7546      Y:    -0.2152      Z:    -2.6919     Total:     2.8039

*** Psi4 exiting successfully. Buy a developer a beer!
