                               Psi4 1.3.2 release

  ==> Input File <==

--------------------------------------------------------------------------
#psi4
#
memory 32 gb

molecule  {
0 1
  S        1.8052489     0.7345236    -0.3454178
  O       -1.8432130    -0.9348080    -0.8000930
  O        0.4838745    -1.0608797     1.1172443
  C       -0.8273310     0.8335030     0.4756360
  C       -3.3832440     0.5955310     0.2374230
  C       -2.0096370     0.0521440    -0.0950140
  C        0.4326040    -0.0039200     0.5084100
  C       -4.5116740    -0.2794210    -0.2844450
  C        3.0576300    -0.5565920    -0.0082180
  C        4.4432860    -0.0468870    -0.3740170
  H       -0.6942050     1.7459430    -0.1201930
  H       -1.0474180     1.1506300     1.5016930
  H       -3.4528060     0.7235440     1.3254800
  H       -3.4442640     1.6111560    -0.1826160
  H       -5.4818800     0.1657790    -0.0500790
  H       -4.4326880    -0.4035450    -1.3660960
  H       -4.4661600    -1.2732880     0.1669010
  H        2.9964590    -0.8086780     1.0500210
  H        2.8025100    -1.4530070    -0.5759610
  H        4.5013120     0.2245390    -1.4310650
  H        4.7086350     0.8297180     0.2214350
  H        5.1861620    -0.8265290    -0.1846820
units angstrom
no_reorient  #important for SAPT in psi4, default
symmetry c1  #important for SAPT in psi4, default
}

set PROPERTIES_ORIGIN ["COM"]
properties('MP2/aug-cc-pvtz', properties = ['dipole'])
--------------------------------------------------------------------------

    Molecular point group: c1
  Charge       = 0
  Multiplicity = 1
  Basis Set: AUG-CC-PVTZ
    Blend: AUG-CC-PVTZ
  Basis Set: (AUG-CC-PVTZ AUX)
    Blend: AUG-CC-PVTZ-JKFIT

    Orbital Energies [Eh]
    ---------------------

    Doubly Occupied:

       1A    -91.973370     2A    -20.555228     3A    -20.555109
       4A    -11.367346     5A    -11.345609     6A    -11.265896
       7A    -11.264284     8A    -11.249537     9A    -11.231790
      10A    -11.222040    11A     -8.974708    12A     -6.655848
      13A     -6.654692    14A     -6.654103    15A     -1.397185
      16A     -1.383563    17A     -1.092794    18A     -1.076100
      19A     -1.042318    20A     -0.972305    21A     -0.895617
      22A     -0.837693    23A     -0.759937    24A     -0.726686
      25A     -0.677604    26A     -0.667609    27A     -0.647641
      28A     -0.637192    29A     -0.633515    30A     -0.608298
      31A     -0.594615    32A     -0.560256    33A     -0.545811
      34A     -0.532843    35A     -0.527139    36A     -0.520513
      37A     -0.511760    38A     -0.504603    39A     -0.488286
      40A     -0.463945    41A     -0.429624    42A     -0.406526
      43A     -0.372350

  @DF-RHF Final Energy:  -819.49442882200537

   => Energetics <=

    Nuclear Repulsion Energy =            603.1257529551966172
    One-Electron Energy =               -2322.2725862385359505
    Two-Electron Energy =                 899.6524044613338447
    Total Energy =                       -819.4944288220053750
  Basis Set: (AUG-CC-PVTZ AUX)
    Blend: AUG-CC-PVTZ-RI
    Molecular point group: c1

    Geometry (in Angstrom), charge = 0, multiplicity = 1:

       Center              X                  Y                   Z               Mass
    ------------   -----------------  -----------------  -----------------  -----------------
         S            1.808071618708     0.732054839092    -0.344818009788    31.972071174400
         O           -1.840390281292    -0.937276760908    -0.799493209788    15.994914619570
         O            0.486697218708    -1.063348460908     1.117844090212    15.994914619570
         C           -0.824508281292     0.831034239092     0.476235790212    12.000000000000
         C           -3.380421281292     0.593062239092     0.238022790212    12.000000000000
         C           -2.006814281292     0.049675239092    -0.094414209788    12.000000000000
         C            0.435426718708    -0.006388760908     0.509009790212    12.000000000000
         C           -4.508851281292    -0.281889760908    -0.283845209788    12.000000000000
         C            3.060452718708    -0.559060760908    -0.007618209788    12.000000000000
         C            4.446108718708    -0.049355760908    -0.373417209788    12.000000000000
         H           -0.691382281292     1.743474239092    -0.119593209788     1.007825032230
         H           -1.044595281292     1.148161239092     1.502292790212     1.007825032230
         H           -3.449983281292     0.721075239092     1.326079790212     1.007825032230
         H           -3.441441281292     1.608687239092    -0.182016209788     1.007825032230
         H           -5.479057281292     0.163310239092    -0.049479209788     1.007825032230
         H           -4.429865281292    -0.406013760908    -1.365496209788     1.007825032230
         H           -4.463337281292    -1.275756760908     0.167500790212     1.007825032230
         H            2.999281718708    -0.811146760908     1.050620790212     1.007825032230
         H            2.805332718708    -1.455475760908    -0.575361209788     1.007825032230
         H            4.504134718708     0.222070239092    -1.430465209788     1.007825032230
         H            4.711457718708     0.827249239092     0.222034790212     1.007825032230
         H            5.188984718708    -0.828997760908    -0.184082209788     1.007825032230

  Basis Set: AUG-CC-PVTZ
    Blend: AUG-CC-PVTZ
  Basis Set: (AUG-CC-PVTZ AUX)
    Blend: AUG-CC-PVTZ-JKFIT
	 Reference Energy          =    -819.4944288220053750 [Eh]
	 Singles Energy            =      -0.0000000000000000 [Eh]
	 Same-Spin Energy          =      -0.4841414303848690 [Eh]
	 Opposite-Spin Energy      =      -1.5711852536679176 [Eh]
	 Correlation Energy        =      -2.0553266840527868 [Eh]
	 Total Energy              =    -821.5497555060582044 [Eh]

	 ================> DF-SCS-MP2 Energies <==================
	-----------------------------------------------------------
	 SCS Same-Spin Scale       =       0.3333333333333333 [-]
	 SCS Opposite-Spin Scale   =       1.2000000000000000 [-]
	 SCS Same-Spin Energy      =      -0.1613804767949563 [Eh]
	 SCS Opposite-Spin Energy  =      -1.8854223044015010 [Eh]
	 SCS Correlation Energy    =      -2.0468027811964573 [Eh]
	 SCS Total Energy          =    -821.5412316032018225 [Eh]
	-----------------------------------------------------------

  Dipole Moment: [D]
     X:     0.0472      Y:     2.8346      Z:     0.6728     Total:     2.9138

*** Psi4 exiting successfully. Buy a developer a beer!
