                               Psi4 1.3.2 release

  ==> Input File <==

--------------------------------------------------------------------------
#psi4
#
memory 32 gb

molecule  {
0 1
  S        1.8142300     0.7226310    -0.3411240
  O       -1.8432130    -0.9348080    -0.8000930
  O        0.4941690    -1.0618130     1.1146640
  C       -0.8273310     0.8335030     0.4756360
  C       -3.3832440     0.5955310     0.2374230
  C       -2.0096370     0.0521440    -0.0950140
  C        0.4688196    -0.0517713     0.5241198
  C       -4.5116740    -0.2794210    -0.2844450
  C        3.0139087    -0.5891162     0.0240772
  C        4.4432860    -0.0468870    -0.3740170
  H       -0.6942050     1.7459430    -0.1201930
  H       -1.0474180     1.1506300     1.5016930
  H       -3.4528060     0.7235440     1.3254800
  H       -3.4442640     1.6111560    -0.1826160
  H       -5.4818800     0.1657790    -0.0500790
  H       -4.4326880    -0.4035450    -1.3660960
  H       -4.4661600    -1.2732880     0.1669010
  H        2.9964590    -0.8086780     1.0500210
  H        2.8025100    -1.4530070    -0.5759610
  H        4.5013120     0.2245390    -1.4310650
  H        4.7086350     0.8297180     0.2214350
  H        5.1861620    -0.8265290    -0.1846820
units angstrom
no_reorient  #important for SAPT in psi4, default
symmetry c1  #important for SAPT in psi4, default
}

set PROPERTIES_ORIGIN ["COM"]
properties('MP2/aug-cc-pvtz', properties = ['dipole'])
--------------------------------------------------------------------------

    Molecular point group: c1
  Charge       = 0
  Multiplicity = 1
  Basis Set: AUG-CC-PVTZ
    Blend: AUG-CC-PVTZ
  Basis Set: (AUG-CC-PVTZ AUX)
    Blend: AUG-CC-PVTZ-JKFIT

    Orbital Energies [Eh]
    ---------------------

    Doubly Occupied:

       1A    -91.970695     2A    -20.560775     3A    -20.553202
       4A    -11.363135     5A    -11.342869     6A    -11.263243
       7A    -11.259829     8A    -11.247769     9A    -11.232929
      10A    -11.220949    11A     -8.972493    12A     -6.653645
      13A     -6.652385    14A     -6.651768    15A     -1.431039
      16A     -1.385608    17A     -1.088555    18A     -1.072691
      19A     -1.032347    20A     -0.966465    21A     -0.891803
      22A     -0.841720    23A     -0.756089    24A     -0.727547
      25A     -0.676872    26A     -0.666849    27A     -0.653622
      28A     -0.642426    29A     -0.635568    30A     -0.609141
      31A     -0.593691    32A     -0.561570    33A     -0.555064
      34A     -0.535608    35A     -0.522328    36A     -0.518316
      37A     -0.513143    38A     -0.507448    39A     -0.487830
      40A     -0.468330    41A     -0.428118    42A     -0.398415
      43A     -0.374303

  @DF-RHF Final Energy:  -819.49097730795859

   => Energetics <=

    Nuclear Repulsion Energy =            603.7516213692643987
    One-Electron Energy =               -2323.5088129687273977
    Two-Electron Energy =                 900.2662142915045251
    Total Energy =                       -819.4909773079585875
  Basis Set: (AUG-CC-PVTZ AUX)
    Blend: AUG-CC-PVTZ-RI
    Molecular point group: c1

    Geometry (in Angstrom), charge = 0, multiplicity = 1:

       Center              X                  Y                   Z               Mass
    ------------   -----------------  -----------------  -----------------  -----------------
         S            1.814792659309     0.728657183359    -0.344723182881    31.972071174400
         O           -1.842650340691    -0.928781816641    -0.803692182881    15.994914619570
         O            0.494731659309    -1.055786816641     1.111064817119    15.994914619570
         C           -0.826768340691     0.839529183359     0.472036817119    12.000000000000
         C           -3.382681340691     0.601557183359     0.233823817119    12.000000000000
         C           -2.009074340691     0.058170183359    -0.098613182881    12.000000000000
         C            0.469382259309    -0.045745116641     0.520520617119    12.000000000000
         C           -4.511111340691    -0.273394816641    -0.288044182881    12.000000000000
         C            3.014471359309    -0.583090016641     0.020478017119    12.000000000000
         C            4.443848659309    -0.040860816641    -0.377616182881    12.000000000000
         H           -0.693642340691     1.751969183359    -0.123792182881     1.007825032230
         H           -1.046855340691     1.156656183359     1.498093817119     1.007825032230
         H           -3.452243340691     0.729570183359     1.321880817119     1.007825032230
         H           -3.443701340691     1.617182183359    -0.186215182881     1.007825032230
         H           -5.481317340691     0.171805183359    -0.053678182881     1.007825032230
         H           -4.432125340691    -0.397518816641    -1.369695182881     1.007825032230
         H           -4.465597340691    -1.267261816641     0.163301817119     1.007825032230
         H            2.997021659309    -0.802651816641     1.046421817119     1.007825032230
         H            2.803072659309    -1.446980816641    -0.579560182881     1.007825032230
         H            4.501874659309     0.230565183359    -1.434664182881     1.007825032230
         H            4.709197659309     0.835744183359     0.217835817119     1.007825032230
         H            5.186724659309    -0.820502816641    -0.188281182881     1.007825032230

  Basis Set: AUG-CC-PVTZ
    Blend: AUG-CC-PVTZ
  Basis Set: (AUG-CC-PVTZ AUX)
    Blend: AUG-CC-PVTZ-JKFIT
	 Reference Energy          =    -819.4909773079585875 [Eh]
	 Singles Energy            =      -0.0000000000000000 [Eh]
	 Same-Spin Energy          =      -0.4826205875796371 [Eh]
	 Opposite-Spin Energy      =      -1.5684229478152045 [Eh]
	 Correlation Energy        =      -2.0510435353948417 [Eh]
	 Total Energy              =    -821.5420208433533844 [Eh]

	 ================> DF-SCS-MP2 Energies <==================
	-----------------------------------------------------------
	 SCS Same-Spin Scale       =       0.3333333333333333 [-]
	 SCS Opposite-Spin Scale   =       1.2000000000000000 [-]
	 SCS Same-Spin Energy      =      -0.1608735291932124 [Eh]
	 SCS Opposite-Spin Energy  =      -1.8821075373782454 [Eh]
	 SCS Correlation Energy    =      -2.0429810665714578 [Eh]
	 SCS Total Energy          =    -821.5339583745300160 [Eh]
	-----------------------------------------------------------

  Dipole Moment: [D]
     X:     0.1012      Y:     2.6758      Z:     0.7799     Total:     2.7890

*** Psi4 exiting successfully. Buy a developer a beer!
