                               Psi4 1.3.2 release

  ==> Input File <==

--------------------------------------------------------------------------
#psi4
#
memory 32 gb

molecule  {
0 1
  S        1.7991784     0.7025738    -0.3604714
  O       -1.8432130    -0.9348080    -0.8000930
  O        0.4941690    -1.0618130     1.1146640
  C       -0.8273310     0.8335030     0.4756360
  C       -3.3832440     0.5955310     0.2374230
  C       -2.0096370     0.0521440    -0.0950140
  C        0.4326040    -0.0039200     0.5084100
  C       -4.5116740    -0.2794210    -0.2844450
  C        3.0576300    -0.5565920    -0.0082180
  C        4.4432860    -0.0468870    -0.3740170
  H       -0.6942050     1.7459430    -0.1201930
  H       -1.0474180     1.1506300     1.5016930
  H       -3.4528060     0.7235440     1.3254800
  H       -3.4442640     1.6111560    -0.1826160
  H       -5.4818800     0.1657790    -0.0500790
  H       -4.4326880    -0.4035450    -1.3660960
  H       -4.4661600    -1.2732880     0.1669010
  H        2.9964590    -0.8086780     1.0500210
  H        2.7872362    -1.4440291    -0.5829533
  H        4.5013120     0.2245390    -1.4310650
  H        4.7086350     0.8297180     0.2214350
  H        5.1861620    -0.8265290    -0.1846820
units angstrom
no_reorient  #important for SAPT in psi4, default
symmetry c1  #important for SAPT in psi4, default
}

set PROPERTIES_ORIGIN ["COM"]
properties('MP2/aug-cc-pvtz', properties = ['dipole'])
--------------------------------------------------------------------------

    Molecular point group: c1
  Charge       = 0
  Multiplicity = 1
  Basis Set: AUG-CC-PVTZ
    Blend: AUG-CC-PVTZ
  Basis Set: (AUG-CC-PVTZ AUX)
    Blend: AUG-CC-PVTZ-JKFIT

    Orbital Energies [Eh]
    ---------------------

    Doubly Occupied:

       1A    -91.971601     2A    -20.555337     3A    -20.553839
       4A    -11.366280     5A    -11.345875     6A    -11.266477
       7A    -11.262990     8A    -11.249734     9A    -11.232269
      10A    -11.222174    11A     -8.973475    12A     -6.654641
      13A     -6.653511    14A     -6.652895    15A     -1.396917
      16A     -1.383601    17A     -1.094653    18A     -1.077156
      19A     -1.042693    20A     -0.973500    21A     -0.896129
      22A     -0.838642    23A     -0.759422    24A     -0.726381
      25A     -0.677945    26A     -0.668208    27A     -0.647918
      28A     -0.638266    29A     -0.633880    30A     -0.608559
      31A     -0.594729    32A     -0.559981    33A     -0.546516
      34A     -0.533230    35A     -0.528266    36A     -0.520749
      37A     -0.511894    38A     -0.504719    39A     -0.488437
      40A     -0.464425    41A     -0.429407    42A     -0.406712
      43A     -0.370891

  @DF-RHF Final Energy:  -819.49492523272102

   => Energetics <=

    Nuclear Repulsion Energy =            603.9420999835127759
    One-Electron Energy =               -2323.9041999345217846
    Two-Electron Energy =                 900.4671747182878789
    Total Energy =                       -819.4949252327210161
  Basis Set: (AUG-CC-PVTZ AUX)
    Blend: AUG-CC-PVTZ-RI
    Molecular point group: c1

    Geometry (in Angstrom), charge = 0, multiplicity = 1:

       Center              X                  Y                   Z               Mass
    ------------   -----------------  -----------------  -----------------  -----------------
         S            1.802281146844     0.706523932852    -0.356562679645    31.972071174400
         O           -1.840110253156    -0.930857867148    -0.796184279645    15.994914619570
         O            0.497271746844    -1.057862867148     1.118572720355    15.994914619570
         C           -0.824228253156     0.837453132852     0.479544720355    12.000000000000
         C           -3.380141253156     0.599481132852     0.241331720355    12.000000000000
         C           -2.006534253156     0.056094132852    -0.091105279645    12.000000000000
         C            0.435706746844     0.000030132852     0.512318720355    12.000000000000
         C           -4.508571253156    -0.275470867148    -0.280536279645    12.000000000000
         C            3.060732746844    -0.552641867148    -0.004309279645    12.000000000000
         C            4.446388746844    -0.042936867148    -0.370108279645    12.000000000000
         H           -0.691102253156     1.749893132852    -0.116284279645     1.007825032230
         H           -1.044315253156     1.154580132852     1.505601720355     1.007825032230
         H           -3.449703253156     0.727494132852     1.329388720355     1.007825032230
         H           -3.441161253156     1.615106132852    -0.178707279645     1.007825032230
         H           -5.478777253156     0.169729132852    -0.046170279645     1.007825032230
         H           -4.429585253156    -0.399594867148    -1.362187279645     1.007825032230
         H           -4.463057253156    -1.269337867148     0.170809720355     1.007825032230
         H            2.999561746844    -0.804727867148     1.053929720355     1.007825032230
         H            2.790338946844    -1.440078967148    -0.579044579645     1.007825032230
         H            4.504414746844     0.228489132852    -1.427156279645     1.007825032230
         H            4.711737746844     0.833668132852     0.225343720355     1.007825032230
         H            5.189264746844    -0.822578867148    -0.180773279645     1.007825032230

  Basis Set: AUG-CC-PVTZ
    Blend: AUG-CC-PVTZ
  Basis Set: (AUG-CC-PVTZ AUX)
    Blend: AUG-CC-PVTZ-JKFIT
	 Reference Energy          =    -819.4949252327210161 [Eh]
	 Singles Energy            =      -0.0000000000000000 [Eh]
	 Same-Spin Energy          =      -0.4842644982047580 [Eh]
	 Opposite-Spin Energy      =      -1.5709435792451154 [Eh]
	 Correlation Energy        =      -2.0552080774498735 [Eh]
	 Total Energy              =    -821.5501333101708497 [Eh]

	 ================> DF-SCS-MP2 Energies <==================
	-----------------------------------------------------------
	 SCS Same-Spin Scale       =       0.3333333333333333 [-]
	 SCS Opposite-Spin Scale   =       1.2000000000000000 [-]
	 SCS Same-Spin Energy      =      -0.1614214994015860 [Eh]
	 SCS Opposite-Spin Energy  =      -1.8851322950941385 [Eh]
	 SCS Correlation Energy    =      -2.0465537944957246 [Eh]
	 SCS Total Energy          =    -821.5414790272167238 [Eh]
	-----------------------------------------------------------

  Dipole Moment: [D]
     X:     0.0567      Y:     2.8519      Z:     0.6672     Total:     2.9295

*** Psi4 exiting successfully. Buy a developer a beer!
