                               Psi4 1.3.2 release

  ==> Input File <==

--------------------------------------------------------------------------
#psi4
#
memory 32 gb

molecule  {
0 1
  S        1.8142300     0.7226310    -0.3411240
  O       -1.8432130    -0.9348080    -0.8000930
  O        0.4941690    -1.0618130     1.1146640
  C       -0.8273310     0.8335030     0.4756360
  C       -3.3832440     0.5955310     0.2374230
  C       -2.0096370     0.0521440    -0.0950140
  C        0.4326040    -0.0039200     0.5084100
  C       -4.5298022    -0.2840500    -0.2347878
  C        3.0576300    -0.5565920    -0.0082180
  C        4.4432860    -0.0468870    -0.3740170
  H       -0.6942050     1.7459430    -0.1201930
  H       -1.0474180     1.1506300     1.5016930
  H       -3.4841858     0.7015549     1.3253862
  H       -3.4442640     1.6111560    -0.1826160
  H       -5.4818800     0.1657790    -0.0500790
  H       -4.4326880    -0.4035450    -1.3660960
  H       -4.4661600    -1.2732880     0.1669010
  H        2.9964590    -0.8086780     1.0500210
  H        2.8025100    -1.4530070    -0.5759610
  H        4.5013120     0.2245390    -1.4310650
  H        4.7086350     0.8297180     0.2214350
  H        5.1861620    -0.8265290    -0.1846820
units angstrom
no_reorient  #important for SAPT in psi4, default
symmetry c1  #important for SAPT in psi4, default
}

set PROPERTIES_ORIGIN ["COM"]
properties('MP2/aug-cc-pvtz', properties = ['dipole'])
--------------------------------------------------------------------------

    Molecular point group: c1
  Charge       = 0
  Multiplicity = 1
  Basis Set: AUG-CC-PVTZ
    Blend: AUG-CC-PVTZ
  Basis Set: (AUG-CC-PVTZ AUX)
    Blend: AUG-CC-PVTZ-JKFIT

    Orbital Energies [Eh]
    ---------------------

    Doubly Occupied:

       1A    -91.972230     2A    -20.556098     3A    -20.555243
       4A    -11.367631     5A    -11.346905     6A    -11.267076
       7A    -11.262696     8A    -11.249798     9A    -11.231690
      10A    -11.222220    11A     -8.973840    12A     -6.654992
      13A     -6.653864    14A     -6.653250    15A     -1.397590
      16A     -1.384227    17A     -1.094009    18A     -1.077182
      19A     -1.042981    20A     -0.972239    21A     -0.896079
      22A     -0.837770    23A     -0.760305    24A     -0.727092
      25A     -0.678587    26A     -0.668766    27A     -0.648298
      28A     -0.637162    29A     -0.634211    30A     -0.609448
      31A     -0.595866    32A     -0.559716    33A     -0.548576
      34A     -0.539176    35A     -0.527397    36A     -0.522527
      37A     -0.507898    38A     -0.498325    39A     -0.485395
      40A     -0.465368    41A     -0.430321    42A     -0.406934
      43A     -0.371244

  @DF-RHF Final Energy:  -819.49131074994307

   => Energetics <=

    Nuclear Repulsion Energy =            603.2277307227271876
    One-Electron Energy =               -2322.4536419442115402
    Two-Electron Energy =                 899.7346004715411709
    Total Energy =                       -819.4913107499430680
  Basis Set: (AUG-CC-PVTZ AUX)
    Blend: AUG-CC-PVTZ-RI
    Molecular point group: c1

    Geometry (in Angstrom), charge = 0, multiplicity = 1:

       Center              X                  Y                   Z               Mass
    ------------   -----------------  -----------------  -----------------  -----------------
         S            1.815786658572     0.723116635437    -0.344846464049    31.972071174400
         O           -1.841656341428    -0.934322364563    -0.803815464049    15.994914619570
         O            0.495725658572    -1.061327364563     1.110941535951    15.994914619570
         C           -0.825774341428     0.833988635437     0.471913535951    12.000000000000
         C           -3.381687341428     0.596016635437     0.233700535951    12.000000000000
         C           -2.008080341428     0.052629635437    -0.098736464049    12.000000000000
         C            0.434160658572    -0.003434364563     0.504687535951    12.000000000000
         C           -4.528245541428    -0.283564364563    -0.238510264049    12.000000000000
         C            3.059186658572    -0.556106364563    -0.011940464049    12.000000000000
         C            4.444842658572    -0.046401364563    -0.377739464049    12.000000000000
         H           -0.692648341428     1.746428635437    -0.123915464049     1.007825032230
         H           -1.045861341428     1.151115635437     1.497970535951     1.007825032230
         H           -3.482629141428     0.702040535437     1.321663735951     1.007825032230
         H           -3.442707341428     1.611641635437    -0.186338464049     1.007825032230
         H           -5.480323341428     0.166264635437    -0.053801464049     1.007825032230
         H           -4.431131341428    -0.403059364563    -1.369818464049     1.007825032230
         H           -4.464603341428    -1.272802364563     0.163178535951     1.007825032230
         H            2.998015658572    -0.808192364563     1.046298535951     1.007825032230
         H            2.804066658572    -1.452521364563    -0.579683464049     1.007825032230
         H            4.502868658572     0.225024635437    -1.434787464049     1.007825032230
         H            4.710191658572     0.830203635437     0.217712535951     1.007825032230
         H            5.187718658572    -0.826043364563    -0.188404464049     1.007825032230

  Basis Set: AUG-CC-PVTZ
    Blend: AUG-CC-PVTZ
  Basis Set: (AUG-CC-PVTZ AUX)
    Blend: AUG-CC-PVTZ-JKFIT
	 Reference Energy          =    -819.4913107499430680 [Eh]
	 Singles Energy            =      -0.0000000000000000 [Eh]
	 Same-Spin Energy          =      -0.4842465368618749 [Eh]
	 Opposite-Spin Energy      =      -1.5712444538669386 [Eh]
	 Correlation Energy        =      -2.0554909907288135 [Eh]
	 Total Energy              =    -821.5468017406718673 [Eh]

	 ================> DF-SCS-MP2 Energies <==================
	-----------------------------------------------------------
	 SCS Same-Spin Scale       =       0.3333333333333333 [-]
	 SCS Opposite-Spin Scale   =       1.2000000000000000 [-]
	 SCS Same-Spin Energy      =      -0.1614155122872916 [Eh]
	 SCS Opposite-Spin Energy  =      -1.8854933446403261 [Eh]
	 SCS Correlation Energy    =      -2.0469088569276179 [Eh]
	 SCS Total Energy          =    -821.5382196068707117 [Eh]
	-----------------------------------------------------------

  Dipole Moment: [D]
     X:     0.0104      Y:     2.8280      Z:     0.7046     Total:     2.9145

*** Psi4 exiting successfully. Buy a developer a beer!
