                               Psi4 1.4a3.dev225

  ==> Input File <==

--------------------------------------------------------------------------
#psi4
#
memory 32 gb

molecule  {
0 1
  S        1.5586770    -0.2994370    -0.7152220
  O       -1.5255240    -0.4876820     1.0921970
  O        0.7924220     1.7006740     0.8461850
  C       -0.8878030     0.9736540    -0.7120840
  C       -3.2304390    -0.0998550    -0.5631210
  C       -1.8542380     0.0638590     0.0480780
  C        0.4791140     0.9485020    -0.0654040
  C       -4.1634610    -0.9398430     0.2972900
  C        2.9497330    -0.0790050     0.4324980
  C        4.0540790    -1.0751370     0.1033520
  H       -0.8484610     0.6756560    -1.7668750
  H       -1.2645150     2.0025910    -0.6674260
  H       -3.6447290     0.9013370    -0.7419330
  H       -3.1015980    -0.5455960    -1.5588690
  H       -5.1413450    -1.0357370    -0.1813640
  H       -3.7504260    -1.9381500     0.4523140
  H       -4.2995020    -0.4825820     1.2793320
  H        3.3022180     0.9509290     0.3487650
  H        2.5795298    -0.2173657     1.4289908
  H        3.7004310    -2.1050230     0.1947960
  H        4.4320470    -0.9299840    -0.9117720
  H        4.8873260    -0.9394890     0.7982930
units angstrom
no_reorient  #important for SAPT in psi4, default
symmetry c1  #important for SAPT in psi4, default
}

set PROPERTIES_ORIGIN ["COM"]
properties('MP2/aug-cc-pvtz', properties = ['dipole'])
--------------------------------------------------------------------------

    Molecular point group: c1
  Charge       = 0
  Multiplicity = 1
  Basis Set: AUG-CC-PVTZ
    Blend: AUG-CC-PVTZ
  Basis Set: (AUG-CC-PVTZ AUX)
    Blend: AUG-CC-PVTZ-JKFIT

    Orbital Energies [Eh]
    ---------------------

    Doubly Occupied:

       1A    -91.968281     2A    -20.559217     3A    -20.554997
       4A    -11.365432     5A    -11.349886     6A    -11.266377
       7A    -11.259364     8A    -11.252392     9A    -11.229965
      10A    -11.224546    11A     -8.970079    12A     -6.651273
      13A     -6.650130    14A     -6.649492    15A     -1.396808
      16A     -1.385611    17A     -1.093588    18A     -1.077332
      19A     -1.043638    20A     -0.969739    21A     -0.897834
      22A     -0.837700    23A     -0.761298    24A     -0.726796
      25A     -0.678452    26A     -0.670073    27A     -0.649326
      28A     -0.636683    29A     -0.634254    30A     -0.610733
      31A     -0.591033    32A     -0.559887    33A     -0.546040
      34A     -0.531159    35A     -0.526573    36A     -0.522360
      37A     -0.512840    38A     -0.505541    39A     -0.493940
      40A     -0.462915    41A     -0.432219    42A     -0.406610
      43A     -0.368243

  @DF-RHF Final Energy:  -819.49578461716726

   => Energetics <=

    Nuclear Repulsion Energy =            610.3181961753100495
    One-Electron Energy =               -2336.6666479079081000
    Two-Electron Energy =                 906.8526671154307905
    Total Energy =                       -819.4957846171672600
  Basis Set: (AUG-CC-PVTZ AUX)
    Blend: AUG-CC-PVTZ-RI
    Molecular point group: c1

    Geometry (in Angstrom), charge = 0, multiplicity = 1:

       Center              X                  Y                   Z               Mass
    ------------   -----------------  -----------------  -----------------  -----------------
         S            1.539318859570    -0.322192203807    -0.723271140811    31.972071174400
         O           -1.544882140430    -0.510437203807     1.084147859189    15.994914619570
         O            0.773063859570     1.677918796193     0.838135859189    15.994914619570
         C           -0.907161140430     0.950898796193    -0.720133140811    12.000000000000
         C           -3.249797140430    -0.122610203807    -0.571170140811    12.000000000000
         C           -1.873596140430     0.041103796193     0.040028859189    12.000000000000
         C            0.459755859570     0.925746796193    -0.073453140811    12.000000000000
         C           -4.182819140430    -0.962598203807     0.289240859189    12.000000000000
         C            2.930374859570    -0.101760203807     0.424448859189    12.000000000000
         C            4.034720859570    -1.097892203807     0.095302859189    12.000000000000
         H           -0.867819140430     0.652900796193    -1.774924140811     1.007825032230
         H           -1.283873140430     1.979835796193    -0.675475140811     1.007825032230
         H           -3.664087140430     0.878581796193    -0.749982140811     1.007825032230
         H           -3.120956140430    -0.568351203807    -1.566918140811     1.007825032230
         H           -5.160703140430    -1.058492203807    -0.189413140811     1.007825032230
         H           -3.769784140430    -1.960905203807     0.444264859189     1.007825032230
         H           -4.318860140430    -0.505337203807     1.271282859189     1.007825032230
         H            3.282859859570     0.928173796193     0.340715859189     1.007825032230
         H            2.560171659570    -0.240120903807     1.420941659189     1.007825032230
         H            3.681072859570    -2.127778203807     0.186746859189     1.007825032230
         H            4.412688859570    -0.952739203807    -0.919821140811     1.007825032230
         H            4.867967859570    -0.962244203807     0.790243859189     1.007825032230

  Basis Set: AUG-CC-PVTZ
    Blend: AUG-CC-PVTZ
  Basis Set: (AUG-CC-PVTZ AUX)
    Blend: AUG-CC-PVTZ-JKFIT
	 Reference Energy          =    -819.4957846171672600 [Eh]
	 Singles Energy            =      -0.0000000000000000 [Eh]
	 Same-Spin Energy          =      -0.4845061520302812 [Eh]
	 Opposite-Spin Energy      =      -1.5712402389132176 [Eh]
	 Correlation Energy        =      -2.0557463909434990 [Eh]
	 Total Energy              =    -821.5515310081107145 [Eh]

	 ================> DF-SCS-MP2 Energies <==================
	-----------------------------------------------------------
	 SCS Same-Spin Scale       =       0.3333333333333333 [-]
	 SCS Opposite-Spin Scale   =       1.2000000000000000 [-]
	 SCS Same-Spin Energy      =      -0.1615020506767604 [Eh]
	 SCS Opposite-Spin Energy  =      -1.8854882866958611 [Eh]
	 SCS Correlation Energy    =      -2.0469903373726215 [Eh]
	 SCS Total Energy          =    -821.5427749545399365 [Eh]
	-----------------------------------------------------------

  Dipole Moment: [D]
     X:    -0.7514      Y:    -0.2142      Z:    -2.6853     Total:     2.7967

*** Psi4 exiting successfully. Buy a developer a beer!
