                               Psi4 1.3.2 release

  ==> Input File <==

--------------------------------------------------------------------------
#psi4
#
memory 32 gb

molecule  {
0 1
  S        1.8142300     0.7226310    -0.3411240
  O       -1.8432130    -0.9348080    -0.8000930
  O        0.4941690    -1.0618130     1.1146640
  C       -0.8273310     0.8335030     0.4756360
  C       -3.3832440     0.5955310     0.2374230
  C       -2.0184199     0.1096318    -0.1499265
  C        0.4326040    -0.0039200     0.5084100
  C       -4.5116740    -0.2794210    -0.2844450
  C        3.0576300    -0.5565920    -0.0082180
  C        4.4432860    -0.0468870    -0.3740170
  H       -0.7389354     1.7296329    -0.1523918
  H       -1.0474180     1.1506300     1.5016930
  H       -3.4528060     0.7235440     1.3254800
  H       -3.4442640     1.6111560    -0.1826160
  H       -5.4818800     0.1657790    -0.0500790
  H       -4.4326880    -0.4035450    -1.3660960
  H       -4.4661600    -1.2732880     0.1669010
  H        2.9964590    -0.8086780     1.0500210
  H        2.8025100    -1.4530070    -0.5759610
  H        4.5013120     0.2245390    -1.4310650
  H        4.7086350     0.8297180     0.2214350
  H        5.1861620    -0.8265290    -0.1846820
units angstrom
no_reorient  #important for SAPT in psi4, default
symmetry c1  #important for SAPT in psi4, default
}

set PROPERTIES_ORIGIN ["COM"]
properties('MP2/aug-cc-pvtz', properties = ['dipole'])
--------------------------------------------------------------------------

    Molecular point group: c1
  Charge       = 0
  Multiplicity = 1
  Basis Set: AUG-CC-PVTZ
    Blend: AUG-CC-PVTZ
  Basis Set: (AUG-CC-PVTZ AUX)
    Blend: AUG-CC-PVTZ-JKFIT

    Orbital Energies [Eh]
    ---------------------

    Doubly Occupied:

       1A    -91.972182     2A    -20.555574     3A    -20.554027
       4A    -11.368341     5A    -11.347532     6A    -11.267774
       7A    -11.262499     8A    -11.251081     9A    -11.231572
      10A    -11.223119    11A     -8.973763    12A     -6.654913
      13A     -6.653786    14A     -6.653169    15A     -1.394911
      16A     -1.374179    17A     -1.094400    18A     -1.079141
      19A     -1.043511    20A     -0.972428    21A     -0.898899
      22A     -0.838202    23A     -0.761941    24A     -0.725161
      25A     -0.674920    26A     -0.670593    27A     -0.647428
      28A     -0.638903    29A     -0.633724    30A     -0.604699
      31A     -0.594802    32A     -0.559759    33A     -0.546657
      34A     -0.532355    35A     -0.526887    36A     -0.520521
      37A     -0.510797    38A     -0.505085    39A     -0.482780
      40A     -0.465028    41A     -0.428925    42A     -0.408114
      43A     -0.370999

  @DF-RHF Final Energy:  -819.48790897766912

   => Energetics <=

    Nuclear Repulsion Energy =            603.0933995521086217
    One-Electron Energy =               -2322.2124606853421938
    Two-Electron Energy =                 899.6311521555644504
    Total Energy =                       -819.4879089776691217
  Basis Set: (AUG-CC-PVTZ AUX)
    Blend: AUG-CC-PVTZ-RI
    Molecular point group: c1

    Geometry (in Angstrom), charge = 0, multiplicity = 1:

       Center              X                  Y                   Z               Mass
    ------------   -----------------  -----------------  -----------------  -----------------
         S            1.815170070290     0.718423740618    -0.336804314897    31.972071174400
         O           -1.842272929710    -0.939015259382    -0.795773314897    15.994914619570
         O            0.495109070290    -1.066020259382     1.118983685103    15.994914619570
         C           -0.826390929710     0.829295740618     0.479955685103    12.000000000000
         C           -3.382303929710     0.591323740618     0.241742685103    12.000000000000
         C           -2.017479829710     0.105424540618    -0.145606814897    12.000000000000
         C            0.433544070290    -0.008127259382     0.512729685103    12.000000000000
         C           -4.510733929710    -0.283628259382    -0.280125314897    12.000000000000
         C            3.058570070290    -0.560799259382    -0.003898314897    12.000000000000
         C            4.444226070290    -0.051094259382    -0.369697314897    12.000000000000
         H           -0.737995329710     1.725425640618    -0.148072114897     1.007825032230
         H           -1.046477929710     1.146422740618     1.506012685103     1.007825032230
         H           -3.451865929710     0.719336740618     1.329799685103     1.007825032230
         H           -3.443323929710     1.606948740618    -0.178296314897     1.007825032230
         H           -5.480939929710     0.161571740618    -0.045759314897     1.007825032230
         H           -4.431747929710    -0.407752259382    -1.361776314897     1.007825032230
         H           -4.465219929710    -1.277495259382     0.171220685103     1.007825032230
         H            2.997399070290    -0.812885259382     1.054340685103     1.007825032230
         H            2.803450070290    -1.457214259382    -0.571641314897     1.007825032230
         H            4.502252070290     0.220331740618    -1.426745314897     1.007825032230
         H            4.709575070290     0.825510740618     0.225754685103     1.007825032230
         H            5.187102070290    -0.830736259382    -0.180362314897     1.007825032230

  Basis Set: AUG-CC-PVTZ
    Blend: AUG-CC-PVTZ
  Basis Set: (AUG-CC-PVTZ AUX)
    Blend: AUG-CC-PVTZ-JKFIT
	 Reference Energy          =    -819.4879089776691217 [Eh]
	 Singles Energy            =      -0.0000000000000000 [Eh]
	 Same-Spin Energy          =      -0.4849745476124664 [Eh]
	 Opposite-Spin Energy      =      -1.5727214920566224 [Eh]
	 Correlation Energy        =      -2.0576960396690889 [Eh]
	 Total Energy              =    -821.5456050173381755 [Eh]

	 ================> DF-SCS-MP2 Energies <==================
	-----------------------------------------------------------
	 SCS Same-Spin Scale       =       0.3333333333333333 [-]
	 SCS Opposite-Spin Scale   =       1.2000000000000000 [-]
	 SCS Same-Spin Energy      =      -0.1616581825374888 [Eh]
	 SCS Opposite-Spin Energy  =      -1.8872657904679468 [Eh]
	 SCS Correlation Energy    =      -2.0489239730054356 [Eh]
	 SCS Total Energy          =    -821.5368329506745795 [Eh]
	-----------------------------------------------------------

  Dipole Moment: [D]
     X:    -0.0465      Y:     2.8839      Z:     0.6831     Total:     2.9641

*** Psi4 exiting successfully. Buy a developer a beer!
