                               Psi4 1.3.2 release

  ==> Input File <==

--------------------------------------------------------------------------
#psi4
#
memory 32 gb

molecule  {
0 1
  S        1.8142300     0.7226310    -0.3411240
  O       -1.8432130    -0.9348080    -0.8000930
  O        0.4941690    -1.0618130     1.1146640
  C       -0.8273310     0.8335030     0.4756360
  C       -3.3832440     0.5955310     0.2374230
  C       -2.0096370     0.0521440    -0.0950140
  C        0.3548627    -0.0448016     0.5562116
  C       -4.5116740    -0.2794210    -0.2844450
  C        3.0576300    -0.5565920    -0.0082180
  C        4.4432860    -0.0468870    -0.3740170
  H       -0.6942050     1.7459430    -0.1201930
  H       -1.0474180     1.1506300     1.5016930
  H       -3.4528060     0.7235440     1.3254800
  H       -3.4442640     1.6111560    -0.1826160
  H       -5.4818800     0.1657790    -0.0500790
  H       -4.4326880    -0.4035450    -1.3660960
  H       -4.4661600    -1.2732880     0.1669010
  H        2.9964590    -0.8086780     1.0500210
  H        2.8025100    -1.4530070    -0.5759610
  H        4.5013120     0.2245390    -1.4310650
  H        4.7086350     0.8297180     0.2214350
  H        5.1861620    -0.8265290    -0.1846820
units angstrom
no_reorient  #important for SAPT in psi4, default
symmetry c1  #important for SAPT in psi4, default
}

set PROPERTIES_ORIGIN ["COM"]
properties('MP2/aug-cc-pvtz', properties = ['dipole'])
--------------------------------------------------------------------------

    Molecular point group: c1
  Charge       = 0
  Multiplicity = 1
  Basis Set: AUG-CC-PVTZ
    Blend: AUG-CC-PVTZ
  Basis Set: (AUG-CC-PVTZ AUX)
    Blend: AUG-CC-PVTZ-JKFIT

    Orbital Energies [Eh]
    ---------------------

    Doubly Occupied:

       1A    -91.956376     2A    -20.569362     3A    -20.561430
       4A    -11.370362     5A    -11.351289     6A    -11.271094
       7A    -11.255442     8A    -11.253299     9A    -11.225868
      10A    -11.225011    11A     -8.957183    12A     -6.638207
      13A     -6.637262    14A     -6.636583    15A     -1.439069
      16A     -1.393961    17A     -1.095038    18A     -1.071944
      19A     -1.049727    20A     -0.954047    21A     -0.900186
      22A     -0.827684    23A     -0.765051    24A     -0.736411
      25A     -0.685529    26A     -0.676577    27A     -0.666323
      28A     -0.640062    29A     -0.629288    30A     -0.616952
      31A     -0.598505    32A     -0.562622    33A     -0.557126
      34A     -0.538956    35A     -0.525830    36A     -0.523765
      37A     -0.515043    38A     -0.506913    39A     -0.494171
      40A     -0.459863    41A     -0.432166    42A     -0.391912
      43A     -0.359146

  @DF-RHF Final Energy:  -819.49068848868887

   => Energetics <=

    Nuclear Repulsion Energy =            603.3947317958458143
    One-Electron Energy =               -2322.7255697662303646
    Two-Electron Energy =                 899.8401494816955619
    Total Energy =                       -819.4906884886888747
  Basis Set: (AUG-CC-PVTZ AUX)
    Blend: AUG-CC-PVTZ-RI
    Molecular point group: c1

    Geometry (in Angstrom), charge = 0, multiplicity = 1:

       Center              X                  Y                   Z               Mass
    ------------   -----------------  -----------------  -----------------  -----------------
         S            1.820058492823     0.725696173526    -0.344707933200    31.972071174400
         O           -1.837384507177    -0.931742826474    -0.803676933200    15.994914619570
         O            0.499997492823    -1.058747826474     1.111080066800    15.994914619570
         C           -0.821502507177     0.836568173526     0.472052066800    12.000000000000
         C           -3.377415507177     0.598596173526     0.233839066800    12.000000000000
         C           -2.003808507177     0.055209173526    -0.098597933200    12.000000000000
         C            0.360691192823    -0.041736426474     0.552627666800    12.000000000000
         C           -4.505845507177    -0.276355826474    -0.288028933200    12.000000000000
         C            3.063458492823    -0.553526826474    -0.011801933200    12.000000000000
         C            4.449114492823    -0.043821826474    -0.377600933200    12.000000000000
         H           -0.688376507177     1.749008173526    -0.123776933200     1.007825032230
         H           -1.041589507177     1.153695173526     1.498109066800     1.007825032230
         H           -3.446977507177     0.726609173526     1.321896066800     1.007825032230
         H           -3.438435507177     1.614221173526    -0.186199933200     1.007825032230
         H           -5.476051507177     0.168844173526    -0.053662933200     1.007825032230
         H           -4.426859507177    -0.400479826474    -1.369679933200     1.007825032230
         H           -4.460331507177    -1.270222826474     0.163317066800     1.007825032230
         H            3.002287492823    -0.805612826474     1.046437066800     1.007825032230
         H            2.808338492823    -1.449941826474    -0.579544933200     1.007825032230
         H            4.507140492823     0.227604173526    -1.434648933200     1.007825032230
         H            4.714463492823     0.832783173526     0.217851066800     1.007825032230
         H            5.191990492823    -0.823463826474    -0.188265933200     1.007825032230

  Basis Set: AUG-CC-PVTZ
    Blend: AUG-CC-PVTZ
  Basis Set: (AUG-CC-PVTZ AUX)
    Blend: AUG-CC-PVTZ-JKFIT
	 Reference Energy          =    -819.4906884886888747 [Eh]
	 Singles Energy            =      -0.0000000000000000 [Eh]
	 Same-Spin Energy          =      -0.4832668865328088 [Eh]
	 Opposite-Spin Energy      =      -1.5690335383119167 [Eh]
	 Correlation Energy        =      -2.0523004248447254 [Eh]
	 Total Energy              =    -821.5429889135335770 [Eh]

	 ================> DF-SCS-MP2 Energies <==================
	-----------------------------------------------------------
	 SCS Same-Spin Scale       =       0.3333333333333333 [-]
	 SCS Opposite-Spin Scale   =       1.2000000000000000 [-]
	 SCS Same-Spin Energy      =      -0.1610889621776029 [Eh]
	 SCS Opposite-Spin Energy  =      -1.8828402459742999 [Eh]
	 SCS Correlation Energy    =      -2.0439292081519027 [Eh]
	 SCS Total Energy          =    -821.5346176968407690 [Eh]
	-----------------------------------------------------------

  Dipole Moment: [D]
     X:    -0.9269      Y:     2.5217      Z:     1.0902     Total:     2.8995

*** Psi4 exiting successfully. Buy a developer a beer!
