                               Psi4 1.3.2 release

  ==> Input File <==

--------------------------------------------------------------------------
#psi4
#
memory 32 gb

molecule  {
0 1
  S        1.8142300     0.7226310    -0.3411240
  O       -1.8432130    -0.9348080    -0.8000930
  O        0.4941690    -1.0618130     1.1146640
  C       -0.8795523     0.8841659     0.5088559
  C       -3.3480780     0.6536309     0.2783077
  C       -2.0096370     0.0521440    -0.0950140
  C        0.4326040    -0.0039200     0.5084100
  C       -4.5116740    -0.2794210    -0.2844450
  C        3.0576300    -0.5565920    -0.0082180
  C        4.4432860    -0.0468870    -0.3740170
  H       -0.6942050     1.7459430    -0.1201930
  H       -1.0474180     1.1506300     1.5016930
  H       -3.4528060     0.7235440     1.3254800
  H       -3.4442640     1.6111560    -0.1826160
  H       -5.4818800     0.1657790    -0.0500790
  H       -4.4326880    -0.4035450    -1.3660960
  H       -4.4661600    -1.2732880     0.1669010
  H        2.9964590    -0.8086780     1.0500210
  H        2.8025100    -1.4530070    -0.5759610
  H        4.5013120     0.2245390    -1.4310650
  H        4.7086350     0.8297180     0.2214350
  H        5.1861620    -0.8265290    -0.1846820
units angstrom
no_reorient  #important for SAPT in psi4, default
symmetry c1  #important for SAPT in psi4, default
}

set PROPERTIES_ORIGIN ["COM"]
properties('MP2/aug-cc-pvtz', properties = ['dipole'])
--------------------------------------------------------------------------

    Molecular point group: c1
  Charge       = 0
  Multiplicity = 1
  Basis Set: AUG-CC-PVTZ
    Blend: AUG-CC-PVTZ
  Basis Set: (AUG-CC-PVTZ AUX)
    Blend: AUG-CC-PVTZ-JKFIT

    Orbital Energies [Eh]
    ---------------------

    Doubly Occupied:

       1A    -91.971969     2A    -20.560370     3A    -20.555262
       4A    -11.368739     5A    -11.347699     6A    -11.263434
       7A    -11.262565     8A    -11.244708     9A    -11.231603
      10A    -11.223940    11A     -8.973532    12A     -6.654682
      13A     -6.653560    14A     -6.652942    15A     -1.396478
      16A     -1.384434    17A     -1.092190    18A     -1.077552
      19A     -1.030836    20A     -0.971705    21A     -0.893144
      22A     -0.838025    23A     -0.759371    24A     -0.728537
      25A     -0.675917    26A     -0.674005    27A     -0.642594
      28A     -0.641452    29A     -0.634639    30A     -0.611058
      31A     -0.602095    32A     -0.558989    33A     -0.543150
      34A     -0.530241    35A     -0.527562    36A     -0.519315
      37A     -0.511463    38A     -0.501731    39A     -0.496937
      40A     -0.464221    41A     -0.430410    42A     -0.398182
      43A     -0.370864

  @DF-RHF Final Energy:  -819.48262621592244

   => Energetics <=

    Nuclear Repulsion Energy =            601.9915305994126129
    One-Electron Energy =               -2320.0041079244474531
    Two-Electron Energy =                 898.5299511091122895
    Total Energy =                       -819.4826262159224370
  Basis Set: (AUG-CC-PVTZ AUX)
    Blend: AUG-CC-PVTZ-RI
    Molecular point group: c1

    Geometry (in Angstrom), charge = 0, multiplicity = 1:

       Center              X                  Y                   Z               Mass
    ------------   -----------------  -----------------  -----------------  -----------------
         S            1.815508629611     0.714476756354    -0.346679970442    31.972071174400
         O           -1.841934370389    -0.942962243646    -0.805648970442    15.994914619570
         O            0.495447629611    -1.069967243646     1.109108029558    15.994914619570
         C           -0.878273670389     0.876011656354     0.503299929558    12.000000000000
         C           -3.346799370389     0.645476656354     0.272751729558    12.000000000000
         C           -2.008358370389     0.043989756354    -0.100569970442    12.000000000000
         C            0.433882629611    -0.012074243646     0.502854029558    12.000000000000
         C           -4.510395370389    -0.287575243646    -0.290000970442    12.000000000000
         C            3.058908629611    -0.564746243646    -0.013773970442    12.000000000000
         C            4.444564629611    -0.055041243646    -0.379572970442    12.000000000000
         H           -0.692926370389     1.737788756354    -0.125748970442     1.007825032230
         H           -1.046139370389     1.142475756354     1.496137029558     1.007825032230
         H           -3.451527370389     0.715389756354     1.319924029558     1.007825032230
         H           -3.442985370389     1.603001756354    -0.188171970442     1.007825032230
         H           -5.480601370389     0.157624756354    -0.055634970442     1.007825032230
         H           -4.431409370389    -0.411699243646    -1.371651970442     1.007825032230
         H           -4.464881370389    -1.281442243646     0.161345029558     1.007825032230
         H            2.997737629611    -0.816832243646     1.044465029558     1.007825032230
         H            2.803788629611    -1.461161243646    -0.581516970442     1.007825032230
         H            4.502590629611     0.216384756354    -1.436620970442     1.007825032230
         H            4.709913629611     0.821563756354     0.215879029558     1.007825032230
         H            5.187440629611    -0.834683243646    -0.190237970442     1.007825032230

  Basis Set: AUG-CC-PVTZ
    Blend: AUG-CC-PVTZ
  Basis Set: (AUG-CC-PVTZ AUX)
    Blend: AUG-CC-PVTZ-JKFIT
	 Reference Energy          =    -819.4826262159224370 [Eh]
	 Singles Energy            =      -0.0000000000000000 [Eh]
	 Same-Spin Energy          =      -0.4838870742553465 [Eh]
	 Opposite-Spin Energy      =      -1.5714047616163702 [Eh]
	 Correlation Energy        =      -2.0552918358717167 [Eh]
	 Total Energy              =    -821.5379180517941222 [Eh]

	 ================> DF-SCS-MP2 Energies <==================
	-----------------------------------------------------------
	 SCS Same-Spin Scale       =       0.3333333333333333 [-]
	 SCS Opposite-Spin Scale   =       1.2000000000000000 [-]
	 SCS Same-Spin Energy      =      -0.1612956914184488 [Eh]
	 SCS Opposite-Spin Energy  =      -1.8856857139396441 [Eh]
	 SCS Correlation Energy    =      -2.0469814053580930 [Eh]
	 SCS Total Energy          =    -821.5296076212805474 [Eh]
	-----------------------------------------------------------

  Dipole Moment: [D]
     X:     0.1172      Y:     2.7938      Z:     0.6896     Total:     2.8801

*** Psi4 exiting successfully. Buy a developer a beer!
