                               Psi4 1.4a3.dev225

  ==> Input File <==

--------------------------------------------------------------------------
#psi4
#
memory 32 gb

molecule  {
0 1
  S        1.5586770    -0.2994370    -0.7152220
  O       -1.5255240    -0.4876820     1.0921970
  O        0.7924220     1.7006740     0.8461850
  C       -0.8878030     0.9736540    -0.7120840
  C       -3.2304390    -0.0998550    -0.5631210
  C       -1.8542380     0.0638590     0.0480780
  C        0.4791140     0.9485020    -0.0654040
  C       -4.1634610    -0.9398430     0.2972900
  C        2.9497330    -0.0790050     0.4324980
  C        4.0540790    -1.0751370     0.1033520
  H       -0.8484610     0.6756560    -1.7668750
  H       -1.2645150     2.0025910    -0.6674260
  H       -3.6447290     0.9013370    -0.7419330
  H       -3.1015980    -0.5455960    -1.5588690
  H       -5.1413450    -1.0357370    -0.1813640
  H       -3.7504260    -1.9381500     0.4523140
  H       -4.2995020    -0.4825820     1.2793320
  H        3.3022180     0.9509290     0.3487650
  H        2.5657162    -0.2225283     1.4661732
  H        3.7004310    -2.1050230     0.1947960
  H        4.4320470    -0.9299840    -0.9117720
  H        4.8873260    -0.9394890     0.7982930
units angstrom
no_reorient  #important for SAPT in psi4, default
symmetry c1  #important for SAPT in psi4, default
}

set PROPERTIES_ORIGIN ["COM"]
properties('MP2/aug-cc-pvtz', properties = ['dipole'])
--------------------------------------------------------------------------

    Molecular point group: c1
  Charge       = 0
  Multiplicity = 1
  Basis Set: AUG-CC-PVTZ
    Blend: AUG-CC-PVTZ
  Basis Set: (AUG-CC-PVTZ AUX)
    Blend: AUG-CC-PVTZ-JKFIT

    Orbital Energies [Eh]
    ---------------------

    Doubly Occupied:

       1A    -91.968547     2A    -20.559231     3A    -20.555002
       4A    -11.365410     5A    -11.349896     6A    -11.266406
       7A    -11.263763     8A    -11.252403     9A    -11.230163
      10A    -11.224554    11A     -8.970322    12A     -6.651515
      13A     -6.650372    14A     -6.649735    15A     -1.396800
      16A     -1.385597    17A     -1.093017    18A     -1.076626
      19A     -1.043361    20A     -0.969755    21A     -0.897751
      22A     -0.834554    23A     -0.760680    24A     -0.726394
      25A     -0.678469    26A     -0.669805    27A     -0.649321
      28A     -0.636707    29A     -0.630636    30A     -0.610664
      31A     -0.590989    32A     -0.559883    33A     -0.546052
      34A     -0.530784    35A     -0.526171    36A     -0.522230
      37A     -0.512889    38A     -0.503289    39A     -0.493849
      40A     -0.462484    41A     -0.432209    42A     -0.406648
      43A     -0.367922

  @DF-RHF Final Energy:  -819.49508945590003

   => Energetics <=

    Nuclear Repulsion Energy =            610.1347417357925451
    One-Electron Energy =               -2336.3139553184596480
    Two-Electron Energy =                 906.6841241267671876
    Total Energy =                       -819.4950894559000290
  Basis Set: (AUG-CC-PVTZ AUX)
    Blend: AUG-CC-PVTZ-RI
    Molecular point group: c1

    Geometry (in Angstrom), charge = 0, multiplicity = 1:

       Center              X                  Y                   Z               Mass
    ------------   -----------------  -----------------  -----------------  -----------------
         S            1.539405839809    -0.322159696410    -0.723505267617    31.972071174400
         O           -1.544795160191    -0.510404696410     1.083913732383    15.994914619570
         O            0.773150839809     1.677951303590     0.837901732383    15.994914619570
         C           -0.907074160191     0.950931303590    -0.720367267617    12.000000000000
         C           -3.249710160191    -0.122577696410    -0.571404267617    12.000000000000
         C           -1.873509160191     0.041136303590     0.039794732383    12.000000000000
         C            0.459842839809     0.925779303590    -0.073687267617    12.000000000000
         C           -4.182732160191    -0.962565696410     0.289006732383    12.000000000000
         C            2.930461839809    -0.101727696410     0.424214732383    12.000000000000
         C            4.034807839809    -1.097859696410     0.095068732383    12.000000000000
         H           -0.867732160191     0.652933303590    -1.775158267617     1.007825032230
         H           -1.283786160191     1.979868303590    -0.675709267617     1.007825032230
         H           -3.664000160191     0.878614303590    -0.750216267617     1.007825032230
         H           -3.120869160191    -0.568318696410    -1.567152267617     1.007825032230
         H           -5.160616160191    -1.058459696410    -0.189647267617     1.007825032230
         H           -3.769697160191    -1.960872696410     0.444030732383     1.007825032230
         H           -4.318773160191    -0.505304696410     1.271048732383     1.007825032230
         H            3.282946839809     0.928206303590     0.340481732383     1.007825032230
         H            2.546445039809    -0.245250996410     1.457889932383     1.007825032230
         H            3.681159839809    -2.127745696410     0.186512732383     1.007825032230
         H            4.412775839809    -0.952706696410    -0.920055267617     1.007825032230
         H            4.868054839809    -0.962211696410     0.790009732383     1.007825032230

  Basis Set: AUG-CC-PVTZ
    Blend: AUG-CC-PVTZ
  Basis Set: (AUG-CC-PVTZ AUX)
    Blend: AUG-CC-PVTZ-JKFIT
	 Reference Energy          =    -819.4950894559000290 [Eh]
	 Singles Energy            =      -0.0000000000000000 [Eh]
	 Same-Spin Energy          =      -0.4845847902050272 [Eh]
	 Opposite-Spin Energy      =      -1.5715413654653614 [Eh]
	 Correlation Energy        =      -2.0561261556703885 [Eh]
	 Total Energy              =    -821.5512156115704556 [Eh]

	 ================> DF-SCS-MP2 Energies <==================
	-----------------------------------------------------------
	 SCS Same-Spin Scale       =       0.3333333333333333 [-]
	 SCS Opposite-Spin Scale   =       1.2000000000000000 [-]
	 SCS Same-Spin Energy      =      -0.1615282634016757 [Eh]
	 SCS Opposite-Spin Energy  =      -1.8858496385584336 [Eh]
	 SCS Correlation Energy    =      -2.0473779019601093 [Eh]
	 SCS Total Energy          =    -821.5424673578601187 [Eh]
	-----------------------------------------------------------

  Dipole Moment: [D]
     X:    -0.7539      Y:    -0.2150      Z:    -2.6945     Total:     2.8062

*** Psi4 exiting successfully. Buy a developer a beer!
