                               Psi4 1.3.2 release

  ==> Input File <==

--------------------------------------------------------------------------
#psi4
#
memory 32 gb

molecule  {
0 1
  S        1.8218981     0.7325139    -0.3314119
  O       -1.8432130    -0.9348080    -0.8000930
  O        0.4941690    -1.0618130     1.1146640
  C       -0.8273310     0.8335030     0.4756360
  C       -3.3832440     0.5955310     0.2374230
  C       -2.0096370     0.0521440    -0.0950140
  C        0.4326040    -0.0039200     0.5084100
  C       -4.5116740    -0.2794210    -0.2844450
  C        3.0576300    -0.5565920    -0.0082180
  C        4.4432860    -0.0468870    -0.3740170
  H       -0.6942050     1.7459430    -0.1201930
  H       -1.0474180     1.1506300     1.5016930
  H       -3.4528060     0.7235440     1.3254800
  H       -3.4442640     1.6111560    -0.1826160
  H       -5.4818800     0.1657790    -0.0500790
  H       -4.4326880    -0.4035450    -1.3660960
  H       -4.4661600    -1.2732880     0.1669010
  H        2.9964590    -0.8086780     1.0500210
  H        2.8101763    -1.4573937    -0.5723998
  H        4.5013120     0.2245390    -1.4310650
  H        4.7086350     0.8297180     0.2214350
  H        5.1861620    -0.8265290    -0.1846820
units angstrom
no_reorient  #important for SAPT in psi4, default
symmetry c1  #important for SAPT in psi4, default
}

set PROPERTIES_ORIGIN ["COM"]
properties('MP2/aug-cc-pvtz', properties = ['dipole'])
--------------------------------------------------------------------------

    Molecular point group: c1
  Charge       = 0
  Multiplicity = 1
  Basis Set: AUG-CC-PVTZ
    Blend: AUG-CC-PVTZ
  Basis Set: (AUG-CC-PVTZ AUX)
    Blend: AUG-CC-PVTZ-JKFIT

    Orbital Energies [Eh]
    ---------------------

    Doubly Occupied:

       1A    -91.972362     2A    -20.555745     3A    -20.555676
       4A    -11.368063     5A    -11.346210     6A    -11.267013
       7A    -11.262414     8A    -11.249970     9A    -11.231305
      10A    -11.222366    11A     -8.973842    12A     -6.654988
      13A     -6.653860    14A     -6.653247    15A     -1.397626
      16A     -1.384160    17A     -1.093568    18A     -1.077191
      19A     -1.042704    20A     -0.971373    21A     -0.896180
      22A     -0.837230    23A     -0.760359    24A     -0.727206
      25A     -0.678221    26A     -0.668345    27A     -0.648204
      28A     -0.637365    29A     -0.633883    30A     -0.608681
      31A     -0.595270    32A     -0.559699    33A     -0.545905
      34A     -0.533135    35A     -0.526542    36A     -0.520844
      37A     -0.511861    38A     -0.504631    39A     -0.488786
      40A     -0.465704    41A     -0.429949    42A     -0.406244
      43A     -0.371207

  @DF-RHF Final Energy:  -819.49449901216872

   => Energetics <=

    Nuclear Repulsion Energy =            603.1811612960023012
    One-Electron Energy =               -2322.3730520434419304
    Two-Electron Energy =                 899.6973917352709122
    Total Energy =                       -819.4944990121687169
  Basis Set: (AUG-CC-PVTZ AUX)
    Blend: AUG-CC-PVTZ-RI
    Molecular point group: c1

    Geometry (in Angstrom), charge = 0, multiplicity = 1:

       Center              X                  Y                   Z               Mass
    ------------   -----------------  -----------------  -----------------  -----------------
         S            1.820318008304     0.730567477869    -0.333374435039    31.972071174400
         O           -1.844793091696    -0.936754422131    -0.802055535039    15.994914619570
         O            0.492588908304    -1.063759422131     1.112701464961    15.994914619570
         C           -0.828911091696     0.831556577869     0.473673464961    12.000000000000
         C           -3.384824091696     0.593584577869     0.235460464961    12.000000000000
         C           -2.011217091696     0.050197577869    -0.096976535039    12.000000000000
         C            0.431023908304    -0.005866422131     0.506447464961    12.000000000000
         C           -4.513254091696    -0.281367422131    -0.286407535039    12.000000000000
         C            3.056049908304    -0.558538422131    -0.010180535039    12.000000000000
         C            4.441705908304    -0.048833422131    -0.375979535039    12.000000000000
         H           -0.695785091696     1.743996577869    -0.122155535039     1.007825032230
         H           -1.048998091696     1.148683577869     1.499730464961     1.007825032230
         H           -3.454386091696     0.721597577869     1.323517464961     1.007825032230
         H           -3.445844091696     1.609209577869    -0.184578535039     1.007825032230
         H           -5.483460091696     0.163832577869    -0.052041535039     1.007825032230
         H           -4.434268091696    -0.405491422131    -1.368058535039     1.007825032230
         H           -4.467740091696    -1.275234422131     0.164938464961     1.007825032230
         H            2.994878908304    -0.810624422131     1.048058464961     1.007825032230
         H            2.808596208304    -1.459340122131    -0.574362335039     1.007825032230
         H            4.499731908304     0.222592577869    -1.433027535039     1.007825032230
         H            4.707054908304     0.827771577869     0.219472464961     1.007825032230
         H            5.184581908304    -0.828475422131    -0.186644535039     1.007825032230

  Basis Set: AUG-CC-PVTZ
    Blend: AUG-CC-PVTZ
  Basis Set: (AUG-CC-PVTZ AUX)
    Blend: AUG-CC-PVTZ-JKFIT
	 Reference Energy          =    -819.4944990121687169 [Eh]
	 Singles Energy            =      -0.0000000000000000 [Eh]
	 Same-Spin Energy          =      -0.4841970021978825 [Eh]
	 Opposite-Spin Energy      =      -1.5711330751141024 [Eh]
	 Correlation Energy        =      -2.0553300773119849 [Eh]
	 Total Energy              =    -821.5498290894806814 [Eh]

	 ================> DF-SCS-MP2 Energies <==================
	-----------------------------------------------------------
	 SCS Same-Spin Scale       =       0.3333333333333333 [-]
	 SCS Opposite-Spin Scale   =       1.2000000000000000 [-]
	 SCS Same-Spin Energy      =      -0.1613990007326275 [Eh]
	 SCS Opposite-Spin Energy  =      -1.8853596901369227 [Eh]
	 SCS Correlation Energy    =      -2.0467586908695501 [Eh]
	 SCS Total Energy          =    -821.5412577030382408 [Eh]
	-----------------------------------------------------------

  Dipole Moment: [D]
     X:    -0.0280      Y:     2.8255      Z:     0.6911     Total:     2.9089

*** Psi4 exiting successfully. Buy a developer a beer!
