                               Psi4 1.3.2 release

  ==> Input File <==

--------------------------------------------------------------------------
#psi4
#
memory 32 gb

molecule  {
0 1
  S        1.8142300     0.7226310    -0.3411240
  O       -1.8432130    -0.9348080    -0.8000930
  O        0.4941690    -1.0618130     1.1146640
  C       -0.8273310     0.8335030     0.4756360
  C       -3.3832440     0.5955310     0.2374230
  C       -2.0402868     0.0952128    -0.0879921
  C        0.4583366     0.0372736     0.5291627
  C       -4.5116740    -0.2794210    -0.2844450
  C        3.0576300    -0.5565920    -0.0082180
  C        4.4432860    -0.0468870    -0.3740170
  H       -0.6942050     1.7459430    -0.1201930
  H       -1.0474180     1.1506300     1.5016930
  H       -3.4528060     0.7235440     1.3254800
  H       -3.4442640     1.6111560    -0.1826160
  H       -5.4818800     0.1657790    -0.0500790
  H       -4.4326880    -0.4035450    -1.3660960
  H       -4.4661600    -1.2732880     0.1669010
  H        2.9964590    -0.8086780     1.0500210
  H        2.8025100    -1.4530070    -0.5759610
  H        4.5013120     0.2245390    -1.4310650
  H        4.7086350     0.8297180     0.2214350
  H        5.1861620    -0.8265290    -0.1846820
units angstrom
no_reorient  #important for SAPT in psi4, default
symmetry c1  #important for SAPT in psi4, default
}

set PROPERTIES_ORIGIN ["COM"]
properties('MP2/aug-cc-pvtz', properties = ['dipole'])
--------------------------------------------------------------------------

    Molecular point group: c1
  Charge       = 0
  Multiplicity = 1
  Basis Set: AUG-CC-PVTZ
    Blend: AUG-CC-PVTZ
  Basis Set: (AUG-CC-PVTZ AUX)
    Blend: AUG-CC-PVTZ-JKFIT

    Orbital Energies [Eh]
    ---------------------

    Doubly Occupied:

       1A    -91.976263     2A    -20.550679     3A    -20.550478
       4A    -11.368215     5A    -11.349107     6A    -11.268298
       7A    -11.264418     8A    -11.251735     9A    -11.232948
      10A    -11.224050    11A     -8.978150    12A     -6.659349
      13A     -6.658164    14A     -6.657577    15A     -1.376141
      16A     -1.356397    17A     -1.097799    18A     -1.083492
      19A     -1.045079    20A     -0.977328    21A     -0.904097
      22A     -0.841389    23A     -0.761799    24A     -0.722949
      25A     -0.673715    26A     -0.667511    27A     -0.644583
      28A     -0.636665    29A     -0.634787    30A     -0.597276
      31A     -0.594454    32A     -0.557904    33A     -0.546252
      34A     -0.530665    35A     -0.525535    36A     -0.519593
      37A     -0.511168    38A     -0.500711    39A     -0.473138
      40A     -0.465421    41A     -0.430626    42A     -0.413180
      43A     -0.373029

  @DF-RHF Final Energy:  -819.48118115676334

   => Energetics <=

    Nuclear Repulsion Energy =            602.7586279465264170
    One-Electron Energy =               -2321.5753909396298695
    Two-Electron Energy =                 899.3355818363402250
    Total Energy =                       -819.4811811567633413
  Basis Set: (AUG-CC-PVTZ AUX)
    Blend: AUG-CC-PVTZ-RI
    Molecular point group: c1

    Geometry (in Angstrom), charge = 0, multiplicity = 1:

       Center              X                  Y                   Z               Mass
    ------------   -----------------  -----------------  -----------------  -----------------
         S            1.814598589492     0.716313645730    -0.343206431856    31.972071174400
         O           -1.842844410508    -0.941125354270    -0.802175431856    15.994914619570
         O            0.494537589492    -1.068130354270     1.112581568144    15.994914619570
         C           -0.826962410508     0.827185645730     0.473553568144    12.000000000000
         C           -3.382875410508     0.589213645730     0.235340568144    12.000000000000
         C           -2.039918210508     0.088895445730    -0.090074531856    12.000000000000
         C            0.458705189492     0.030956245730     0.527080268144    12.000000000000
         C           -4.511305410508    -0.285738354270    -0.286527431856    12.000000000000
         C            3.057998589492    -0.562909354270    -0.010300431856    12.000000000000
         C            4.443654589492    -0.053204354270    -0.376099431856    12.000000000000
         H           -0.693836410508     1.739625645730    -0.122275431856     1.007825032230
         H           -1.047049410508     1.144312645730     1.499610568144     1.007825032230
         H           -3.452437410508     0.717226645730     1.323397568144     1.007825032230
         H           -3.443895410508     1.604838645730    -0.184698431856     1.007825032230
         H           -5.481511410508     0.159461645730    -0.052161431856     1.007825032230
         H           -4.432319410508    -0.409862354270    -1.368178431856     1.007825032230
         H           -4.465791410508    -1.279605354270     0.164818568144     1.007825032230
         H            2.996827589492    -0.814995354270     1.047938568144     1.007825032230
         H            2.802878589492    -1.459324354270    -0.578043431856     1.007825032230
         H            4.501680589492     0.218221645730    -1.433147431856     1.007825032230
         H            4.709003589492     0.823400645730     0.219352568144     1.007825032230
         H            5.186530589492    -0.832846354270    -0.186764431856     1.007825032230

  Basis Set: AUG-CC-PVTZ
    Blend: AUG-CC-PVTZ
  Basis Set: (AUG-CC-PVTZ AUX)
    Blend: AUG-CC-PVTZ-JKFIT
	 Reference Energy          =    -819.4811811567633413 [Eh]
	 Singles Energy            =      -0.0000000000000000 [Eh]
	 Same-Spin Energy          =      -0.4864518632836338 [Eh]
	 Opposite-Spin Energy      =      -1.5756368526501761 [Eh]
	 Correlation Energy        =      -2.0620887159338097 [Eh]
	 Total Energy              =    -821.5432698726971239 [Eh]

	 ================> DF-SCS-MP2 Energies <==================
	-----------------------------------------------------------
	 SCS Same-Spin Scale       =       0.3333333333333333 [-]
	 SCS Opposite-Spin Scale   =       1.2000000000000000 [-]
	 SCS Same-Spin Energy      =      -0.1621506210945446 [Eh]
	 SCS Opposite-Spin Energy  =      -1.8907642231802111 [Eh]
	 SCS Correlation Energy    =      -2.0529148442747558 [Eh]
	 SCS Total Energy          =    -821.5340960010380513 [Eh]
	-----------------------------------------------------------

  Dipole Moment: [D]
     X:     0.0683      Y:     3.0485      Z:     0.6442     Total:     3.1166

*** Psi4 exiting successfully. Buy a developer a beer!
