                               Psi4 1.3.2 release

  ==> Input File <==

--------------------------------------------------------------------------
#psi4
#
memory 32 gb

molecule  {
0 1
  S        1.8142300     0.7226310    -0.3411240
  O       -1.8432130    -0.9348080    -0.8000930
  O        0.4941690    -1.0618130     1.1146640
  C       -0.8273310     0.8335030     0.4756360
  C       -3.3832440     0.5955310     0.2374230
  C       -2.0096370     0.0521440    -0.0950140
  C        0.5103453     0.0369616     0.4606084
  C       -4.5116740    -0.2794210    -0.2844450
  C        3.0576300    -0.5565920    -0.0082180
  C        4.4432860    -0.0468870    -0.3740170
  H       -0.6942050     1.7459430    -0.1201930
  H       -1.0474180     1.1506300     1.5016930
  H       -3.4528060     0.7235440     1.3254800
  H       -3.4442640     1.6111560    -0.1826160
  H       -5.4818800     0.1657790    -0.0500790
  H       -4.4326880    -0.4035450    -1.3660960
  H       -4.4661600    -1.2732880     0.1669010
  H        2.9964590    -0.8086780     1.0500210
  H        2.8025100    -1.4530070    -0.5759610
  H        4.5013120     0.2245390    -1.4310650
  H        4.7086350     0.8297180     0.2214350
  H        5.1861620    -0.8265290    -0.1846820
units angstrom
no_reorient  #important for SAPT in psi4, default
symmetry c1  #important for SAPT in psi4, default
}

set PROPERTIES_ORIGIN ["COM"]
properties('MP2/aug-cc-pvtz', properties = ['dipole'])
--------------------------------------------------------------------------

    Molecular point group: c1
  Charge       = 0
  Multiplicity = 1
  Basis Set: AUG-CC-PVTZ
    Blend: AUG-CC-PVTZ
  Basis Set: (AUG-CC-PVTZ AUX)
    Blend: AUG-CC-PVTZ-JKFIT

    Orbital Energies [Eh]
    ---------------------

    Doubly Occupied:

       1A    -91.984686     2A    -20.550516     3A    -20.541462
       4A    -11.365979     5A    -11.341811     6A    -11.269083
       7A    -11.265437     8A    -11.247148     9A    -11.236706
      10A    -11.220068    11A     -8.988033    12A     -6.669400
      13A     -6.667922    14A     -6.667423    15A     -1.384452
      16A     -1.347290    17A     -1.107287    18A     -1.073987
      19A     -1.037881    20A     -0.988650    21A     -0.892491
      22A     -0.847318    23A     -0.755471    24A     -0.720879
      25A     -0.671991    26A     -0.661163    27A     -0.643309
      28A     -0.636772    29A     -0.629746    30A     -0.600140
      31A     -0.591601    32A     -0.556878    33A     -0.544226
      34A     -0.531823    35A     -0.526335    36A     -0.518933
      37A     -0.510076    38A     -0.496346    39A     -0.483040
      40A     -0.468881    41A     -0.425973    42A     -0.410281
      43A     -0.379026

  @DF-RHF Final Energy:  -819.47894133243415

   => Energetics <=

    Nuclear Repulsion Energy =            603.6343105954400698
    One-Electron Energy =               -2323.3106716764773410
    Two-Electron Energy =                 900.1974197486030107
    Total Energy =                       -819.4789413324341467
  Basis Set: (AUG-CC-PVTZ AUX)
    Blend: AUG-CC-PVTZ-RI
    Molecular point group: c1

    Geometry (in Angstrom), charge = 0, multiplicity = 1:

       Center              X                  Y                   Z               Mass
    ------------   -----------------  -----------------  -----------------  -----------------
         S            1.808401363306     0.719566071430    -0.337540192985    31.972071174400
         O           -1.849041636694    -0.937872928570    -0.796509192985    15.994914619570
         O            0.488340363306    -1.064877928570     1.118247807015    15.994914619570
         C           -0.833159636694     0.830438071430     0.479219807015    12.000000000000
         C           -3.389072636694     0.592466071430     0.241006807015    12.000000000000
         C           -2.015465636694     0.049079071430    -0.091430192985    12.000000000000
         C            0.504516663306     0.033896671430     0.464192207015    12.000000000000
         C           -4.517502636694    -0.282485928570    -0.280861192985    12.000000000000
         C            3.051801363306    -0.559656928570    -0.004634192985    12.000000000000
         C            4.437457363306    -0.049951928570    -0.370433192985    12.000000000000
         H           -0.700033636694     1.742878071430    -0.116609192985     1.007825032230
         H           -1.053246636694     1.147565071430     1.505276807015     1.007825032230
         H           -3.458634636694     0.720479071430     1.329063807015     1.007825032230
         H           -3.450092636694     1.608091071430    -0.179032192985     1.007825032230
         H           -5.487708636694     0.162714071430    -0.046495192985     1.007825032230
         H           -4.438516636694    -0.406609928570    -1.362512192985     1.007825032230
         H           -4.471988636694    -1.276352928570     0.170484807015     1.007825032230
         H            2.990630363306    -0.811742928570     1.053604807015     1.007825032230
         H            2.796681363306    -1.456071928570    -0.572377192985     1.007825032230
         H            4.495483363306     0.221474071430    -1.427481192985     1.007825032230
         H            4.702806363306     0.826653071430     0.225018807015     1.007825032230
         H            5.180333363306    -0.829593928570    -0.181098192985     1.007825032230

  Basis Set: AUG-CC-PVTZ
    Blend: AUG-CC-PVTZ
  Basis Set: (AUG-CC-PVTZ AUX)
    Blend: AUG-CC-PVTZ-JKFIT
	 Reference Energy          =    -819.4789413324341467 [Eh]
	 Singles Energy            =      -0.0000000000000000 [Eh]
	 Same-Spin Energy          =      -0.4861766374486631 [Eh]
	 Opposite-Spin Energy      =      -1.5746467715584926 [Eh]
	 Correlation Energy        =      -2.0608234090071558 [Eh]
	 Total Energy              =    -821.5397647414413314 [Eh]

	 ================> DF-SCS-MP2 Energies <==================
	-----------------------------------------------------------
	 SCS Same-Spin Scale       =       0.3333333333333333 [-]
	 SCS Opposite-Spin Scale   =       1.2000000000000000 [-]
	 SCS Same-Spin Energy      =      -0.1620588791495544 [Eh]
	 SCS Opposite-Spin Energy  =      -1.8895761258701911 [Eh]
	 SCS Correlation Energy    =      -2.0516350050197456 [Eh]
	 SCS Total Energy          =    -821.5305763374539083 [Eh]
	-----------------------------------------------------------

  Dipole Moment: [D]
     X:     0.7985      Y:     3.1089      Z:     0.3219     Total:     3.2259

*** Psi4 exiting successfully. Buy a developer a beer!
