                               Psi4 1.4a3.dev225

  ==> Input File <==

--------------------------------------------------------------------------
#psi4
#
memory 32 gb

molecule  {
0 1
  S        1.5586770    -0.2994370    -0.7152220
  O       -1.5255240    -0.4876820     1.0921970
  O        0.7924220     1.7006740     0.8461850
  C       -0.8878030     0.9736540    -0.7120840
  C       -3.2304390    -0.0998550    -0.5631210
  C       -1.8542380     0.0638590     0.0480780
  C        0.4791140     0.9485020    -0.0654040
  C       -4.1634610    -0.9398430     0.2972900
  C        2.9497330    -0.0790050     0.4324980
  C        4.0540790    -1.0751370     0.1033520
  H       -0.8484610     0.6756560    -1.7668750
  H       -1.2645150     2.0025910    -0.6674260
  H       -3.6447290     0.9013370    -0.7419330
  H       -3.1015980    -0.5455960    -1.5588690
  H       -5.1413450    -1.0357370    -0.1813640
  H       -3.7504260    -1.9381500     0.4523140
  H       -4.2995020    -0.4825820     1.2793320
  H        3.3022180     0.9509290     0.3487650
  H        2.5553561    -0.2264004     1.4940600
  H        3.7004310    -2.1050230     0.1947960
  H        4.4320470    -0.9299840    -0.9117720
  H        4.8873260    -0.9394890     0.7982930
units angstrom
no_reorient  #important for SAPT in psi4, default
symmetry c1  #important for SAPT in psi4, default
}

set PROPERTIES_ORIGIN ["COM"]
properties('MP2/aug-cc-pvtz', properties = ['dipole'])
--------------------------------------------------------------------------

    Molecular point group: c1
  Charge       = 0
  Multiplicity = 1
  Basis Set: AUG-CC-PVTZ
    Blend: AUG-CC-PVTZ
  Basis Set: (AUG-CC-PVTZ AUX)
    Blend: AUG-CC-PVTZ-JKFIT

    Orbital Energies [Eh]
    ---------------------

    Doubly Occupied:

       1A    -91.968774     2A    -20.559243     3A    -20.555013
       4A    -11.365401     5A    -11.349905     6A    -11.266981
       7A    -11.266433     8A    -11.252414     9A    -11.230331
      10A    -11.224561    11A     -8.970530    12A     -6.651722
      13A     -6.650579    14A     -6.649942    15A     -1.396797
      16A     -1.385589    17A     -1.092690    18A     -1.076156
      19A     -1.043177    20A     -0.969790    21A     -0.897706
      22A     -0.832489    23A     -0.760261    24A     -0.726122
      25A     -0.678485    26A     -0.669651    27A     -0.649323
      28A     -0.636736    29A     -0.628017    30A     -0.610597
      31A     -0.590952    32A     -0.559891    33A     -0.546066
      34A     -0.530592    35A     -0.525936    36A     -0.522108
      37A     -0.512945    38A     -0.501444    39A     -0.493731
      40A     -0.462103    41A     -0.432201    42A     -0.406682
      43A     -0.367672

  @DF-RHF Final Energy:  -819.49338273617991

   => Energetics <=

    Nuclear Repulsion Energy =            610.0021918091979387
    One-Electron Energy =               -2336.0556756021787805
    Two-Electron Energy =                 906.5601010568009315
    Total Energy =                       -819.4933827361799104
  Basis Set: (AUG-CC-PVTZ AUX)
    Blend: AUG-CC-PVTZ-RI
    Molecular point group: c1

    Geometry (in Angstrom), charge = 0, multiplicity = 1:

       Center              X                  Y                   Z               Mass
    ------------   -----------------  -----------------  -----------------  -----------------
         S            1.539471074359    -0.322135314917    -0.723680862722    31.972071174400
         O           -1.544729925641    -0.510380314917     1.083738137278    15.994914619570
         O            0.773216074359     1.677975685083     0.837726137278    15.994914619570
         C           -0.907008925641     0.950955685083    -0.720542862722    12.000000000000
         C           -3.249644925641    -0.122553314917    -0.571579862722    12.000000000000
         C           -1.873443925641     0.041160685083     0.039619137278    12.000000000000
         C            0.459908074359     0.925803685083    -0.073862862722    12.000000000000
         C           -4.182666925641    -0.962541314917     0.288831137278    12.000000000000
         C            2.930527074359    -0.101703314917     0.424039137278    12.000000000000
         C            4.034873074359    -1.097835314917     0.094893137278    12.000000000000
         H           -0.867666925641     0.652957685083    -1.775333862722     1.007825032230
         H           -1.283720925641     1.979892685083    -0.675884862722     1.007825032230
         H           -3.663934925641     0.878638685083    -0.750391862722     1.007825032230
         H           -3.120803925641    -0.568294314917    -1.567327862722     1.007825032230
         H           -5.160550925641    -1.058435314917    -0.189822862722     1.007825032230
         H           -3.769631925641    -1.960848314917     0.443855137278     1.007825032230
         H           -4.318707925641    -0.505280314917     1.270873137278     1.007825032230
         H            3.283012074359     0.928230685083     0.340306137278     1.007825032230
         H            2.536150174359    -0.249098714917     1.485601137278     1.007825032230
         H            3.681225074359    -2.127721314917     0.186337137278     1.007825032230
         H            4.412841074359    -0.952682314917    -0.920230862722     1.007825032230
         H            4.868120074359    -0.962187314917     0.789834137278     1.007825032230

  Basis Set: AUG-CC-PVTZ
    Blend: AUG-CC-PVTZ
  Basis Set: (AUG-CC-PVTZ AUX)
    Blend: AUG-CC-PVTZ-JKFIT
	 Reference Energy          =    -819.4933827361799104 [Eh]
	 Singles Energy            =      -0.0000000000000000 [Eh]
	 Same-Spin Energy          =      -0.4846484868988296 [Eh]
	 Opposite-Spin Energy      =      -1.5717971047290049 [Eh]
	 Correlation Energy        =      -2.0564455916278344 [Eh]
	 Total Energy              =    -821.5498283278077452 [Eh]

	 ================> DF-SCS-MP2 Energies <==================
	-----------------------------------------------------------
	 SCS Same-Spin Scale       =       0.3333333333333333 [-]
	 SCS Opposite-Spin Scale   =       1.2000000000000000 [-]
	 SCS Same-Spin Energy      =      -0.1615494956329432 [Eh]
	 SCS Opposite-Spin Energy  =      -1.8861565256748059 [Eh]
	 SCS Correlation Energy    =      -2.0477060213077491 [Eh]
	 SCS Total Energy          =    -821.5410887574876142 [Eh]
	-----------------------------------------------------------

  Dipole Moment: [D]
     X:    -0.7560      Y:    -0.2155      Z:    -2.7031     Total:     2.8151

*** Psi4 exiting successfully. Buy a developer a beer!
