                               Psi4 1.4a3.dev225

  ==> Input File <==

--------------------------------------------------------------------------
#psi4
#
memory 32 gb

molecule  {
0 1
  S        1.5586770    -0.2994370    -0.7152220
  O       -1.5255240    -0.4876820     1.0921970
  O        0.7924220     1.7006740     0.8461850
  C       -0.8878030     0.9736540    -0.7120840
  C       -3.2304390    -0.0998550    -0.5631210
  C       -1.8542380     0.0638590     0.0480780
  C        0.4791140     0.9485020    -0.0654040
  C       -4.1634610    -0.9398430     0.2972900
  C        2.9497330    -0.0790050     0.4324980
  C        4.0540790    -1.0751370     0.1033520
  H       -0.8484610     0.6756560    -1.7668750
  H       -1.2645150     2.0025910    -0.6674260
  H       -3.6371840     0.8831033    -0.7386765
  H       -3.1015980    -0.5455960    -1.5588690
  H       -5.1413450    -1.0357370    -0.1813640
  H       -3.7504260    -1.9381500     0.4523140
  H       -4.2995020    -0.4825820     1.2793320
  H        3.3022180     0.9509290     0.3487650
  H        2.5726230    -0.2199470     1.4475820
  H        3.7004310    -2.1050230     0.1947960
  H        4.4320470    -0.9299840    -0.9117720
  H        4.8873260    -0.9394890     0.7982930
units angstrom
no_reorient  #important for SAPT in psi4, default
symmetry c1  #important for SAPT in psi4, default
}

set PROPERTIES_ORIGIN ["COM"]
properties('MP2/aug-cc-pvtz', properties = ['dipole'])
--------------------------------------------------------------------------

    Molecular point group: c1
  Charge       = 0
  Multiplicity = 1
  Basis Set: AUG-CC-PVTZ
    Blend: AUG-CC-PVTZ
  Basis Set: (AUG-CC-PVTZ AUX)
    Blend: AUG-CC-PVTZ-JKFIT

    Orbital Energies [Eh]
    ---------------------

    Doubly Occupied:

       1A    -91.968416     2A    -20.559099     3A    -20.555007
       4A    -11.365441     5A    -11.349726     6A    -11.266425
       7A    -11.261580     8A    -11.249980     9A    -11.230060
      10A    -11.224345    11A     -8.970202    12A     -6.651395
      13A     -6.650252    14A     -6.649615    15A     -1.396745
      16A     -1.385556    17A     -1.093464    18A     -1.077490
      19A     -1.043865    20A     -0.969737    21A     -0.898184
      22A     -0.836215    23A     -0.761808    24A     -0.726713
      25A     -0.678982    26A     -0.670134    27A     -0.649432
      28A     -0.637751    29A     -0.632430    30A     -0.610672
      31A     -0.591238    32A     -0.559874    33A     -0.545976
      34A     -0.530911    35A     -0.526330    36A     -0.522783
      37A     -0.513147    38A     -0.504441    39A     -0.494554
      40A     -0.462722    41A     -0.432159    42A     -0.406598
      43A     -0.368086

  @DF-RHF Final Energy:  -819.49573574488943

   => Energetics <=

    Nuclear Repulsion Energy =            610.3226246619080939
    One-Electron Energy =               -2336.6776384698264337
    Two-Electron Energy =                 906.8592780630289099
    Total Energy =                       -819.4957357448894300
  Basis Set: (AUG-CC-PVTZ AUX)
    Blend: AUG-CC-PVTZ-RI
    Molecular point group: c1

    Geometry (in Angstrom), charge = 0, multiplicity = 1:

       Center              X                  Y                   Z               Mass
    ------------   -----------------  -----------------  -----------------  -----------------
         S            1.539314841009    -0.322061137779    -0.723408709451    31.972071174400
         O           -1.544886158991    -0.510306137779     1.084010290549    15.994914619570
         O            0.773059841009     1.678049862221     0.837998290549    15.994914619570
         C           -0.907165158991     0.951029862221    -0.720270709451    12.000000000000
         C           -3.249801158991    -0.122479137779    -0.571307709451    12.000000000000
         C           -1.873600158991     0.041234862221     0.039891290549    12.000000000000
         C            0.459751841009     0.925877862221    -0.073590709451    12.000000000000
         C           -4.182823158991    -0.962467137779     0.289103290549    12.000000000000
         C            2.930370841009    -0.101629137779     0.424311290549    12.000000000000
         C            4.034716841009    -1.097761137779     0.095165290549    12.000000000000
         H           -0.867823158991     0.653031862221    -1.775061709451     1.007825032230
         H           -1.283877158991     1.979966862221    -0.675612709451     1.007825032230
         H           -3.656546158991     0.860479162221    -0.746863209451     1.007825032230
         H           -3.120960158991    -0.568220137779    -1.567055709451     1.007825032230
         H           -5.160707158991    -1.058361137779    -0.189550709451     1.007825032230
         H           -3.769788158991    -1.960774137779     0.444127290549     1.007825032230
         H           -4.318864158991    -0.505206137779     1.271145290549     1.007825032230
         H            3.282855841009     0.928304862221     0.340578290549     1.007825032230
         H            2.553260841009    -0.242571137779     1.439395290549     1.007825032230
         H            3.681068841009    -2.127647137779     0.186609290549     1.007825032230
         H            4.412684841009    -0.952608137779    -0.919958709451     1.007825032230
         H            4.867963841009    -0.962113137779     0.790106290549     1.007825032230

  Basis Set: AUG-CC-PVTZ
    Blend: AUG-CC-PVTZ
  Basis Set: (AUG-CC-PVTZ AUX)
    Blend: AUG-CC-PVTZ-JKFIT
	 Reference Energy          =    -819.4957357448894300 [Eh]
	 Singles Energy            =      -0.0000000000000000 [Eh]
	 Same-Spin Energy          =      -0.4845385506081208 [Eh]
	 Opposite-Spin Energy      =      -1.5712650173730967 [Eh]
	 Correlation Energy        =      -2.0558035679812177 [Eh]
	 Total Energy              =    -821.5515393128706592 [Eh]

	 ================> DF-SCS-MP2 Energies <==================
	-----------------------------------------------------------
	 SCS Same-Spin Scale       =       0.3333333333333333 [-]
	 SCS Opposite-Spin Scale   =       1.2000000000000000 [-]
	 SCS Same-Spin Energy      =      -0.1615128502027069 [Eh]
	 SCS Opposite-Spin Energy  =      -1.8855180208477158 [Eh]
	 SCS Correlation Energy    =      -2.0470308710504228 [Eh]
	 SCS Total Energy          =    -821.5427666159398541 [Eh]
	-----------------------------------------------------------

  Dipole Moment: [D]
     X:    -0.7514      Y:    -0.2067      Z:    -2.6935     Total:     2.8039

*** Psi4 exiting successfully. Buy a developer a beer!
