                               Psi4 1.3.2 release

  ==> Input File <==

--------------------------------------------------------------------------
#psi4
#
memory 32 gb

molecule  {
0 1
  S        1.8142300     0.7226310    -0.3411240
  O       -1.8432130    -0.9348080    -0.8000930
  O        0.4941690    -1.0618130     1.1146640
  C       -0.8273310     0.8335030     0.4756360
  C       -3.3832440     0.5955310     0.2374230
  C       -2.0096370     0.0521440    -0.0950140
  C        0.4326040    -0.0039200     0.5084100
  C       -4.5116740    -0.2794210    -0.2844450
  C        3.0576300    -0.5565920    -0.0082180
  C        4.4432860    -0.0468870    -0.3740170
  H       -0.6942050     1.7459430    -0.1201930
  H       -1.0474180     1.1506300     1.5016930
  H       -3.4528060     0.7235440     1.3254800
  H       -3.4442640     1.6111560    -0.1826160
  H       -5.4818800     0.1657790    -0.0500790
  H       -4.4326880    -0.4035450    -1.3660960
  H       -4.4661600    -1.2732880     0.1669010
  H        2.9964590    -0.8086780     1.0500210
  H        2.7791328    -1.5351475    -0.6279845
  H        4.5013120     0.2245390    -1.4310650
  H        4.7086350     0.8297180     0.2214350
  H        5.1861620    -0.8265290    -0.1846820
units angstrom
no_reorient  #important for SAPT in psi4, default
symmetry c1  #important for SAPT in psi4, default
}

set PROPERTIES_ORIGIN ["COM"]
properties('MP2/aug-cc-pvtz', properties = ['dipole'])
--------------------------------------------------------------------------

    Molecular point group: c1
  Charge       = 0
  Multiplicity = 1
  Basis Set: AUG-CC-PVTZ
    Blend: AUG-CC-PVTZ
  Basis Set: (AUG-CC-PVTZ AUX)
    Blend: AUG-CC-PVTZ-JKFIT

    Orbital Energies [Eh]
    ---------------------

    Doubly Occupied:

       1A    -91.972968     2A    -20.555628     3A    -20.555239
       4A    -11.367557     5A    -11.346172     6A    -11.273481
       7A    -11.266990     8A    -11.249951     9A    -11.232335
      10A    -11.222340    11A     -8.974519    12A     -6.655667
      13A     -6.654539    14A     -6.653926    15A     -1.397430
      16A     -1.384023    17A     -1.092711    18A     -1.076018
      19A     -1.042265    20A     -0.972314    21A     -0.896010
      22A     -0.831236    23A     -0.758404    24A     -0.726466
      25A     -0.678243    26A     -0.668172    27A     -0.647985
      28A     -0.637332    29A     -0.625789    30A     -0.608606
      31A     -0.594742    32A     -0.559929    33A     -0.545985
      34A     -0.532925    35A     -0.525741    36A     -0.520254
      37A     -0.511653    38A     -0.500056    39A     -0.488081
      40A     -0.464465    41A     -0.429890    42A     -0.406593
      43A     -0.370096

  @DF-RHF Final Energy:  -819.48800576559404

   => Energetics <=

    Nuclear Repulsion Energy =            602.9825156594704367
    One-Electron Energy =               -2321.9915838677675310
    Two-Electron Energy =                 899.5210624427030552
    Total Energy =                       -819.4880057655940391
  Basis Set: (AUG-CC-PVTZ AUX)
    Blend: AUG-CC-PVTZ-RI
    Molecular point group: c1

    Geometry (in Angstrom), charge = 0, multiplicity = 1:

       Center              X                  Y                   Z               Mass
    ------------   -----------------  -----------------  -----------------  -----------------
         S            1.814377127524     0.723148337422    -0.340796486177    31.972071174400
         O           -1.843065872476    -0.934290662578    -0.799765486177    15.994914619570
         O            0.494316127524    -1.061295662578     1.114991513823    15.994914619570
         C           -0.827183872476     0.834020337422     0.475963513823    12.000000000000
         C           -3.383096872476     0.596048337422     0.237750513823    12.000000000000
         C           -2.009489872476     0.052661337422    -0.094686486177    12.000000000000
         C            0.432751127524    -0.003402662578     0.508737513823    12.000000000000
         C           -4.511526872476    -0.278903662578    -0.284117486177    12.000000000000
         C            3.057777127524    -0.556074662578    -0.007890486177    12.000000000000
         C            4.443433127524    -0.046369662578    -0.373689486177    12.000000000000
         H           -0.694057872476     1.746460337422    -0.119865486177     1.007825032230
         H           -1.047270872476     1.151147337422     1.502020513823     1.007825032230
         H           -3.452658872476     0.724061337422     1.325807513823     1.007825032230
         H           -3.444116872476     1.611673337422    -0.182288486177     1.007825032230
         H           -5.481732872476     0.166296337422    -0.049751486177     1.007825032230
         H           -4.432540872476    -0.403027662578    -1.365768486177     1.007825032230
         H           -4.466012872476    -1.272770662578     0.167228513823     1.007825032230
         H            2.996606127524    -0.808160662578     1.050348513823     1.007825032230
         H            2.779279927524    -1.534630162578    -0.627656986177     1.007825032230
         H            4.501459127524     0.225056337422    -1.430737486177     1.007825032230
         H            4.708782127524     0.830235337422     0.221762513823     1.007825032230
         H            5.186309127524    -0.826011662578    -0.184354486177     1.007825032230

  Basis Set: AUG-CC-PVTZ
    Blend: AUG-CC-PVTZ
  Basis Set: (AUG-CC-PVTZ AUX)
    Blend: AUG-CC-PVTZ-JKFIT
	 Reference Energy          =    -819.4880057655940391 [Eh]
	 Singles Energy            =      -0.0000000000000000 [Eh]
	 Same-Spin Energy          =      -0.4843745278700012 [Eh]
	 Opposite-Spin Energy      =      -1.5718976610131976 [Eh]
	 Correlation Energy        =      -2.0562721888831987 [Eh]
	 Total Energy              =    -821.5442779544772520 [Eh]

	 ================> DF-SCS-MP2 Energies <==================
	-----------------------------------------------------------
	 SCS Same-Spin Scale       =       0.3333333333333333 [-]
	 SCS Opposite-Spin Scale   =       1.2000000000000000 [-]
	 SCS Same-Spin Energy      =      -0.1614581759566671 [Eh]
	 SCS Opposite-Spin Energy  =      -1.8862771932158371 [Eh]
	 SCS Correlation Energy    =      -2.0477353691725040 [Eh]
	 SCS Total Energy          =    -821.5357411347665675 [Eh]
	-----------------------------------------------------------

  Dipole Moment: [D]
     X:    -0.0054      Y:     2.8720      Z:     0.6907     Total:     2.9539

*** Psi4 exiting successfully. Buy a developer a beer!
