                               Psi4 1.3.2 release

  ==> Input File <==

--------------------------------------------------------------------------
#psi4
#
memory 32 gb

molecule  {
0 1
  S        1.8142300     0.7226310    -0.3411240
  O       -1.8326413    -0.9338104    -0.7989132
  O        0.4941690    -1.0618130     1.1146640
  C       -0.8273310     0.8335030     0.4756360
  C       -3.3776523     0.6051217     0.2445882
  C       -2.0096370     0.0521440    -0.0950140
  C        0.4326040    -0.0039200     0.5084100
  C       -4.5116740    -0.2794210    -0.2844450
  C        3.0576300    -0.5565920    -0.0082180
  C        4.4432860    -0.0468870    -0.3740170
  H       -0.6942050     1.7459430    -0.1201930
  H       -1.0474180     1.1506300     1.5016930
  H       -3.4528060     0.7235440     1.3254800
  H       -3.4442640     1.6111560    -0.1826160
  H       -5.4818800     0.1657790    -0.0500790
  H       -4.4326880    -0.4035450    -1.3660960
  H       -4.4661600    -1.2732880     0.1669010
  H        2.9964590    -0.8086780     1.0500210
  H        2.8025100    -1.4530070    -0.5759610
  H        4.5013120     0.2245390    -1.4310650
  H        4.7086350     0.8297180     0.2214350
  H        5.1861620    -0.8265290    -0.1846820
units angstrom
no_reorient  #important for SAPT in psi4, default
symmetry c1  #important for SAPT in psi4, default
}

set PROPERTIES_ORIGIN ["COM"]
properties('MP2/aug-cc-pvtz', properties = ['dipole'])
--------------------------------------------------------------------------

    Molecular point group: c1
  Charge       = 0
  Multiplicity = 1
  Basis Set: AUG-CC-PVTZ
    Blend: AUG-CC-PVTZ
  Basis Set: (AUG-CC-PVTZ AUX)
    Blend: AUG-CC-PVTZ-JKFIT

    Orbital Energies [Eh]
    ---------------------

    Doubly Occupied:

       1A    -91.971797     2A    -20.556057     3A    -20.554681
       4A    -11.367022     5A    -11.346325     6A    -11.265973
       7A    -11.262380     8A    -11.249808     9A    -11.231455
      10A    -11.223183    11A     -8.973412    12A     -6.654565
      13A     -6.653437    14A     -6.652823    15A     -1.397275
      16A     -1.383864    17A     -1.093681    18A     -1.076993
      19A     -1.041539    20A     -0.971707    21A     -0.896361
      22A     -0.837622    23A     -0.760664    24A     -0.726825
      25A     -0.677997    26A     -0.668276    27A     -0.647721
      28A     -0.638237    29A     -0.634064    30A     -0.608786
      31A     -0.594800    32A     -0.559557    33A     -0.544712
      34A     -0.532594    35A     -0.527044    36A     -0.520347
      37A     -0.512346    38A     -0.505124    39A     -0.490011
      40A     -0.465041    41A     -0.429744    42A     -0.406044
      43A     -0.370846

  @DF-RHF Final Energy:  -819.49465077839102

   => Energetics <=

    Nuclear Repulsion Energy =            603.4657053844393886
    One-Electron Energy =               -2322.9552368475151525
    Two-Electron Energy =                 899.9948806846847447
    Total Energy =                       -819.4946507783910192
  Basis Set: (AUG-CC-PVTZ AUX)
    Blend: AUG-CC-PVTZ-RI
    Molecular point group: c1

    Geometry (in Angstrom), charge = 0, multiplicity = 1:

       Center              X                  Y                   Z               Mass
    ------------   -----------------  -----------------  -----------------  -----------------
         S            1.812754231228     0.721812377227    -0.341779167123    31.972071174400
         O           -1.834117068772    -0.934629022773    -0.799568367123    15.994914619570
         O            0.492693231228    -1.062631622773     1.114008832877    15.994914619570
         C           -0.828806768772     0.832684377227     0.474980832877    12.000000000000
         C           -3.379128068772     0.604303077227     0.243933032877    12.000000000000
         C           -2.011112768772     0.051325377227    -0.095669167123    12.000000000000
         C            0.431128231228    -0.004738622773     0.507754832877    12.000000000000
         C           -4.513149768772    -0.280239622773    -0.285100167123    12.000000000000
         C            3.056154231228    -0.557410622773    -0.008873167123    12.000000000000
         C            4.441810231228    -0.047705622773    -0.374672167123    12.000000000000
         H           -0.695680768772     1.745124377227    -0.120848167123     1.007825032230
         H           -1.048893768772     1.149811377227     1.501037832877     1.007825032230
         H           -3.454281768772     0.722725377227     1.324824832877     1.007825032230
         H           -3.445739768772     1.610337377227    -0.183271167123     1.007825032230
         H           -5.483355768772     0.164960377227    -0.050734167123     1.007825032230
         H           -4.434163768772    -0.404363622773    -1.366751167123     1.007825032230
         H           -4.467635768772    -1.274106622773     0.166245832877     1.007825032230
         H            2.994983231228    -0.809496622773     1.049365832877     1.007825032230
         H            2.801034231228    -1.453825622773    -0.576616167123     1.007825032230
         H            4.499836231228     0.223720377227    -1.431720167123     1.007825032230
         H            4.707159231228     0.828899377227     0.220779832877     1.007825032230
         H            5.184686231228    -0.827347622773    -0.185337167123     1.007825032230

  Basis Set: AUG-CC-PVTZ
    Blend: AUG-CC-PVTZ
  Basis Set: (AUG-CC-PVTZ AUX)
    Blend: AUG-CC-PVTZ-JKFIT
	 Reference Energy          =    -819.4946507783910192 [Eh]
	 Singles Energy            =      -0.0000000000000000 [Eh]
	 Same-Spin Energy          =      -0.4841486896751293 [Eh]
	 Opposite-Spin Energy      =      -1.5710299863796990 [Eh]
	 Correlation Energy        =      -2.0551786760548283 [Eh]
	 Total Energy              =    -821.5498294544458986 [Eh]

	 ================> DF-SCS-MP2 Energies <==================
	-----------------------------------------------------------
	 SCS Same-Spin Scale       =       0.3333333333333333 [-]
	 SCS Opposite-Spin Scale   =       1.2000000000000000 [-]
	 SCS Same-Spin Energy      =      -0.1613828965583764 [Eh]
	 SCS Opposite-Spin Energy  =      -1.8852359836556387 [Eh]
	 SCS Correlation Energy    =      -2.0466188802140151 [Eh]
	 SCS Total Energy          =    -821.5412696586050743 [Eh]
	-----------------------------------------------------------

  Dipole Moment: [D]
     X:    -0.0355      Y:     2.8327      Z:     0.6799     Total:     2.9133

*** Psi4 exiting successfully. Buy a developer a beer!
