                               Psi4 1.3.2 release

  ==> Input File <==

--------------------------------------------------------------------------
#psi4
#
memory 32 gb

molecule  {
0 1
  S        1.8142300     0.7226310    -0.3411240
  O       -1.8432130    -0.9348080    -0.8000930
  O        0.4941690    -1.0618130     1.1146640
  C       -0.8273310     0.8335030     0.4756360
  C       -3.3832440     0.5955310     0.2374230
  C       -1.9882431     0.0935917    -0.0701636
  C        0.4326040    -0.0039200     0.5084100
  C       -4.5465406    -0.2452058    -0.2637199
  C        3.0576300    -0.5565920    -0.0082180
  C        4.4432860    -0.0468870    -0.3740170
  H       -0.6942050     1.7459430    -0.1201930
  H       -1.0474180     1.1506300     1.5016930
  H       -3.4528060     0.7235440     1.3254800
  H       -3.4442640     1.6111560    -0.1826160
  H       -5.4818800     0.1657790    -0.0500790
  H       -4.4326880    -0.4035450    -1.3660960
  H       -4.4661600    -1.2732880     0.1669010
  H        2.9964590    -0.8086780     1.0500210
  H        2.8025100    -1.4530070    -0.5759610
  H        4.5013120     0.2245390    -1.4310650
  H        4.7086350     0.8297180     0.2214350
  H        5.1861620    -0.8265290    -0.1846820
units angstrom
no_reorient  #important for SAPT in psi4, default
symmetry c1  #important for SAPT in psi4, default
}

set PROPERTIES_ORIGIN ["COM"]
properties('MP2/aug-cc-pvtz', properties = ['dipole'])
--------------------------------------------------------------------------

    Molecular point group: c1
  Charge       = 0
  Multiplicity = 1
  Basis Set: AUG-CC-PVTZ
    Blend: AUG-CC-PVTZ
  Basis Set: (AUG-CC-PVTZ AUX)
    Blend: AUG-CC-PVTZ-JKFIT

    Orbital Energies [Eh]
    ---------------------

    Doubly Occupied:

       1A    -91.973875     2A    -20.556979     3A    -20.551663
       4A    -11.370226     5A    -11.349879     6A    -11.270340
       7A    -11.263821     8A    -11.251389     9A    -11.232509
      10A    -11.222744    11A     -8.975460    12A     -6.656614
      13A     -6.655487    14A     -6.654870    15A     -1.395875
      16A     -1.357753    17A     -1.098600    18A     -1.080722
      19A     -1.045836    20A     -0.975779    21A     -0.899228
      22A     -0.840235    23A     -0.764705    24A     -0.727130
      25A     -0.676545    26A     -0.670445    27A     -0.650249
      28A     -0.636632    29A     -0.632672    30A     -0.598738
      31A     -0.597388    32A     -0.561143    33A     -0.556141
      34A     -0.537562    35A     -0.526478    36A     -0.514356
      37A     -0.507469    38A     -0.497573    39A     -0.473053
      40A     -0.465834    41A     -0.432998    42A     -0.410743
      43A     -0.372582

  @DF-RHF Final Energy:  -819.48193901655804

   => Energetics <=

    Nuclear Repulsion Energy =            602.9379140900875882
    One-Electron Energy =               -2321.8590678448017570
    Two-Electron Energy =                 899.4392147381561244
    Total Energy =                       -819.4819390165580444
  Basis Set: (AUG-CC-PVTZ AUX)
    Blend: AUG-CC-PVTZ-RI
    Molecular point group: c1

    Geometry (in Angstrom), charge = 0, multiplicity = 1:

       Center              X                  Y                   Z               Mass
    ------------   -----------------  -----------------  -----------------  -----------------
         S            1.815240028287     0.716958383374    -0.344541033907    31.972071174400
         O           -1.842202971713    -0.940480616626    -0.803510033907    15.994914619570
         O            0.495179028287    -1.067485616626     1.111246966093    15.994914619570
         C           -0.826320971713     0.827830383374     0.472218966093    12.000000000000
         C           -3.382233971713     0.589858383374     0.234005966093    12.000000000000
         C           -1.987233071713     0.087919083374    -0.073580633907    12.000000000000
         C            0.433614028287    -0.009592616626     0.504992966093    12.000000000000
         C           -4.545530571713    -0.250878416626    -0.267136933907    12.000000000000
         C            3.058640028287    -0.562264616626    -0.011635033907    12.000000000000
         C            4.444296028287    -0.052559616626    -0.377434033907    12.000000000000
         H           -0.693194971713     1.740270383374    -0.123610033907     1.007825032230
         H           -1.046407971713     1.144957383374     1.498275966093     1.007825032230
         H           -3.451795971713     0.717871383374     1.322062966093     1.007825032230
         H           -3.443253971713     1.605483383374    -0.186033033907     1.007825032230
         H           -5.480869971713     0.160106383374    -0.053496033907     1.007825032230
         H           -4.431677971713    -0.409217616626    -1.369513033907     1.007825032230
         H           -4.465149971713    -1.278960616626     0.163483966093     1.007825032230
         H            2.997469028287    -0.814350616626     1.046603966093     1.007825032230
         H            2.803520028287    -1.458679616626    -0.579378033907     1.007825032230
         H            4.502322028287     0.218866383374    -1.434482033907     1.007825032230
         H            4.709645028287     0.824045383374     0.218017966093     1.007825032230
         H            5.187172028287    -0.832201616626    -0.188099033907     1.007825032230

  Basis Set: AUG-CC-PVTZ
    Blend: AUG-CC-PVTZ
  Basis Set: (AUG-CC-PVTZ AUX)
    Blend: AUG-CC-PVTZ-JKFIT
	 Reference Energy          =    -819.4819390165580444 [Eh]
	 Singles Energy            =      -0.0000000000000000 [Eh]
	 Same-Spin Energy          =      -0.4857315077096724 [Eh]
	 Opposite-Spin Energy      =      -1.5743615995061018 [Eh]
	 Correlation Energy        =      -2.0600931072157742 [Eh]
	 Total Energy              =    -821.5420321237737653 [Eh]

	 ================> DF-SCS-MP2 Energies <==================
	-----------------------------------------------------------
	 SCS Same-Spin Scale       =       0.3333333333333333 [-]
	 SCS Opposite-Spin Scale   =       1.2000000000000000 [-]
	 SCS Same-Spin Energy      =      -0.1619105025698908 [Eh]
	 SCS Opposite-Spin Energy  =      -1.8892339194073220 [Eh]
	 SCS Correlation Energy    =      -2.0511444219772126 [Eh]
	 SCS Total Energy          =    -821.5330834385353000 [Eh]
	-----------------------------------------------------------

  Dipole Moment: [D]
     X:     0.1917      Y:     2.9736      Z:     0.7912     Total:     3.0830

*** Psi4 exiting successfully. Buy a developer a beer!
