                               Psi4 1.3.2 release

  ==> Input File <==

--------------------------------------------------------------------------
#psi4
#
memory 32 gb

molecule  {
0 1
  S        1.8142300     0.7226310    -0.3411240
  O       -1.7799629    -0.9266580    -0.7936585
  O        0.4941690    -1.0618130     1.1146640
  C       -0.7783171     0.7818930     0.4391476
  C       -3.3832440     0.5955310     0.2374230
  C       -2.0096370     0.0521440    -0.0950140
  C        0.4326040    -0.0039200     0.5084100
  C       -4.5116740    -0.2794210    -0.2844450
  C        3.0576300    -0.5565920    -0.0082180
  C        4.4432860    -0.0468870    -0.3740170
  H       -0.6942050     1.7459430    -0.1201930
  H       -1.0474180     1.1506300     1.5016930
  H       -3.4528060     0.7235440     1.3254800
  H       -3.4442640     1.6111560    -0.1826160
  H       -5.4818800     0.1657790    -0.0500790
  H       -4.4326880    -0.4035450    -1.3660960
  H       -4.4661600    -1.2732880     0.1669010
  H        2.9964590    -0.8086780     1.0500210
  H        2.8025100    -1.4530070    -0.5759610
  H        4.5013120     0.2245390    -1.4310650
  H        4.7086350     0.8297180     0.2214350
  H        5.1861620    -0.8265290    -0.1846820
units angstrom
no_reorient  #important for SAPT in psi4, default
symmetry c1  #important for SAPT in psi4, default
}

set PROPERTIES_ORIGIN ["COM"]
properties('MP2/aug-cc-pvtz', properties = ['dipole'])
--------------------------------------------------------------------------

    Molecular point group: c1
  Charge       = 0
  Multiplicity = 1
  Basis Set: AUG-CC-PVTZ
    Blend: AUG-CC-PVTZ
  Basis Set: (AUG-CC-PVTZ AUX)
    Blend: AUG-CC-PVTZ-JKFIT

    Orbital Energies [Eh]
    ---------------------

    Doubly Occupied:

       1A    -91.970200     2A    -20.553940     3A    -20.552198
       4A    -11.362725     5A    -11.346960     6A    -11.266804
       7A    -11.261110     8A    -11.255585     9A    -11.230500
      10A    -11.225988    11A     -8.971886    12A     -6.653042
      13A     -6.651902    14A     -6.651291    15A     -1.398228
      16A     -1.383143    17A     -1.095339    18A     -1.077208
      19A     -1.048641    20A     -0.969903    21A     -0.901150
      22A     -0.836908    23A     -0.767497    24A     -0.723460
      25A     -0.680370    26A     -0.665956    27A     -0.650712
      28A     -0.638580    29A     -0.633512    30A     -0.606955
      31A     -0.587220    32A     -0.558496    33A     -0.546815
      34A     -0.534194    35A     -0.526628    36A     -0.522920
      37A     -0.509286    38A     -0.502603    39A     -0.485882
      40A     -0.463479    41A     -0.427652    42A     -0.409723
      43A     -0.369494

  @DF-RHF Final Energy:  -819.48576554403780

   => Energetics <=

    Nuclear Repulsion Energy =            605.1640805589096317
    One-Electron Energy =               -2326.3475247757041870
    Two-Electron Energy =                 901.6976786727568651
    Total Energy =                       -819.4857655440378039
  Basis Set: (AUG-CC-PVTZ AUX)
    Blend: AUG-CC-PVTZ-RI
    Molecular point group: c1

    Geometry (in Angstrom), charge = 0, multiplicity = 1:

       Center              X                  Y                   Z               Mass
    ------------   -----------------  -----------------  -----------------  -----------------
         S            1.804234371882     0.725686066088    -0.339031408404    31.972071174400
         O           -1.789958528118    -0.923602933912    -0.791565908404    15.994914619570
         O            0.484173371882    -1.058757933912     1.116756591596    15.994914619570
         C           -0.788312728118     0.784948066088     0.441240191596    12.000000000000
         C           -3.393239628118     0.598586066088     0.239515591596    12.000000000000
         C           -2.019632628118     0.055199066088    -0.092921408404    12.000000000000
         C            0.422608371882    -0.000864933912     0.510502591596    12.000000000000
         C           -4.521669628118    -0.276365933912    -0.282352408404    12.000000000000
         C            3.047634371882    -0.553536933912    -0.006125408404    12.000000000000
         C            4.433290371882    -0.043831933912    -0.371924408404    12.000000000000
         H           -0.704200628118     1.748998066088    -0.118100408404     1.007825032230
         H           -1.057413628118     1.153685066088     1.503785591596     1.007825032230
         H           -3.462801628118     0.726599066088     1.327572591596     1.007825032230
         H           -3.454259628118     1.614211066088    -0.180523408404     1.007825032230
         H           -5.491875628118     0.168834066088    -0.047986408404     1.007825032230
         H           -4.442683628118    -0.400489933912    -1.364003408404     1.007825032230
         H           -4.476155628118    -1.270232933912     0.168993591596     1.007825032230
         H            2.986463371882    -0.805622933912     1.052113591596     1.007825032230
         H            2.792514371882    -1.449951933912    -0.573868408404     1.007825032230
         H            4.491316371882     0.227594066088    -1.428972408404     1.007825032230
         H            4.698639371882     0.832773066088     0.223527591596     1.007825032230
         H            5.176166371882    -0.823473933912    -0.182589408404     1.007825032230

  Basis Set: AUG-CC-PVTZ
    Blend: AUG-CC-PVTZ
  Basis Set: (AUG-CC-PVTZ AUX)
    Blend: AUG-CC-PVTZ-JKFIT
	 Reference Energy          =    -819.4857655440378039 [Eh]
	 Singles Energy            =      -0.0000000000000000 [Eh]
	 Same-Spin Energy          =      -0.4849871177051767 [Eh]
	 Opposite-Spin Energy      =      -1.5721713319021857 [Eh]
	 Correlation Energy        =      -2.0571584496073623 [Eh]
	 Total Energy              =    -821.5429239936452177 [Eh]

	 ================> DF-SCS-MP2 Energies <==================
	-----------------------------------------------------------
	 SCS Same-Spin Scale       =       0.3333333333333333 [-]
	 SCS Opposite-Spin Scale   =       1.2000000000000000 [-]
	 SCS Same-Spin Energy      =      -0.1616623725683922 [Eh]
	 SCS Opposite-Spin Energy  =      -1.8866055982826229 [Eh]
	 SCS Correlation Energy    =      -2.0482679708510152 [Eh]
	 SCS Total Energy          =    -821.5340335148888471 [Eh]
	-----------------------------------------------------------

  Dipole Moment: [D]
     X:    -0.3493      Y:     2.8507      Z:     0.6481     Total:     2.9442

*** Psi4 exiting successfully. Buy a developer a beer!
