                               Psi4 1.3.2 release

  ==> Input File <==

--------------------------------------------------------------------------
#psi4
#
memory 32 gb

molecule  {
0 1
  S        1.8142300     0.7226310    -0.3411240
  O       -1.8432130    -0.9348080    -0.8000930
  O        0.4941690    -1.0618130     1.1146640
  C       -0.8273310     0.8335030     0.4756360
  C       -3.3832440     0.5955310     0.2374230
  C       -1.9985968     0.0976331    -0.1195500
  C        0.4326040    -0.0039200     0.5084100
  C       -4.5116740    -0.2794210    -0.2844450
  C        3.0576300    -0.5565920    -0.0082180
  C        4.4432860    -0.0468870    -0.3740170
  H       -0.6942050     1.7459430    -0.1201930
  H       -1.0474180     1.1506300     1.5016930
  H       -3.4528060     0.7235440     1.3254800
  H       -3.4083859     1.6071467    -0.1957651
  H       -5.4818800     0.1657790    -0.0500790
  H       -4.4326880    -0.4035450    -1.3660960
  H       -4.4661600    -1.2732880     0.1669010
  H        2.9964590    -0.8086780     1.0500210
  H        2.8025100    -1.4530070    -0.5759610
  H        4.5013120     0.2245390    -1.4310650
  H        4.7086350     0.8297180     0.2214350
  H        5.1861620    -0.8265290    -0.1846820
units angstrom
no_reorient  #important for SAPT in psi4, default
symmetry c1  #important for SAPT in psi4, default
}

set PROPERTIES_ORIGIN ["COM"]
properties('MP2/aug-cc-pvtz', properties = ['dipole'])
--------------------------------------------------------------------------

    Molecular point group: c1
  Charge       = 0
  Multiplicity = 1
  Basis Set: AUG-CC-PVTZ
    Blend: AUG-CC-PVTZ
  Basis Set: (AUG-CC-PVTZ AUX)
    Blend: AUG-CC-PVTZ-JKFIT

    Orbital Energies [Eh]
    ---------------------

    Doubly Occupied:

       1A    -91.972920     2A    -20.556003     3A    -20.553154
       4A    -11.368751     5A    -11.347114     6A    -11.268417
       7A    -11.263104     8A    -11.250828     9A    -11.232010
      10A    -11.222647    11A     -8.974512    12A     -6.655664
      13A     -6.654537    14A     -6.653921    15A     -1.395403
      16A     -1.371557    17A     -1.095931    18A     -1.078900
      19A     -1.044163    20A     -0.973693    21A     -0.897971
      22A     -0.838835    23A     -0.762158    24A     -0.726181
      25A     -0.675830    26A     -0.669443    27A     -0.648538
      28A     -0.638458    29A     -0.633910    30A     -0.603246
      31A     -0.595666    32A     -0.560273    33A     -0.546678
      34A     -0.532678    35A     -0.527113    36A     -0.519687
      37A     -0.510707    38A     -0.505490    39A     -0.481573
      40A     -0.465629    41A     -0.430281    42A     -0.408268
      43A     -0.371740

  @DF-RHF Final Energy:  -819.48969210395830

   => Energetics <=

    Nuclear Repulsion Energy =            603.3346309445749966
    One-Electron Energy =               -2322.6814840636889130
    Two-Electron Energy =                 899.8571610151554978
    Total Energy =                       -819.4896921039583049
  Basis Set: (AUG-CC-PVTZ AUX)
    Blend: AUG-CC-PVTZ-RI
    Molecular point group: c1

    Geometry (in Angstrom), charge = 0, multiplicity = 1:

       Center              X                  Y                   Z               Mass
    ------------   -----------------  -----------------  -----------------  -----------------
         S            1.813176287731     0.719245874806    -0.339201708572    31.972071174400
         O           -1.844266712269    -0.938193125194    -0.798170708572    15.994914619570
         O            0.493115287731    -1.065198125194     1.116586291428    15.994914619570
         C           -0.828384712269     0.830117874806     0.477558291428    12.000000000000
         C           -3.384297712269     0.592145874806     0.239345291428    12.000000000000
         C           -1.999650512269     0.094247974806    -0.117627708572    12.000000000000
         C            0.431550287731    -0.007305125194     0.510332291428    12.000000000000
         C           -4.512727712269    -0.282806125194    -0.282522708572    12.000000000000
         C            3.056576287731    -0.559977125194    -0.006295708572    12.000000000000
         C            4.442232287731    -0.050272125194    -0.372094708572    12.000000000000
         H           -0.695258712269     1.742557874806    -0.118270708572     1.007825032230
         H           -1.048471712269     1.147244874806     1.503615291428     1.007825032230
         H           -3.453859712269     0.720158874806     1.327402291428     1.007825032230
         H           -3.409439612269     1.603761574806    -0.193842808572     1.007825032230
         H           -5.482933712269     0.162393874806    -0.048156708572     1.007825032230
         H           -4.433741712269    -0.406930125194    -1.364173708572     1.007825032230
         H           -4.467213712269    -1.276673125194     0.168823291428     1.007825032230
         H            2.995405287731    -0.812063125194     1.051943291428     1.007825032230
         H            2.801456287731    -1.456392125194    -0.574038708572     1.007825032230
         H            4.500258287731     0.221153874806    -1.429142708572     1.007825032230
         H            4.707581287731     0.826332874806     0.223357291428     1.007825032230
         H            5.185108287731    -0.829914125194    -0.182759708572     1.007825032230

  Basis Set: AUG-CC-PVTZ
    Blend: AUG-CC-PVTZ
  Basis Set: (AUG-CC-PVTZ AUX)
    Blend: AUG-CC-PVTZ-JKFIT
	 Reference Energy          =    -819.4896921039583049 [Eh]
	 Singles Energy            =      -0.0000000000000000 [Eh]
	 Same-Spin Energy          =      -0.4849826958449105 [Eh]
	 Opposite-Spin Energy      =      -1.5726921300834393 [Eh]
	 Correlation Energy        =      -2.0576748259283497 [Eh]
	 Total Energy              =    -821.5473669298866071 [Eh]

	 ================> DF-SCS-MP2 Energies <==================
	-----------------------------------------------------------
	 SCS Same-Spin Scale       =       0.3333333333333333 [-]
	 SCS Opposite-Spin Scale   =       1.2000000000000000 [-]
	 SCS Same-Spin Energy      =      -0.1616608986149702 [Eh]
	 SCS Opposite-Spin Energy  =      -1.8872305561001270 [Eh]
	 SCS Correlation Energy    =      -2.0488914547150974 [Eh]
	 SCS Total Energy          =    -821.5385835586733947 [Eh]
	-----------------------------------------------------------

  Dipole Moment: [D]
     X:     0.0959      Y:     2.8984      Z:     0.7203     Total:     2.9881

*** Psi4 exiting successfully. Buy a developer a beer!
