                               Psi4 1.3.2 release

  ==> Input File <==

--------------------------------------------------------------------------
#psi4
#
memory 32 gb

molecule  {
0 1
  S        1.8054456     0.7348726    -0.3447994
  O       -1.8432130    -0.9348080    -0.8000930
  O        0.4941690    -1.0618130     1.1146640
  C       -0.8209764     0.8426837     0.4685854
  C       -3.3832440     0.5955310     0.2374230
  C       -2.0096370     0.0521440    -0.0950140
  C        0.4326040    -0.0039200     0.5084100
  C       -4.5116740    -0.2794210    -0.2844450
  C        3.0576300    -0.5565920    -0.0082180
  C        4.4432860    -0.0468870    -0.3740170
  H       -0.6942050     1.7459430    -0.1201930
  H       -1.0474180     1.1506300     1.5016930
  H       -3.4528060     0.7235440     1.3254800
  H       -3.4442640     1.6111560    -0.1826160
  H       -5.4818800     0.1657790    -0.0500790
  H       -4.4326880    -0.4035450    -1.3660960
  H       -4.4661600    -1.2732880     0.1669010
  H        2.9964590    -0.8086780     1.0500210
  H        2.8025100    -1.4530070    -0.5759610
  H        4.5013120     0.2245390    -1.4310650
  H        4.7086350     0.8297180     0.2214350
  H        5.1861620    -0.8265290    -0.1846820
units angstrom
no_reorient  #important for SAPT in psi4, default
symmetry c1  #important for SAPT in psi4, default
}

set PROPERTIES_ORIGIN ["COM"]
properties('MP2/aug-cc-pvtz', properties = ['dipole'])
--------------------------------------------------------------------------

    Molecular point group: c1
  Charge       = 0
  Multiplicity = 1
  Basis Set: AUG-CC-PVTZ
    Blend: AUG-CC-PVTZ
  Basis Set: (AUG-CC-PVTZ AUX)
    Blend: AUG-CC-PVTZ-JKFIT

    Orbital Energies [Eh]
    ---------------------

    Doubly Occupied:

       1A    -91.972476     2A    -20.555678     3A    -20.555455
       4A    -11.367668     5A    -11.346349     6A    -11.266214
       7A    -11.263736     8A    -11.249938     9A    -11.231382
      10A    -11.222303    11A     -8.973874    12A     -6.655013
      13A     -6.653859    14A     -6.653272    15A     -1.397224
      16A     -1.383907    17A     -1.092694    18A     -1.075811
      19A     -1.042756    20A     -0.971638    21A     -0.895815
      22A     -0.837350    23A     -0.759337    24A     -0.727432
      25A     -0.677618    26A     -0.667765    27A     -0.647661
      28A     -0.637166    29A     -0.633273    30A     -0.608533
      31A     -0.595924    32A     -0.560486    33A     -0.545848
      34A     -0.533044    35A     -0.526678    36A     -0.520613
      37A     -0.512297    38A     -0.504506    39A     -0.488817
      40A     -0.463518    41A     -0.429569    42A     -0.406025
      43A     -0.371816

  @DF-RHF Final Energy:  -819.49426926662636

   => Energetics <=

    Nuclear Repulsion Energy =            603.0756599035610179
    One-Electron Energy =               -2322.1751819008891289
    Two-Electron Energy =                 899.6052527307017499
    Total Energy =                       -819.4942692666263611
  Basis Set: (AUG-CC-PVTZ AUX)
    Blend: AUG-CC-PVTZ-RI
    Molecular point group: c1

    Geometry (in Angstrom), charge = 0, multiplicity = 1:

       Center              X                  Y                   Z               Mass
    ------------   -----------------  -----------------  -----------------  -----------------
         S            1.806723833887     0.731739079686    -0.343536670058    31.972071174400
         O           -1.841934766113    -0.937941520314    -0.798830270058    15.994914619570
         O            0.495447233887    -1.064946520314     1.115926729942    15.994914619570
         C           -0.819698166113     0.839550179686     0.469848129942    12.000000000000
         C           -3.381965766113     0.592397479686     0.238685729942    12.000000000000
         C           -2.008358766113     0.049010479686    -0.093751270058    12.000000000000
         C            0.433882233887    -0.007053520314     0.509672729942    12.000000000000
         C           -4.510395766113    -0.282554520314    -0.283182270058    12.000000000000
         C            3.058908233887    -0.559725520314    -0.006955270058    12.000000000000
         C            4.444564233887    -0.050020520314    -0.372754270058    12.000000000000
         H           -0.692926766113     1.742809479686    -0.118930270058     1.007825032230
         H           -1.046139766113     1.147496479686     1.502955729942     1.007825032230
         H           -3.451527766113     0.720410479686     1.326742729942     1.007825032230
         H           -3.442985766113     1.608022479686    -0.181353270058     1.007825032230
         H           -5.480601766113     0.162645479686    -0.048816270058     1.007825032230
         H           -4.431409766113    -0.406678520314    -1.364833270058     1.007825032230
         H           -4.464881766113    -1.276421520314     0.168163729942     1.007825032230
         H            2.997737233887    -0.811811520314     1.051283729942     1.007825032230
         H            2.803788233887    -1.456140520314    -0.574698270058     1.007825032230
         H            4.502590233887     0.221405479686    -1.429802270058     1.007825032230
         H            4.709913233887     0.826584479686     0.222697729942     1.007825032230
         H            5.187440233887    -0.829662520314    -0.183419270058     1.007825032230

  Basis Set: AUG-CC-PVTZ
    Blend: AUG-CC-PVTZ
  Basis Set: (AUG-CC-PVTZ AUX)
    Blend: AUG-CC-PVTZ-JKFIT
	 Reference Energy          =    -819.4942692666263611 [Eh]
	 Singles Energy            =      -0.0000000000000000 [Eh]
	 Same-Spin Energy          =      -0.4841628184537847 [Eh]
	 Opposite-Spin Energy      =      -1.5711872410019283 [Eh]
	 Correlation Energy        =      -2.0553500594557130 [Eh]
	 Total Energy              =    -821.5496193260820519 [Eh]

	 ================> DF-SCS-MP2 Energies <==================
	-----------------------------------------------------------
	 SCS Same-Spin Scale       =       0.3333333333333333 [-]
	 SCS Opposite-Spin Scale   =       1.2000000000000000 [-]
	 SCS Same-Spin Energy      =      -0.1613876061512616 [Eh]
	 SCS Opposite-Spin Energy  =      -1.8854246892023139 [Eh]
	 SCS Correlation Energy    =      -2.0468122953535755 [Eh]
	 SCS Total Energy          =    -821.5410815619799223 [Eh]
	-----------------------------------------------------------

  Dipole Moment: [D]
     X:    -0.0148      Y:     2.8327      Z:     0.6728     Total:     2.9116

*** Psi4 exiting successfully. Buy a developer a beer!
