                               Psi4 1.3.2 release

  ==> Input File <==

--------------------------------------------------------------------------
#psi4
#
memory 32 gb

molecule  {
0 1
  S        1.8142300     0.7226310    -0.3411240
  O       -1.8432130    -0.9348080    -0.8000930
  O        0.4941690    -1.0618130     1.1146640
  C       -0.8273310     0.8335030     0.4756360
  C       -3.3832440     0.5955310     0.2374230
  C       -2.0096370     0.0521440    -0.0950140
  C        0.4151247     0.0203413     0.5001657
  C       -4.5116740    -0.2794210    -0.2844450
  C        3.0789258    -0.5397429    -0.0245202
  C        4.4432860    -0.0468870    -0.3740170
  H       -0.6942050     1.7459430    -0.1201930
  H       -1.0474180     1.1506300     1.5016930
  H       -3.4528060     0.7235440     1.3254800
  H       -3.4442640     1.6111560    -0.1826160
  H       -5.4818800     0.1657790    -0.0500790
  H       -4.4326880    -0.4035450    -1.3660960
  H       -4.4661600    -1.2732880     0.1669010
  H        2.9964590    -0.8086780     1.0500210
  H        2.8025100    -1.4530070    -0.5759610
  H        4.5013120     0.2245390    -1.4310650
  H        4.7086350     0.8297180     0.2214350
  H        5.1861620    -0.8265290    -0.1846820
units angstrom
no_reorient  #important for SAPT in psi4, default
symmetry c1  #important for SAPT in psi4, default
}

set PROPERTIES_ORIGIN ["COM"]
properties('MP2/aug-cc-pvtz', properties = ['dipole'])
--------------------------------------------------------------------------

    Molecular point group: c1
  Charge       = 0
  Multiplicity = 1
  Basis Set: AUG-CC-PVTZ
    Blend: AUG-CC-PVTZ
  Basis Set: (AUG-CC-PVTZ AUX)
    Blend: AUG-CC-PVTZ-JKFIT

    Orbital Energies [Eh]
    ---------------------

    Doubly Occupied:

       1A    -91.973279     2A    -20.556639     3A    -20.552253
       4A    -11.369695     5A    -11.347637     6A    -11.267956
       7A    -11.264467     8A    -11.250863     9A    -11.230958
      10A    -11.222908    11A     -8.974757    12A     -6.655905
      13A     -6.654849    14A     -6.654232    15A     -1.392358
      16A     -1.372096    17A     -1.097415    18A     -1.080171
      19A     -1.047514    20A     -0.975054    21A     -0.898381
      22A     -0.835817    23A     -0.762099    24A     -0.727069
      25A     -0.679285    26A     -0.669577    27A     -0.646157
      28A     -0.636020    29A     -0.633225    30A     -0.608548
      31A     -0.595942    32A     -0.558301    33A     -0.546616
      34A     -0.532847    35A     -0.529724    36A     -0.520844
      37A     -0.511060    38A     -0.498646    39A     -0.487908
      40A     -0.463643    41A     -0.429940    42A     -0.408801
      43A     -0.369461

  @DF-RHF Final Energy:  -819.48900667284670

   => Energetics <=

    Nuclear Repulsion Energy =            603.3238666548431866
    One-Electron Energy =               -2322.6439135897785491
    Two-Electron Energy =                 899.8310402620886634
    Total Energy =                       -819.4890066728466991
  Basis Set: (AUG-CC-PVTZ AUX)
    Blend: AUG-CC-PVTZ-RI
    Molecular point group: c1

    Geometry (in Angstrom), charge = 0, multiplicity = 1:

       Center              X                  Y                   Z               Mass
    ------------   -----------------  -----------------  -----------------  -----------------
         S            1.813943790357     0.719548917412    -0.339283717422    31.972071174400
         O           -1.843499209643    -0.937890082588    -0.798252717422    15.994914619570
         O            0.493882790357    -1.064895082588     1.116504282578    15.994914619570
         C           -0.827617209643     0.830420917412     0.477476282578    12.000000000000
         C           -3.383530209643     0.592448917412     0.239263282578    12.000000000000
         C           -2.009923209643     0.049061917412    -0.093173717422    12.000000000000
         C            0.414838490357     0.017259217412     0.502005982578    12.000000000000
         C           -4.511960209643    -0.282503082588    -0.282604717422    12.000000000000
         C            3.078639590357    -0.542824982588    -0.022679917422    12.000000000000
         C            4.442999790357    -0.049969082588    -0.372176717422    12.000000000000
         H           -0.694491209643     1.742860917412    -0.118352717422     1.007825032230
         H           -1.047704209643     1.147547917412     1.503533282578     1.007825032230
         H           -3.453092209643     0.720461917412     1.327320282578     1.007825032230
         H           -3.444550209643     1.608073917412    -0.180775717422     1.007825032230
         H           -5.482166209643     0.162696917412    -0.048238717422     1.007825032230
         H           -4.432974209643    -0.406627082588    -1.364255717422     1.007825032230
         H           -4.466446209643    -1.276370082588     0.168741282578     1.007825032230
         H            2.996172790357    -0.811760082588     1.051861282578     1.007825032230
         H            2.802223790357    -1.456089082588    -0.574120717422     1.007825032230
         H            4.501025790357     0.221456917412    -1.429224717422     1.007825032230
         H            4.708348790357     0.826635917412     0.223275282578     1.007825032230
         H            5.185875790357    -0.829611082588    -0.182841717422     1.007825032230

  Basis Set: AUG-CC-PVTZ
    Blend: AUG-CC-PVTZ
  Basis Set: (AUG-CC-PVTZ AUX)
    Blend: AUG-CC-PVTZ-JKFIT
	 Reference Energy          =    -819.4890066728466991 [Eh]
	 Singles Energy            =      -0.0000000000000000 [Eh]
	 Same-Spin Energy          =      -0.4852983066041819 [Eh]
	 Opposite-Spin Energy      =      -1.5729071241496559 [Eh]
	 Correlation Energy        =      -2.0582054307538380 [Eh]
	 Total Energy              =    -821.5472121036004864 [Eh]

	 ================> DF-SCS-MP2 Energies <==================
	-----------------------------------------------------------
	 SCS Same-Spin Scale       =       0.3333333333333333 [-]
	 SCS Opposite-Spin Scale   =       1.2000000000000000 [-]
	 SCS Same-Spin Energy      =      -0.1617661022013940 [Eh]
	 SCS Opposite-Spin Energy  =      -1.8874885489795870 [Eh]
	 SCS Correlation Energy    =      -2.0492546511809810 [Eh]
	 SCS Total Energy          =    -821.5382613240276442 [Eh]
	-----------------------------------------------------------

  Dipole Moment: [D]
     X:    -0.0309      Y:     2.9048      Z:     0.6352     Total:     2.9736

*** Psi4 exiting successfully. Buy a developer a beer!
