                               Psi4 1.3.2 release

  ==> Input File <==

--------------------------------------------------------------------------
#psi4
#
memory 32 gb

molecule  {
0 1
  S        1.8142300     0.7226310    -0.3411240
  O       -1.8432130    -0.9348080    -0.8000930
  O        0.4941690    -1.0618130     1.1146640
  C       -0.8617938     0.8675250     0.4979621
  C       -3.3602126     0.6344397     0.2647877
  C       -2.0096370     0.0521440    -0.0950140
  C        0.4326040    -0.0039200     0.5084100
  C       -4.5116740    -0.2794210    -0.2844450
  C        3.0576300    -0.5565920    -0.0082180
  C        4.4432860    -0.0468870    -0.3740170
  H       -0.6942050     1.7459430    -0.1201930
  H       -1.0474180     1.1506300     1.5016930
  H       -3.4528060     0.7235440     1.3254800
  H       -3.4442640     1.6111560    -0.1826160
  H       -5.4818800     0.1657790    -0.0500790
  H       -4.4326880    -0.4035450    -1.3660960
  H       -4.4661600    -1.2732880     0.1669010
  H        2.9964590    -0.8086780     1.0500210
  H        2.8025100    -1.4530070    -0.5759610
  H        4.5013120     0.2245390    -1.4310650
  H        4.7086350     0.8297180     0.2214350
  H        5.1861620    -0.8265290    -0.1846820
units angstrom
no_reorient  #important for SAPT in psi4, default
symmetry c1  #important for SAPT in psi4, default
}

set PROPERTIES_ORIGIN ["COM"]
properties('MP2/aug-cc-pvtz', properties = ['dipole'])
--------------------------------------------------------------------------

    Molecular point group: c1
  Charge       = 0
  Multiplicity = 1
  Basis Set: AUG-CC-PVTZ
    Blend: AUG-CC-PVTZ
  Basis Set: (AUG-CC-PVTZ AUX)
    Blend: AUG-CC-PVTZ-JKFIT

    Orbital Energies [Eh]
    ---------------------

    Doubly Occupied:

       1A    -91.972034     2A    -20.558743     3A    -20.555233
       4A    -11.368421     5A    -11.347015     6A    -11.264346
       7A    -11.262598     8A    -11.246178     9A    -11.231624
      10A    -11.223402    11A     -8.973612    12A     -6.654764
      13A     -6.653640    14A     -6.653024    15A     -1.396708
      16A     -1.384270    17A     -1.092623    18A     -1.077149
      19A     -1.034585    20A     -0.971864    21A     -0.894038
      22A     -0.837931    23A     -0.759067    24A     -0.728263
      25A     -0.676370    26A     -0.671866    27A     -0.644229
      28A     -0.639983    29A     -0.634486    30A     -0.610377
      31A     -0.599750    32A     -0.559337    33A     -0.543336
      34A     -0.530537    35A     -0.527378    36A     -0.517554
      37A     -0.513177    38A     -0.505198    39A     -0.494632
      40A     -0.464665    41A     -0.430351    42A     -0.401334
      43A     -0.370975

  @DF-RHF Final Energy:  -819.48959546194703

   => Energetics <=

    Nuclear Repulsion Energy =            602.4587381275002826
    One-Electron Energy =               -2320.9433392429796186
    Two-Electron Energy =                 898.9950056535323029
    Total Energy =                       -819.4895954619470331
  Basis Set: (AUG-CC-PVTZ AUX)
    Blend: AUG-CC-PVTZ-RI
    Molecular point group: c1

    Geometry (in Angstrom), charge = 0, multiplicity = 1:

       Center              X                  Y                   Z               Mass
    ------------   -----------------  -----------------  -----------------  -----------------
         S            1.815086984162     0.717163226934    -0.344849573802    31.972071174400
         O           -1.842356015838    -0.940275773066    -0.803818573802    15.994914619570
         O            0.495025984162    -1.067280773066     1.110938426198    15.994914619570
         C           -0.860936815838     0.862057226934     0.494236526198    12.000000000000
         C           -3.359355615838     0.628971926934     0.261062126198    12.000000000000
         C           -2.008780015838     0.046676226934    -0.098739573802    12.000000000000
         C            0.433460984162    -0.009387773066     0.504684426198    12.000000000000
         C           -4.510817015838    -0.284888773066    -0.288170573802    12.000000000000
         C            3.058486984162    -0.562059773066    -0.011943573802    12.000000000000
         C            4.444142984162    -0.052354773066    -0.377742573802    12.000000000000
         H           -0.693348015838     1.740475226934    -0.123918573802     1.007825032230
         H           -1.046561015838     1.145162226934     1.497967426198     1.007825032230
         H           -3.451949015838     0.718076226934     1.321754426198     1.007825032230
         H           -3.443407015838     1.605688226934    -0.186341573802     1.007825032230
         H           -5.481023015838     0.160311226934    -0.053804573802     1.007825032230
         H           -4.431831015838    -0.409012773066    -1.369821573802     1.007825032230
         H           -4.465303015838    -1.278755773066     0.163175426198     1.007825032230
         H            2.997315984162    -0.814145773066     1.046295426198     1.007825032230
         H            2.803366984162    -1.458474773066    -0.579686573802     1.007825032230
         H            4.502168984162     0.219071226934    -1.434790573802     1.007825032230
         H            4.709491984162     0.824250226934     0.217709426198     1.007825032230
         H            5.187018984162    -0.831996773066    -0.188407573802     1.007825032230

  Basis Set: AUG-CC-PVTZ
    Blend: AUG-CC-PVTZ
  Basis Set: (AUG-CC-PVTZ AUX)
    Blend: AUG-CC-PVTZ-JKFIT
	 Reference Energy          =    -819.4895954619470331 [Eh]
	 Singles Energy            =      -0.0000000000000000 [Eh]
	 Same-Spin Energy          =      -0.4838740231845479 [Eh]
	 Opposite-Spin Energy      =      -1.5710513413721832 [Eh]
	 Correlation Energy        =      -2.0549253645567309 [Eh]
	 Total Energy              =    -821.5445208265037991 [Eh]

	 ================> DF-SCS-MP2 Energies <==================
	-----------------------------------------------------------
	 SCS Same-Spin Scale       =       0.3333333333333333 [-]
	 SCS Opposite-Spin Scale   =       1.2000000000000000 [-]
	 SCS Same-Spin Energy      =      -0.1612913410615160 [Eh]
	 SCS Opposite-Spin Energy  =      -1.8852616096466197 [Eh]
	 SCS Correlation Energy    =      -2.0465529507081355 [Eh]
	 SCS Total Energy          =    -821.5361484126551659 [Eh]
	-----------------------------------------------------------

  Dipole Moment: [D]
     X:     0.0803      Y:     2.8089      Z:     0.6885     Total:     2.8932

*** Psi4 exiting successfully. Buy a developer a beer!
