                               Psi4 1.3.2 release

  ==> Input File <==

--------------------------------------------------------------------------
#psi4
#
memory 32 gb

molecule  {
0 1
  S        1.7476234     0.6624705    -0.3099643
  O       -1.8432130    -0.9348080    -0.8000930
  O        0.4941690    -1.0618130     1.1146640
  C       -0.8273310     0.8335030     0.4756360
  C       -3.3832440     0.5955310     0.2374230
  C       -2.0096370     0.0521440    -0.0950140
  C        0.4326040    -0.0039200     0.5084100
  C       -4.5116740    -0.2794210    -0.2844450
  C        3.0576300    -0.5565920    -0.0082180
  C        4.4729181    -0.1171123    -0.3509539
  H       -0.6942050     1.7459430    -0.1201930
  H       -1.0474180     1.1506300     1.5016930
  H       -3.4528060     0.7235440     1.3254800
  H       -3.4442640     1.6111560    -0.1826160
  H       -5.4818800     0.1657790    -0.0500790
  H       -4.4326880    -0.4035450    -1.3660960
  H       -4.4661600    -1.2732880     0.1669010
  H        2.9964590    -0.8086780     1.0500210
  H        2.8025100    -1.4530070    -0.5759610
  H        4.5013120     0.2245390    -1.4310650
  H        4.7086350     0.8297180     0.2214350
  H        5.1861620    -0.8265290    -0.1846820
units angstrom
no_reorient  #important for SAPT in psi4, default
symmetry c1  #important for SAPT in psi4, default
}

set PROPERTIES_ORIGIN ["COM"]
properties('MP2/aug-cc-pvtz', properties = ['dipole'])
--------------------------------------------------------------------------

    Molecular point group: c1
  Charge       = 0
  Multiplicity = 1
  Basis Set: AUG-CC-PVTZ
    Blend: AUG-CC-PVTZ
  Basis Set: (AUG-CC-PVTZ AUX)
    Blend: AUG-CC-PVTZ-JKFIT

    Orbital Energies [Eh]
    ---------------------

    Doubly Occupied:

       1A    -91.972892     2A    -20.554435     3A    -20.544883
       4A    -11.358511     5A    -11.344928     6A    -11.265450
       7A    -11.264632     8A    -11.249051     9A    -11.235655
      10A    -11.221619    11A     -8.976630    12A     -6.657952
      13A     -6.656728    14A     -6.656099    15A     -1.394594
      16A     -1.381602    17A     -1.102123    18A     -1.076981
      19A     -1.044022    20A     -0.986259    21A     -0.896304
      22A     -0.845621    23A     -0.756766    24A     -0.723990
      25A     -0.678104    26A     -0.669376    27A     -0.648230
      28A     -0.638069    29A     -0.632116    30A     -0.607578
      31A     -0.602092    32A     -0.570461    33A     -0.547365
      34A     -0.532133    35A     -0.527996    36A     -0.519240
      37A     -0.509844    38A     -0.496315    39A     -0.487324
      40A     -0.464831    41A     -0.427696    42A     -0.409042
      43A     -0.373081

  @DF-RHF Final Energy:  -819.48408547683925

   => Energetics <=

    Nuclear Repulsion Energy =            606.5834527272440937
    One-Electron Energy =               -2329.1178354561689048
    Two-Electron Energy =                 903.0502972520855565
    Total Energy =                       -819.4840854768392546
  Basis Set: (AUG-CC-PVTZ AUX)
    Blend: AUG-CC-PVTZ-RI
    Molecular point group: c1

    Geometry (in Angstrom), charge = 0, multiplicity = 1:

       Center              X                  Y                   Z               Mass
    ------------   -----------------  -----------------  -----------------  -----------------
         S            1.758706748640     0.679753091305    -0.317917822697    31.972071174400
         O           -1.832129651360    -0.917525408695    -0.808046522697    15.994914619570
         O            0.505252348640    -1.044530408695     1.106710477303    15.994914619570
         C           -0.816247651360     0.850785591305     0.467682477303    12.000000000000
         C           -3.372160651360     0.612813591305     0.229469477303    12.000000000000
         C           -1.998553651360     0.069426591305    -0.102967522697    12.000000000000
         C            0.443687348640     0.013362591305     0.500456477303    12.000000000000
         C           -4.500590651360    -0.262138408695    -0.292398522697    12.000000000000
         C            3.068713348640    -0.539309408695    -0.016171522697    12.000000000000
         C            4.484001448640    -0.099829708695    -0.358907422697    12.000000000000
         H           -0.683121651360     1.763225591305    -0.128146522697     1.007825032230
         H           -1.036334651360     1.167912591305     1.493739477303     1.007825032230
         H           -3.441722651360     0.740826591305     1.317526477303     1.007825032230
         H           -3.433180651360     1.628438591305    -0.190569522697     1.007825032230
         H           -5.470796651360     0.183061591305    -0.058032522697     1.007825032230
         H           -4.421604651360    -0.386262408695    -1.374049522697     1.007825032230
         H           -4.455076651360    -1.256005408695     0.158947477303     1.007825032230
         H            3.007542348640    -0.791395408695     1.042067477303     1.007825032230
         H            2.813593348640    -1.435724408695    -0.583914522697     1.007825032230
         H            4.512395348640     0.241821591305    -1.439018522697     1.007825032230
         H            4.719718348640     0.847000591305     0.213481477303     1.007825032230
         H            5.197245348640    -0.809246408695    -0.192635522697     1.007825032230

  Basis Set: AUG-CC-PVTZ
    Blend: AUG-CC-PVTZ
  Basis Set: (AUG-CC-PVTZ AUX)
    Blend: AUG-CC-PVTZ-JKFIT
	 Reference Energy          =    -819.4840854768392546 [Eh]
	 Singles Energy            =      -0.0000000000000000 [Eh]
	 Same-Spin Energy          =      -0.4845971079175181 [Eh]
	 Opposite-Spin Energy      =      -1.5705429656659333 [Eh]
	 Correlation Energy        =      -2.0551400735834515 [Eh]
	 Total Energy              =    -821.5392255504226569 [Eh]

	 ================> DF-SCS-MP2 Energies <==================
	-----------------------------------------------------------
	 SCS Same-Spin Scale       =       0.3333333333333333 [-]
	 SCS Opposite-Spin Scale   =       1.2000000000000000 [-]
	 SCS Same-Spin Energy      =      -0.1615323693058394 [Eh]
	 SCS Opposite-Spin Energy  =      -1.8846515587991199 [Eh]
	 SCS Correlation Energy    =      -2.0461839281049592 [Eh]
	 SCS Total Energy          =    -821.5302694049441925 [Eh]
	-----------------------------------------------------------

  Dipole Moment: [D]
     X:     0.3027      Y:     2.9346      Z:     0.5464     Total:     3.0004

*** Psi4 exiting successfully. Buy a developer a beer!
