                               Psi4 1.3.2 release

  ==> Input File <==

--------------------------------------------------------------------------
#psi4
#
memory 32 gb

molecule  {
0 1
  S        1.7965566     0.7470579    -0.3484098
  O       -1.8432130    -0.9348080    -0.8000930
  O        0.4941690    -1.0618130     1.1146640
  C       -0.8145264     0.8517998     0.4615378
  C       -3.3832440     0.5955310     0.2374230
  C       -2.0096370     0.0521440    -0.0950140
  C        0.4326040    -0.0039200     0.5084100
  C       -4.5116740    -0.2794210    -0.2844450
  C        3.0576300    -0.5565920    -0.0082180
  C        4.4432860    -0.0468870    -0.3740170
  H       -0.6942050     1.7459430    -0.1201930
  H       -1.0474180     1.1506300     1.5016930
  H       -3.4528060     0.7235440     1.3254800
  H       -3.4442640     1.6111560    -0.1826160
  H       -5.4818800     0.1657790    -0.0500790
  H       -4.4326880    -0.4035450    -1.3660960
  H       -4.4661600    -1.2732880     0.1669010
  H        2.9964590    -0.8086780     1.0500210
  H        2.8025100    -1.4530070    -0.5759610
  H        4.5013120     0.2245390    -1.4310650
  H        4.7086350     0.8297180     0.2214350
  H        5.1861620    -0.8265290    -0.1846820
units angstrom
no_reorient  #important for SAPT in psi4, default
symmetry c1  #important for SAPT in psi4, default
}

set PROPERTIES_ORIGIN ["COM"]
properties('MP2/aug-cc-pvtz', properties = ['dipole'])
--------------------------------------------------------------------------

    Molecular point group: c1
  Charge       = 0
  Multiplicity = 1
  Basis Set: AUG-CC-PVTZ
    Blend: AUG-CC-PVTZ
  Basis Set: (AUG-CC-PVTZ AUX)
    Blend: AUG-CC-PVTZ-JKFIT

    Orbital Energies [Eh]
    ---------------------

    Doubly Occupied:

       1A    -91.972801     2A    -20.555813     3A    -20.555789
       4A    -11.367890     5A    -11.346608     6A    -11.265638
       7A    -11.264871     8A    -11.249988     9A    -11.231160
      10A    -11.222305    11A     -8.974001    12A     -6.655127
      13A     -6.653946    14A     -6.653383    15A     -1.397075
      16A     -1.383846    17A     -1.091667    18A     -1.074414
      19A     -1.042804    20A     -0.971147    21A     -0.895477
      22A     -0.837029    23A     -0.758651    24A     -0.728081
      25A     -0.677243    26A     -0.667125    27A     -0.647291
      28A     -0.636662    29A     -0.632652    30A     -0.608578
      31A     -0.596521    32A     -0.561188    33A     -0.545594
      34A     -0.532943    35A     -0.526297    36A     -0.520412
      37A     -0.512687    38A     -0.504350    39A     -0.488934
      40A     -0.461658    41A     -0.429366    42A     -0.405532
      43A     -0.372450

  @DF-RHF Final Energy:  -819.49314699513957

   => Energetics <=

    Nuclear Repulsion Energy =            602.7211838487530713
    One-Electron Energy =               -2321.4746708723450865
    Two-Electron Energy =                 899.2603400284524469
    Total Energy =                       -819.4931469951395684
  Basis Set: (AUG-CC-PVTZ AUX)
    Blend: AUG-CC-PVTZ-RI
    Molecular point group: c1

    Geometry (in Angstrom), charge = 0, multiplicity = 1:

       Center              X                  Y                   Z               Mass
    ------------   -----------------  -----------------  -----------------  -----------------
         S            1.799126881658     0.740806826455    -0.345897486070    31.972071174400
         O           -1.840642718342    -0.941059073545    -0.797580686070    15.994914619570
         O            0.496739281658    -1.068064073545     1.117176313930    15.994914619570
         C           -0.811956118342     0.845548726455     0.464050113930    12.000000000000
         C           -3.380673718342     0.589279926455     0.239935313930    12.000000000000
         C           -2.007066718342     0.045892926455    -0.092501686070    12.000000000000
         C            0.435174281658    -0.010171073545     0.510922313930    12.000000000000
         C           -4.509103718342    -0.285672073545    -0.281932686070    12.000000000000
         C            3.060200281658    -0.562843073545    -0.005705686070    12.000000000000
         C            4.445856281658    -0.053138073545    -0.371504686070    12.000000000000
         H           -0.691634718342     1.739691926455    -0.117680686070     1.007825032230
         H           -1.044847718342     1.144378926455     1.504205313930     1.007825032230
         H           -3.450235718342     0.717292926455     1.327992313930     1.007825032230
         H           -3.441693718342     1.604904926455    -0.180103686070     1.007825032230
         H           -5.479309718342     0.159527926455    -0.047566686070     1.007825032230
         H           -4.430117718342    -0.409796073545    -1.363583686070     1.007825032230
         H           -4.463589718342    -1.279539073545     0.169413313930     1.007825032230
         H            2.999029281658    -0.814929073545     1.052533313930     1.007825032230
         H            2.805080281658    -1.459258073545    -0.573448686070     1.007825032230
         H            4.503882281658     0.218287926455    -1.428552686070     1.007825032230
         H            4.711205281658     0.823466926455     0.223947313930     1.007825032230
         H            5.188732281658    -0.832780073545    -0.182169686070     1.007825032230

  Basis Set: AUG-CC-PVTZ
    Blend: AUG-CC-PVTZ
  Basis Set: (AUG-CC-PVTZ AUX)
    Blend: AUG-CC-PVTZ-JKFIT
	 Reference Energy          =    -819.4931469951395684 [Eh]
	 Singles Energy            =      -0.0000000000000000 [Eh]
	 Same-Spin Energy          =      -0.4841313827500356 [Eh]
	 Opposite-Spin Energy      =      -1.5713555103069292 [Eh]
	 Correlation Energy        =      -2.0554868930569650 [Eh]
	 Total Energy              =    -821.5486338881964912 [Eh]

	 ================> DF-SCS-MP2 Energies <==================
	-----------------------------------------------------------
	 SCS Same-Spin Scale       =       0.3333333333333333 [-]
	 SCS Opposite-Spin Scale   =       1.2000000000000000 [-]
	 SCS Same-Spin Energy      =      -0.1613771275833452 [Eh]
	 SCS Opposite-Spin Energy  =      -1.8856266123683150 [Eh]
	 SCS Correlation Energy    =      -2.0470037399516601 [Eh]
	 SCS Total Energy          =    -821.5401507350911743 [Eh]
	-----------------------------------------------------------

  Dipole Moment: [D]
     X:    -0.0298      Y:     2.8302      Z:     0.6629     Total:     2.9070

*** Psi4 exiting successfully. Buy a developer a beer!
