                               Psi4 1.4a3.dev225

  ==> Input File <==

--------------------------------------------------------------------------
#psi4
#
memory 32 gb

molecule  {
0 1
  S        1.5586770    -0.2994370    -0.7152220
  O       -1.5255240    -0.4876820     1.0921970
  O        0.7924220     1.7006740     0.8461850
  C       -0.8878030     0.9736540    -0.7120840
  C       -3.2304390    -0.0998550    -0.5631210
  C       -1.8596015     0.0728583     0.0310414
  C        0.4791140     0.9485020    -0.0654040
  C       -4.1634610    -0.9398430     0.2972900
  C        2.9497330    -0.0790050     0.4324980
  C        4.0540790    -1.0751370     0.1033520
  H       -0.8484610     0.6756560    -1.7668750
  H       -1.2645150     2.0025910    -0.6674260
  H       -3.6447290     0.9013370    -0.7419330
  H       -3.1015980    -0.5455960    -1.5588690
  H       -5.1413450    -1.0357370    -0.1813640
  H       -3.7504260    -1.9381500     0.4523140
  H       -4.2995020    -0.4825820     1.2793320
  H        3.3022180     0.9509290     0.3487650
  H        2.5726230    -0.2199470     1.4475820
  H        3.7004310    -2.1050230     0.1947960
  H        4.4320470    -0.9299840    -0.9117720
  H        4.8873260    -0.9394890     0.7982930
units angstrom
no_reorient  #important for SAPT in psi4, default
symmetry c1  #important for SAPT in psi4, default
}

set PROPERTIES_ORIGIN ["COM"]
properties('MP2/aug-cc-pvtz', properties = ['dipole'])
--------------------------------------------------------------------------

    Molecular point group: c1
  Charge       = 0
  Multiplicity = 1
  Basis Set: AUG-CC-PVTZ
    Blend: AUG-CC-PVTZ
  Basis Set: (AUG-CC-PVTZ AUX)
    Blend: AUG-CC-PVTZ-JKFIT

    Orbital Energies [Eh]
    ---------------------

    Doubly Occupied:

       1A    -91.968600     2A    -20.557398     3A    -20.555379
       4A    -11.366106     5A    -11.351283     6A    -11.267556
       7A    -11.261661     8A    -11.253213     9A    -11.230100
      10A    -11.225018    11A     -8.970376    12A     -6.651570
      13A     -6.650427    14A     -6.649788    15A     -1.393091
      16A     -1.376225    17A     -1.094594    18A     -1.078517
      19A     -1.044963    20A     -0.970497    21A     -0.900095
      22A     -0.836622    23A     -0.762062    24A     -0.726236
      25A     -0.676827    26A     -0.670641    27A     -0.649289
      28A     -0.637010    29A     -0.632419    30A     -0.606490
      31A     -0.591646    32A     -0.560087    33A     -0.546732
      34A     -0.530297    35A     -0.525739    36A     -0.521618
      37A     -0.512276    38A     -0.504284    39A     -0.487627
      40A     -0.462769    41A     -0.433882    42A     -0.408256
      43A     -0.368091

  @DF-RHF Final Energy:  -819.49273647488508

   => Energetics <=

    Nuclear Repulsion Energy =            610.0630602445758086
    One-Electron Energy =               -2336.1768697134170907
    Two-Electron Energy =                 906.6210729939562043
    Total Energy =                       -819.4927364748850778
  Basis Set: (AUG-CC-PVTZ AUX)
    Blend: AUG-CC-PVTZ-RI
    Molecular point group: c1

    Geometry (in Angstrom), charge = 0, multiplicity = 1:

       Center              X                  Y                   Z               Mass
    ------------   -----------------  -----------------  -----------------  -----------------
         S            1.539764471947    -0.322850662299    -0.722110904679    31.972071174400
         O           -1.544436528053    -0.511095662299     1.085308095321    15.994914619570
         O            0.773509471947     1.677260337701     0.839296095321    15.994914619570
         C           -0.906715528053     0.950240337701    -0.718972904679    12.000000000000
         C           -3.249351528053    -0.123268662299    -0.570009904679    12.000000000000
         C           -1.878514028053     0.049444637701     0.024152495321    12.000000000000
         C            0.460201471947     0.925088337701    -0.072292904679    12.000000000000
         C           -4.182373528053    -0.963256662299     0.290401095321    12.000000000000
         C            2.930820471947    -0.102418662299     0.425609095321    12.000000000000
         C            4.035166471947    -1.098550662299     0.096463095321    12.000000000000
         H           -0.867373528053     0.652242337701    -1.773763904679     1.007825032230
         H           -1.283427528053     1.979177337701    -0.674314904679     1.007825032230
         H           -3.663641528053     0.877923337701    -0.748821904679     1.007825032230
         H           -3.120510528053    -0.569009662299    -1.565757904679     1.007825032230
         H           -5.160257528053    -1.059150662299    -0.188252904679     1.007825032230
         H           -3.769338528053    -1.961563662299     0.445425095321     1.007825032230
         H           -4.318414528053    -0.505995662299     1.272443095321     1.007825032230
         H            3.283305471947     0.927515337701     0.341876095321     1.007825032230
         H            2.553710471947    -0.243360662299     1.440693095321     1.007825032230
         H            3.681518471947    -2.128436662299     0.187907095321     1.007825032230
         H            4.413134471947    -0.953397662299    -0.918660904679     1.007825032230
         H            4.868413471947    -0.962902662299     0.791404095321     1.007825032230

  Basis Set: AUG-CC-PVTZ
    Blend: AUG-CC-PVTZ
  Basis Set: (AUG-CC-PVTZ AUX)
    Blend: AUG-CC-PVTZ-JKFIT
	 Reference Energy          =    -819.4927364748850778 [Eh]
	 Singles Energy            =      -0.0000000000000000 [Eh]
	 Same-Spin Energy          =      -0.4851393459979681 [Eh]
	 Opposite-Spin Energy      =      -1.5726502589948017 [Eh]
	 Correlation Energy        =      -2.0577896049927697 [Eh]
	 Total Energy              =    -821.5505260798778409 [Eh]

	 ================> DF-SCS-MP2 Energies <==================
	-----------------------------------------------------------
	 SCS Same-Spin Scale       =       0.3333333333333333 [-]
	 SCS Opposite-Spin Scale   =       1.2000000000000000 [-]
	 SCS Same-Spin Energy      =      -0.1617131153326560 [Eh]
	 SCS Opposite-Spin Energy  =      -1.8871803107937619 [Eh]
	 SCS Correlation Energy    =      -2.0488934261264178 [Eh]
	 SCS Total Energy          =    -821.5416299010114471 [Eh]
	-----------------------------------------------------------

  Dipole Moment: [D]
     X:    -0.7559      Y:    -0.1826      Z:    -2.7495     Total:     2.8573

*** Psi4 exiting successfully. Buy a developer a beer!
