                               Psi4 1.3.2 release

  ==> Input File <==

--------------------------------------------------------------------------
#psi4
#
memory 32 gb

molecule  {
0 1
  S        1.8142300     0.7226310    -0.3411240
  O       -1.8432130    -0.9348080    -0.8000930
  O        0.5043072    -1.0629327     1.1115870
  C       -0.8211565     0.8423926     0.4680712
  C       -3.3832440     0.5955310     0.2374230
  C       -2.0096370     0.0521440    -0.0950140
  C        0.4326040    -0.0039200     0.5084100
  C       -4.5116740    -0.2794210    -0.2844450
  C        3.0576300    -0.5565920    -0.0082180
  C        4.4432860    -0.0468870    -0.3740170
  H       -0.6942050     1.7459430    -0.1201930
  H       -1.0474180     1.1506300     1.5016930
  H       -3.4528060     0.7235440     1.3254800
  H       -3.4442640     1.6111560    -0.1826160
  H       -5.4818800     0.1657790    -0.0500790
  H       -4.4326880    -0.4035450    -1.3660960
  H       -4.4661600    -1.2732880     0.1669010
  H        2.9964590    -0.8086780     1.0500210
  H        2.8025100    -1.4530070    -0.5759610
  H        4.5013120     0.2245390    -1.4310650
  H        4.7086350     0.8297180     0.2214350
  H        5.1861620    -0.8265290    -0.1846820
units angstrom
no_reorient  #important for SAPT in psi4, default
symmetry c1  #important for SAPT in psi4, default
}

set PROPERTIES_ORIGIN ["COM"]
properties('MP2/aug-cc-pvtz', properties = ['dipole'])
--------------------------------------------------------------------------

    Molecular point group: c1
  Charge       = 0
  Multiplicity = 1
  Basis Set: AUG-CC-PVTZ
    Blend: AUG-CC-PVTZ
  Basis Set: (AUG-CC-PVTZ AUX)
    Blend: AUG-CC-PVTZ-JKFIT

    Orbital Energies [Eh]
    ---------------------

    Doubly Occupied:

       1A    -91.971217     2A    -20.556105     3A    -20.555322
       4A    -11.367789     5A    -11.346800     6A    -11.267168
       7A    -11.262068     8A    -11.250287     9A    -11.231224
      10A    -11.222560    11A     -8.972888    12A     -6.654041
      13A     -6.652914    14A     -6.652302    15A     -1.397435
      16A     -1.384308    17A     -1.093798    18A     -1.076917
      19A     -1.043150    20A     -0.971455    21A     -0.896356
      22A     -0.837372    23A     -0.759477    24A     -0.727650
      25A     -0.678207    26A     -0.668392    27A     -0.648112
      28A     -0.637639    29A     -0.633673    30A     -0.608845
      31A     -0.596379    32A     -0.560013    33A     -0.546117
      34A     -0.533372    35A     -0.526661    36A     -0.520914
      37A     -0.512405    38A     -0.504537    39A     -0.489169
      40A     -0.464883    41A     -0.429712    42A     -0.405905
      43A     -0.370598

  @DF-RHF Final Energy:  -819.49453253679667

   => Energetics <=

    Nuclear Repulsion Energy =            603.4010410809497671
    One-Electron Energy =               -2322.8188806719149397
    Two-Electron Energy =                 899.9233070541686175
    Total Energy =                       -819.4945325367966689
  Basis Set: (AUG-CC-PVTZ AUX)
    Blend: AUG-CC-PVTZ-RI
    Molecular point group: c1

    Geometry (in Angstrom), charge = 0, multiplicity = 1:

       Center              X                  Y                   Z               Mass
    ------------   -----------------  -----------------  -----------------  -----------------
         S            1.812753857580     0.722076530307    -0.340249405932    31.972071174400
         O           -1.844689142420    -0.935362469693    -0.799218405932    15.994914619570
         O            0.502831057580    -1.063487169693     1.112461594068    15.994914619570
         C           -0.822632642420     0.841838130307     0.468945794068    12.000000000000
         C           -3.384720142420     0.594976530307     0.238297594068    12.000000000000
         C           -2.011113142420     0.051589530307    -0.094139405932    12.000000000000
         C            0.431127857580    -0.004474469693     0.509284594068    12.000000000000
         C           -4.513150142420    -0.279975469693    -0.283570405932    12.000000000000
         C            3.056153857580    -0.557146469693    -0.007343405932    12.000000000000
         C            4.441809857580    -0.047441469693    -0.373142405932    12.000000000000
         H           -0.695681142420     1.745388530307    -0.119318405932     1.007825032230
         H           -1.048894142420     1.150075530307     1.502567594068     1.007825032230
         H           -3.454282142420     0.722989530307     1.326354594068     1.007825032230
         H           -3.445740142420     1.610601530307    -0.181741405932     1.007825032230
         H           -5.483356142420     0.165224530307    -0.049204405932     1.007825032230
         H           -4.434164142420    -0.404099469693    -1.365221405932     1.007825032230
         H           -4.467636142420    -1.273842469693     0.167775594068     1.007825032230
         H            2.994982857580    -0.809232469693     1.050895594068     1.007825032230
         H            2.801033857580    -1.453561469693    -0.575086405932     1.007825032230
         H            4.499835857580     0.223984530307    -1.430190405932     1.007825032230
         H            4.707158857580     0.829163530307     0.222309594068     1.007825032230
         H            5.184685857580    -0.827083469693    -0.183807405932     1.007825032230

  Basis Set: AUG-CC-PVTZ
    Blend: AUG-CC-PVTZ
  Basis Set: (AUG-CC-PVTZ AUX)
    Blend: AUG-CC-PVTZ-JKFIT
	 Reference Energy          =    -819.4945325367966689 [Eh]
	 Singles Energy            =      -0.0000000000000000 [Eh]
	 Same-Spin Energy          =      -0.4842414544912328 [Eh]
	 Opposite-Spin Energy      =      -1.5710687936085286 [Eh]
	 Correlation Energy        =      -2.0553102480997616 [Eh]
	 Total Energy              =    -821.5498427848964411 [Eh]

	 ================> DF-SCS-MP2 Energies <==================
	-----------------------------------------------------------
	 SCS Same-Spin Scale       =       0.3333333333333333 [-]
	 SCS Opposite-Spin Scale   =       1.2000000000000000 [-]
	 SCS Same-Spin Energy      =      -0.1614138181637443 [Eh]
	 SCS Opposite-Spin Energy  =      -1.8852825523302341 [Eh]
	 SCS Correlation Energy    =      -2.0466963704939785 [Eh]
	 SCS Total Energy          =    -821.5412289072907015 [Eh]
	-----------------------------------------------------------

  Dipole Moment: [D]
     X:    -0.0599      Y:     2.8330      Z:     0.6837     Total:     2.9149

*** Psi4 exiting successfully. Buy a developer a beer!
