                               Psi4 1.3.2 release

  ==> Input File <==

--------------------------------------------------------------------------
#psi4
#
memory 32 gb

molecule  {
0 1
  S        1.8142300     0.7226310    -0.3411240
  O       -1.8432130    -0.9348080    -0.8000930
  O        0.4941690    -1.0618130     1.1146640
  C       -0.8273310     0.8335030     0.4756360
  C       -3.3832440     0.5955310     0.2374230
  C       -2.0096370     0.0521440    -0.0950140
  C        0.4225184     0.1693845     0.4090932
  C       -4.5116740    -0.2794210    -0.2844450
  C        3.0576300    -0.5565920    -0.0082180
  C        4.4432860    -0.0468870    -0.3740170
  H       -0.6942050     1.7459430    -0.1201930
  H       -1.0474180     1.1506300     1.5016930
  H       -3.4528060     0.7235440     1.3254800
  H       -3.4442640     1.6111560    -0.1826160
  H       -5.4818800     0.1657790    -0.0500790
  H       -4.4326880    -0.4035450    -1.3660960
  H       -4.4661600    -1.2732880     0.1669010
  H        2.9964590    -0.8086780     1.0500210
  H        2.8025100    -1.4530070    -0.5759610
  H        4.5013120     0.2245390    -1.4310650
  H        4.7086350     0.8297180     0.2214350
  H        5.1861620    -0.8265290    -0.1846820
units angstrom
no_reorient  #important for SAPT in psi4, default
symmetry c1  #important for SAPT in psi4, default
}

set PROPERTIES_ORIGIN ["COM"]
properties('MP2/aug-cc-pvtz', properties = ['dipole'])
--------------------------------------------------------------------------

    Molecular point group: c1
  Charge       = 0
  Multiplicity = 1
  Basis Set: AUG-CC-PVTZ
    Blend: AUG-CC-PVTZ
  Basis Set: (AUG-CC-PVTZ AUX)
    Blend: AUG-CC-PVTZ-JKFIT

    Orbital Energies [Eh]
    ---------------------

    Doubly Occupied:

       1A    -91.993114     2A    -20.554923     3A    -20.523016
       4A    -11.371768     5A    -11.348545     6A    -11.271818
       7A    -11.267823     8A    -11.251184     9A    -11.239087
      10A    -11.222512    11A     -8.995543    12A     -6.676894
      13A     -6.675576    14A     -6.675220    15A     -1.388231
      16A     -1.273075    17A     -1.110013    18A     -1.086088
      19A     -1.054342    20A     -0.993629    21A     -0.903242
      22A     -0.851375    23A     -0.769286    24A     -0.723027
      25A     -0.678671    26A     -0.668110    27A     -0.646605
      28A     -0.640821    29A     -0.624835    30A     -0.607170
      31A     -0.578251    32A     -0.546933    33A     -0.537532
      34A     -0.530694    35A     -0.526777    36A     -0.521750
      37A     -0.509009    38A     -0.490172    39A     -0.464507
      40A     -0.460766    41A     -0.424794    42A     -0.410770
      43A     -0.369359

  @DF-RHF Final Energy:  -819.42868921275908

   => Energetics <=

    Nuclear Repulsion Energy =            603.2738991858973350
    One-Electron Energy =               -2322.4914592334157533
    Two-Electron Energy =                 899.7888708347593365
    Total Energy =                       -819.4286892127590818
  Basis Set: (AUG-CC-PVTZ AUX)
    Blend: AUG-CC-PVTZ-RI
    Molecular point group: c1

    Geometry (in Angstrom), charge = 0, multiplicity = 1:

       Center              X                  Y                   Z               Mass
    ------------   -----------------  -----------------  -----------------  -----------------
         S            1.814986084351     0.709637816458    -0.333677899979    31.972071174400
         O           -1.842456915649    -0.947801183542    -0.792646899979    15.994914619570
         O            0.494925084351    -1.074806183542     1.122110100021    15.994914619570
         C           -0.826574915649     0.820509816458     0.483082100021    12.000000000000
         C           -3.382487915649     0.582537816458     0.244869100021    12.000000000000
         C           -2.008880915649     0.039150816458    -0.087567899979    12.000000000000
         C            0.423274484351     0.156391316458     0.416539300021    12.000000000000
         C           -4.510917915649    -0.292414183542    -0.276998899979    12.000000000000
         C            3.058386084351    -0.569585183542    -0.000771899979    12.000000000000
         C            4.444042084351    -0.059880183542    -0.366570899979    12.000000000000
         H           -0.693448915649     1.732949816458    -0.112746899979     1.007825032230
         H           -1.046661915649     1.137636816458     1.509139100021     1.007825032230
         H           -3.452049915649     0.710550816458     1.332926100021     1.007825032230
         H           -3.443507915649     1.598162816458    -0.175169899979     1.007825032230
         H           -5.481123915649     0.152785816458    -0.042632899979     1.007825032230
         H           -4.431931915649    -0.416538183542    -1.358649899979     1.007825032230
         H           -4.465403915649    -1.286281183542     0.174347100021     1.007825032230
         H            2.997215084351    -0.821671183542     1.057467100021     1.007825032230
         H            2.803266084351    -1.466000183542    -0.568514899979     1.007825032230
         H            4.502068084351     0.211545816458    -1.423618899979     1.007825032230
         H            4.709391084351     0.816724816458     0.228881100021     1.007825032230
         H            5.186918084351    -0.839522183542    -0.177235899979     1.007825032230

  Basis Set: AUG-CC-PVTZ
    Blend: AUG-CC-PVTZ
  Basis Set: (AUG-CC-PVTZ AUX)
    Blend: AUG-CC-PVTZ-JKFIT
	 Reference Energy          =    -819.4286892127590818 [Eh]
	 Singles Energy            =      -0.0000000000000000 [Eh]
	 Same-Spin Energy          =      -0.4912167559667361 [Eh]
	 Opposite-Spin Energy      =      -1.5840786650782435 [Eh]
	 Correlation Energy        =      -2.0752954210449794 [Eh]
	 Total Energy              =    -821.5039846338040661 [Eh]

	 ================> DF-SCS-MP2 Energies <==================
	-----------------------------------------------------------
	 SCS Same-Spin Scale       =       0.3333333333333333 [-]
	 SCS Opposite-Spin Scale   =       1.2000000000000000 [-]
	 SCS Same-Spin Energy      =      -0.1637389186555787 [Eh]
	 SCS Opposite-Spin Energy  =      -1.9008943980938922 [Eh]
	 SCS Correlation Energy    =      -2.0646333167494708 [Eh]
	 SCS Total Energy          =    -821.4933225295085322 [Eh]
	-----------------------------------------------------------

  Dipole Moment: [D]
     X:     0.6110      Y:     3.3699      Z:     0.1490     Total:     3.4281

*** Psi4 exiting successfully. Buy a developer a beer!
