                               Psi4 1.3.2 release

  ==> Input File <==

--------------------------------------------------------------------------
#psi4
#
memory 32 gb

molecule  {
0 1
  S        1.8142300     0.7226310    -0.3411240
  O       -1.8432130    -0.9348080    -0.8000930
  O        0.4941690    -1.0618130     1.1146640
  C       -0.8273310     0.8335030     0.4756360
  C       -3.3832440     0.5955310     0.2374230
  C       -2.0448570    -0.0087707    -0.1315209
  C        0.4326040    -0.0039200     0.5084100
  C       -4.4568101    -0.3287325    -0.3143328
  C        3.0576300    -0.5565920    -0.0082180
  C        4.4432860    -0.0468870    -0.3740170
  H       -0.6942050     1.7459430    -0.1201930
  H       -1.0474180     1.1506300     1.5016930
  H       -3.4528060     0.7235440     1.3254800
  H       -3.4442640     1.6111560    -0.1826160
  H       -5.4818800     0.1657790    -0.0500790
  H       -4.4326880    -0.4035450    -1.3660960
  H       -4.4661600    -1.2732880     0.1669010
  H        2.9964590    -0.8086780     1.0500210
  H        2.8025100    -1.4530070    -0.5759610
  H        4.5013120     0.2245390    -1.4310650
  H        4.7086350     0.8297180     0.2214350
  H        5.1861620    -0.8265290    -0.1846820
units angstrom
no_reorient  #important for SAPT in psi4, default
symmetry c1  #important for SAPT in psi4, default
}

set PROPERTIES_ORIGIN ["COM"]
properties('MP2/aug-cc-pvtz', properties = ['dipole'])
--------------------------------------------------------------------------

    Molecular point group: c1
  Charge       = 0
  Multiplicity = 1
  Basis Set: AUG-CC-PVTZ
    Blend: AUG-CC-PVTZ
  Basis Set: (AUG-CC-PVTZ AUX)
    Blend: AUG-CC-PVTZ-JKFIT

    Orbital Energies [Eh]
    ---------------------

    Doubly Occupied:

       1A    -91.969079     2A    -20.562472     3A    -20.551746
       4A    -11.362886     5A    -11.342154     6A    -11.260512
       7A    -11.259110     8A    -11.250113     9A    -11.230102
      10A    -11.224295    11A     -8.970731    12A     -6.651884
      13A     -6.650752    14A     -6.650142    15A     -1.437656
      16A     -1.388871    17A     -1.089119    18A     -1.074689
      19A     -1.036287    20A     -0.966239    21A     -0.893577
      22A     -0.834250    23A     -0.755800    24A     -0.726958
      25A     -0.684508    26A     -0.666660    27A     -0.648449
      28A     -0.643443    29A     -0.634236    30A     -0.619088
      31A     -0.593185    32A     -0.558893    33A     -0.549679
      34A     -0.535766    35A     -0.530114    36A     -0.517285
      37A     -0.513353    38A     -0.511245    39A     -0.502932
      40A     -0.463226    41A     -0.421322    42A     -0.395571
      43A     -0.368432

  @DF-RHF Final Energy:  -819.48560723789717

   => Energetics <=

    Nuclear Repulsion Energy =            604.2964895906931133
    One-Electron Energy =               -2324.5705710862216620
    Two-Electron Energy =                 900.7884742576314920
    Total Energy =                       -819.4856072378971703
  Basis Set: (AUG-CC-PVTZ AUX)
    Blend: AUG-CC-PVTZ-RI
    Molecular point group: c1

    Geometry (in Angstrom), charge = 0, multiplicity = 1:

       Center              X                  Y                   Z               Mass
    ------------   -----------------  -----------------  -----------------  -----------------
         S            1.812757149204     0.730895205338    -0.336146196648    31.972071174400
         O           -1.844685850796    -0.926543794662    -0.795115196648    15.994914619570
         O            0.492696149204    -1.053548794662     1.119641803352    15.994914619570
         C           -0.828803850796     0.841767205338     0.480613803352    12.000000000000
         C           -3.384716850796     0.603795205338     0.242400803352    12.000000000000
         C           -2.046329850796    -0.000506494662    -0.126543096648    12.000000000000
         C            0.431131149204     0.004344205338     0.513387803352    12.000000000000
         C           -4.458282950796    -0.320468294662    -0.309354996648    12.000000000000
         C            3.056157149204    -0.548327794662    -0.003240196648    12.000000000000
         C            4.441813149204    -0.038622794662    -0.369039196648    12.000000000000
         H           -0.695677850796     1.754207205338    -0.115215196648     1.007825032230
         H           -1.048890850796     1.158894205338     1.506670803352     1.007825032230
         H           -3.454278850796     0.731808205338     1.330457803352     1.007825032230
         H           -3.445736850796     1.619420205338    -0.177638196648     1.007825032230
         H           -5.483352850796     0.174043205338    -0.045101196648     1.007825032230
         H           -4.434160850796    -0.395280794662    -1.361118196648     1.007825032230
         H           -4.467632850796    -1.265023794662     0.171878803352     1.007825032230
         H            2.994986149204    -0.800413794662     1.054998803352     1.007825032230
         H            2.801037149204    -1.444742794662    -0.570983196648     1.007825032230
         H            4.499839149204     0.232803205338    -1.426087196648     1.007825032230
         H            4.707162149204     0.837982205338     0.226412803352     1.007825032230
         H            5.184689149204    -0.818264794662    -0.179704196648     1.007825032230

  Basis Set: AUG-CC-PVTZ
    Blend: AUG-CC-PVTZ
  Basis Set: (AUG-CC-PVTZ AUX)
    Blend: AUG-CC-PVTZ-JKFIT
	 Reference Energy          =    -819.4856072378971703 [Eh]
	 Singles Energy            =      -0.0000000000000000 [Eh]
	 Same-Spin Energy          =      -0.4828585397583814 [Eh]
	 Opposite-Spin Energy      =      -1.5679081091394309 [Eh]
	 Correlation Energy        =      -2.0507666488978122 [Eh]
	 Total Energy              =    -821.5363738867949905 [Eh]

	 ================> DF-SCS-MP2 Energies <==================
	-----------------------------------------------------------
	 SCS Same-Spin Scale       =       0.3333333333333333 [-]
	 SCS Opposite-Spin Scale   =       1.2000000000000000 [-]
	 SCS Same-Spin Energy      =      -0.1609528465861271 [Eh]
	 SCS Opposite-Spin Energy  =      -1.8814897309673171 [Eh]
	 SCS Correlation Energy    =      -2.0424425775534440 [Eh]
	 SCS Total Energy          =    -821.5280498154505722 [Eh]
	-----------------------------------------------------------

  Dipole Moment: [D]
     X:    -0.3479      Y:     2.5807      Z:     0.4828     Total:     2.6484

*** Psi4 exiting successfully. Buy a developer a beer!
