                               Psi4 1.3.2 release

  ==> Input File <==

--------------------------------------------------------------------------
#psi4
#
memory 32 gb

molecule  {
0 1
  S        1.8066566     0.7126507    -0.3508108
  O       -1.8432130    -0.9348080    -0.8000930
  O        0.4941690    -1.0618130     1.1146640
  C       -0.8273310     0.8335030     0.4756360
  C       -3.3832440     0.5955310     0.2374230
  C       -2.0096370     0.0521440    -0.0950140
  C        0.4326040    -0.0039200     0.5084100
  C       -4.5116740    -0.2794210    -0.2844450
  C        3.0576300    -0.5565920    -0.0082180
  C        4.4432860    -0.0468870    -0.3740170
  H       -0.6942050     1.7459430    -0.1201930
  H       -1.0474180     1.1506300     1.5016930
  H       -3.4528060     0.7235440     1.3254800
  H       -3.4442640     1.6111560    -0.1826160
  H       -5.4818800     0.1657790    -0.0500790
  H       -4.4326880    -0.4035450    -1.3660960
  H       -4.4661600    -1.2732880     0.1669010
  H        2.9964590    -0.8086780     1.0500210
  H        2.7948631    -1.4485520    -0.5794789
  H        4.5013120     0.2245390    -1.4310650
  H        4.7086350     0.8297180     0.2214350
  H        5.1861620    -0.8265290    -0.1846820
units angstrom
no_reorient  #important for SAPT in psi4, default
symmetry c1  #important for SAPT in psi4, default
}

set PROPERTIES_ORIGIN ["COM"]
properties('MP2/aug-cc-pvtz', properties = ['dipole'])
--------------------------------------------------------------------------

    Molecular point group: c1
  Charge       = 0
  Multiplicity = 1
  Basis Set: AUG-CC-PVTZ
    Blend: AUG-CC-PVTZ
  Basis Set: (AUG-CC-PVTZ AUX)
    Blend: AUG-CC-PVTZ-JKFIT

    Orbital Energies [Eh]
    ---------------------

    Doubly Occupied:

       1A    -91.971860     2A    -20.555446     3A    -20.554459
       4A    -11.366863     5A    -11.345983     6A    -11.266649
       7A    -11.262805     8A    -11.249810     9A    -11.231953
      10A    -11.222236    11A     -8.973603    12A     -6.654762
      13A     -6.653633    14A     -6.653019    15A     -1.397143
      16A     -1.383782    17A     -1.094290    18A     -1.077167
      19A     -1.042694    20A     -0.972812    21A     -0.896142
      22A     -0.838176    23A     -0.759725    24A     -0.726654
      25A     -0.678030    26A     -0.668249    27A     -0.648005
      28A     -0.637938    29A     -0.633929    30A     -0.608597
      31A     -0.594908    32A     -0.559887    33A     -0.546295
      34A     -0.533195    35A     -0.527692    36A     -0.520782
      37A     -0.511887    38A     -0.504688    39A     -0.488547
      40A     -0.464879    41A     -0.429585    42A     -0.406569
      43A     -0.371030

  @DF-RHF Final Energy:  -819.49489446749590

   => Energetics <=

    Nuclear Repulsion Energy =            603.6917295800628835
    One-Electron Energy =               -2323.4005258382344437
    Two-Electron Energy =                 900.2139017906756635
    Total Energy =                       -819.4948944674958966
  Basis Set: (AUG-CC-PVTZ AUX)
    Blend: AUG-CC-PVTZ-RI
    Molecular point group: c1

    Geometry (in Angstrom), charge = 0, multiplicity = 1:

       Center              X                  Y                   Z               Mass
    ------------   -----------------  -----------------  -----------------  -----------------
         S            1.808217508796     0.714616393234    -0.348853717614    31.972071174400
         O           -1.841652091204    -0.932842306766    -0.798135917614    15.994914619570
         O            0.495729908796    -1.059847306766     1.116621082386    15.994914619570
         C           -0.825770091204     0.835468693234     0.477593082386    12.000000000000
         C           -3.381683091204     0.597496693234     0.239380082386    12.000000000000
         C           -2.008076091204     0.054109693234    -0.093056917614    12.000000000000
         C            0.434164908796    -0.001954306766     0.510367082386    12.000000000000
         C           -4.510113091204    -0.277455306766    -0.282487917614    12.000000000000
         C            3.059190908796    -0.554626306766    -0.006260917614    12.000000000000
         C            4.444846908796    -0.044921306766    -0.372059917614    12.000000000000
         H           -0.692644091204     1.747908693234    -0.118235917614     1.007825032230
         H           -1.045857091204     1.152595693234     1.503650082386     1.007825032230
         H           -3.451245091204     0.725509693234     1.327437082386     1.007825032230
         H           -3.442703091204     1.613121693234    -0.180658917614     1.007825032230
         H           -5.480319091204     0.167744693234    -0.048121917614     1.007825032230
         H           -4.431127091204    -0.401579306766    -1.364138917614     1.007825032230
         H           -4.464599091204    -1.271322306766     0.168858082386     1.007825032230
         H            2.998019908796    -0.806712306766     1.051978082386     1.007825032230
         H            2.796424008796    -1.446586306766    -0.577521817614     1.007825032230
         H            4.502872908796     0.226504693234    -1.429107917614     1.007825032230
         H            4.710195908796     0.831683693234     0.223392082386     1.007825032230
         H            5.187722908796    -0.824563306766    -0.182724917614     1.007825032230

  Basis Set: AUG-CC-PVTZ
    Blend: AUG-CC-PVTZ
  Basis Set: (AUG-CC-PVTZ AUX)
    Blend: AUG-CC-PVTZ-JKFIT
	 Reference Energy          =    -819.4948944674958966 [Eh]
	 Singles Energy            =      -0.0000000000000000 [Eh]
	 Same-Spin Energy          =      -0.4842378143842202 [Eh]
	 Opposite-Spin Energy      =      -1.5709965233492926 [Eh]
	 Correlation Energy        =      -2.0552343377335127 [Eh]
	 Total Energy              =    -821.5501288052294058 [Eh]

	 ================> DF-SCS-MP2 Energies <==================
	-----------------------------------------------------------
	 SCS Same-Spin Scale       =       0.3333333333333333 [-]
	 SCS Opposite-Spin Scale   =       1.2000000000000000 [-]
	 SCS Same-Spin Energy      =      -0.1614126047947401 [Eh]
	 SCS Opposite-Spin Energy  =      -1.8851958280191510 [Eh]
	 SCS Correlation Energy    =      -2.0466084328138909 [Eh]
	 SCS Total Energy          =    -821.5415029003097516 [Eh]
	-----------------------------------------------------------

  Dipole Moment: [D]
     X:     0.0294      Y:     2.8433      Z:     0.6749     Total:     2.9225

*** Psi4 exiting successfully. Buy a developer a beer!
