                               Psi4 1.3.2 release

  ==> Input File <==

--------------------------------------------------------------------------
#psi4
#
memory 32 gb

molecule  {
0 1
  S        1.8142300     0.7226310    -0.3411240
  O       -1.8432130    -0.9348080    -0.8000930
  O        0.4941690    -1.0618130     1.1146640
  C       -0.8273310     0.8335030     0.4756360
  C       -3.3832440     0.5955310     0.2374230
  C       -2.0327044     0.0113583    -0.1194594
  C        0.4326040    -0.0039200     0.5084100
  C       -4.4754326    -0.3125703    -0.3045343
  C        3.0576300    -0.5565920    -0.0082180
  C        4.4432860    -0.0468870    -0.3740170
  H       -0.6942050     1.7459430    -0.1201930
  H       -1.0474180     1.1506300     1.5016930
  H       -3.4528060     0.7235440     1.3254800
  H       -3.4442640     1.6111560    -0.1826160
  H       -5.4818800     0.1657790    -0.0500790
  H       -4.4326880    -0.4035450    -1.3660960
  H       -4.4661600    -1.2732880     0.1669010
  H        2.9964590    -0.8086780     1.0500210
  H        2.8025100    -1.4530070    -0.5759610
  H        4.5013120     0.2245390    -1.4310650
  H        4.7086350     0.8297180     0.2214350
  H        5.1861620    -0.8265290    -0.1846820
units angstrom
no_reorient  #important for SAPT in psi4, default
symmetry c1  #important for SAPT in psi4, default
}

set PROPERTIES_ORIGIN ["COM"]
properties('MP2/aug-cc-pvtz', properties = ['dipole'])
--------------------------------------------------------------------------

    Molecular point group: c1
  Charge       = 0
  Multiplicity = 1
  Basis Set: AUG-CC-PVTZ
    Blend: AUG-CC-PVTZ
  Basis Set: (AUG-CC-PVTZ AUX)
    Blend: AUG-CC-PVTZ-JKFIT

    Orbital Energies [Eh]
    ---------------------

    Doubly Occupied:

       1A    -91.970160     2A    -20.559943     3A    -20.552953
       4A    -11.364487     5A    -11.343171     6A    -11.262065
       7A    -11.261264     8A    -11.249675     9A    -11.230650
      10A    -11.223242    11A     -8.971799    12A     -6.652951
      13A     -6.651821    14A     -6.651209    15A     -1.421482
      16A     -1.389568    17A     -1.090551    18A     -1.074957
      19A     -1.038707    20A     -0.968249    21A     -0.894159
      22A     -0.835389    23A     -0.756740    24A     -0.726972
      25A     -0.681729    26A     -0.666770    27A     -0.647590
      28A     -0.641237    29A     -0.634287    30A     -0.616567
      31A     -0.593520    32A     -0.558846    33A     -0.546374
      34A     -0.532465    35A     -0.528220    36A     -0.519269
      37A     -0.515988    38A     -0.508028    39A     -0.501255
      40A     -0.464042    41A     -0.424363    42A     -0.399938
      43A     -0.369435

  @DF-RHF Final Energy:  -819.49238385832280

   => Energetics <=

    Nuclear Repulsion Energy =            603.9964797910268999
    One-Electron Energy =               -2323.9935530525094691
    Two-Electron Energy =                 900.5046894031596594
    Total Energy =                       -819.4923838583227962
  Basis Set: (AUG-CC-PVTZ AUX)
    Blend: AUG-CC-PVTZ-RI
    Molecular point group: c1

    Geometry (in Angstrom), charge = 0, multiplicity = 1:

       Center              X                  Y                   Z               Mass
    ------------   -----------------  -----------------  -----------------  -----------------
         S            1.813242222532     0.728174314262    -0.337785125064    31.972071174400
         O           -1.844200777468    -0.929264685738    -0.796754125064    15.994914619570
         O            0.493181222532    -1.056269685738     1.118002874936    15.994914619570
         C           -0.828318777468     0.839046314262     0.478974874936    12.000000000000
         C           -3.384231777468     0.601074314262     0.240761874936    12.000000000000
         C           -2.033692177468     0.016901614262    -0.116120525064    12.000000000000
         C            0.431616222532     0.001623314262     0.511748874936    12.000000000000
         C           -4.476420377468    -0.307026985738    -0.301195425064    12.000000000000
         C            3.056642222532    -0.551048685738    -0.004879125064    12.000000000000
         C            4.442298222532    -0.041343685738    -0.370678125064    12.000000000000
         H           -0.695192777468     1.751486314262    -0.116854125064     1.007825032230
         H           -1.048405777468     1.156173314262     1.505031874936     1.007825032230
         H           -3.453793777468     0.729087314262     1.328818874936     1.007825032230
         H           -3.445251777468     1.616699314262    -0.179277125064     1.007825032230
         H           -5.482867777468     0.171322314262    -0.046740125064     1.007825032230
         H           -4.433675777468    -0.398001685738    -1.362757125064     1.007825032230
         H           -4.467147777468    -1.267744685738     0.170239874936     1.007825032230
         H            2.995471222532    -0.803134685738     1.053359874936     1.007825032230
         H            2.801522222532    -1.447463685738    -0.572622125064     1.007825032230
         H            4.500324222532     0.230082314262    -1.427726125064     1.007825032230
         H            4.707647222532     0.835261314262     0.224773874936     1.007825032230
         H            5.185174222532    -0.820985685738    -0.181343125064     1.007825032230

  Basis Set: AUG-CC-PVTZ
    Blend: AUG-CC-PVTZ
  Basis Set: (AUG-CC-PVTZ AUX)
    Blend: AUG-CC-PVTZ-JKFIT
	 Reference Energy          =    -819.4923838583227962 [Eh]
	 Singles Energy            =      -0.0000000000000000 [Eh]
	 Same-Spin Energy          =      -0.4831898637840505 [Eh]
	 Opposite-Spin Energy      =      -1.5687196565266706 [Eh]
	 Correlation Energy        =      -2.0519095203107209 [Eh]
	 Total Energy              =    -821.5442933786334834 [Eh]

	 ================> DF-SCS-MP2 Energies <==================
	-----------------------------------------------------------
	 SCS Same-Spin Scale       =       0.3333333333333333 [-]
	 SCS Opposite-Spin Scale   =       1.2000000000000000 [-]
	 SCS Same-Spin Energy      =      -0.1610632879280168 [Eh]
	 SCS Opposite-Spin Energy  =      -1.8824635878320046 [Eh]
	 SCS Correlation Energy    =      -2.0435268757600213 [Eh]
	 SCS Total Energy          =    -821.5359107340827904 [Eh]
	-----------------------------------------------------------

  Dipole Moment: [D]
     X:    -0.2203      Y:     2.6715      Z:     0.5548     Total:     2.7374

*** Psi4 exiting successfully. Buy a developer a beer!
