                               Psi4 1.3.2 release

  ==> Input File <==

--------------------------------------------------------------------------
#psi4
#
memory 32 gb

molecule  {
0 1
  S        1.8229092     0.7103341    -0.3373839
  O       -1.8432130    -0.9348080    -0.8000930
  O        0.4941690    -1.0618130     1.1146640
  C       -0.8335896     0.8242586     0.4826891
  C       -3.3832440     0.5955310     0.2374230
  C       -2.0096370     0.0521440    -0.0950140
  C        0.4326040    -0.0039200     0.5084100
  C       -4.5116740    -0.2794210    -0.2844450
  C        3.0576300    -0.5565920    -0.0082180
  C        4.4432860    -0.0468870    -0.3740170
  H       -0.6942050     1.7459430    -0.1201930
  H       -1.0474180     1.1506300     1.5016930
  H       -3.4528060     0.7235440     1.3254800
  H       -3.4442640     1.6111560    -0.1826160
  H       -5.4818800     0.1657790    -0.0500790
  H       -4.4326880    -0.4035450    -1.3660960
  H       -4.4661600    -1.2732880     0.1669010
  H        2.9964590    -0.8086780     1.0500210
  H        2.8025100    -1.4530070    -0.5759610
  H        4.5013120     0.2245390    -1.4310650
  H        4.7086350     0.8297180     0.2214350
  H        5.1861620    -0.8265290    -0.1846820
units angstrom
no_reorient  #important for SAPT in psi4, default
symmetry c1  #important for SAPT in psi4, default
}

set PROPERTIES_ORIGIN ["COM"]
properties('MP2/aug-cc-pvtz', properties = ['dipole'])
--------------------------------------------------------------------------

    Molecular point group: c1
  Charge       = 0
  Multiplicity = 1
  Basis Set: AUG-CC-PVTZ
    Blend: AUG-CC-PVTZ
  Basis Set: (AUG-CC-PVTZ AUX)
    Blend: AUG-CC-PVTZ-JKFIT

    Orbital Energies [Eh]
    ---------------------

    Doubly Occupied:

       1A    -91.971714     2A    -20.555432     3A    -20.554731
       4A    -11.367259     5A    -11.345846     6A    -11.267477
       7A    -11.261503     8A    -11.249839     9A    -11.231908
      10A    -11.222295    11A     -8.973554    12A     -6.654721
      13A     -6.653617    14A     -6.652976    15A     -1.397540
      16A     -1.384031    17A     -1.095389    18A     -1.078492
      19A     -1.042633    20A     -0.972545    21A     -0.896507
      22A     -0.838094    23A     -0.760752    24A     -0.726566
      25A     -0.678751    26A     -0.668727    27A     -0.648605
      28A     -0.638071    29A     -0.634623    30A     -0.608864
      31A     -0.594058    32A     -0.559117    33A     -0.546324
      34A     -0.533302    35A     -0.527618    36A     -0.521009
      37A     -0.511440    38A     -0.504799    39A     -0.488466
      40A     -0.467010    41A     -0.429954    42A     -0.406700
      43A     -0.370407

  @DF-RHF Final Energy:  -819.49459827447629

   => Energetics <=

    Nuclear Repulsion Energy =            603.8082153265127090
    One-Electron Energy =               -2323.6190967479137726
    Two-Electron Energy =                 900.3162831469247749
    Total Energy =                       -819.4945982744762887
  Basis Set: (AUG-CC-PVTZ AUX)
    Blend: AUG-CC-PVTZ-RI
    Molecular point group: c1

    Geometry (in Angstrom), charge = 0, multiplicity = 1:

       Center              X                  Y                   Z               Mass
    ------------   -----------------  -----------------  -----------------  -----------------
         S            1.821644639061     0.713483687599    -0.338659867760    31.972071174400
         O           -1.844477560939    -0.931658412401    -0.801368967760    15.994914619570
         O            0.492904439061    -1.058663412401     1.113388032240    15.994914619570
         C           -0.834854160939     0.827408187599     0.481413132240    12.000000000000
         C           -3.384508560939     0.598680587599     0.236147032240    12.000000000000
         C           -2.010901560939     0.055293587599    -0.096289967760    12.000000000000
         C            0.431339439061    -0.000770412401     0.507134032240    12.000000000000
         C           -4.512938560939    -0.276271412401    -0.285720967760    12.000000000000
         C            3.056365439061    -0.553442412401    -0.009493967760    12.000000000000
         C            4.442021439061    -0.043737412401    -0.375292967760    12.000000000000
         H           -0.695469560939     1.749092587599    -0.121468967760     1.007825032230
         H           -1.048682560939     1.153779587599     1.500417032240     1.007825032230
         H           -3.454070560939     0.726693587599     1.324204032240     1.007825032230
         H           -3.445528560939     1.614305587599    -0.183891967760     1.007825032230
         H           -5.483144560939     0.168928587599    -0.051354967760     1.007825032230
         H           -4.433952560939    -0.400395412401    -1.367371967760     1.007825032230
         H           -4.467424560939    -1.270138412401     0.165625032240     1.007825032230
         H            2.995194439061    -0.805528412401     1.048745032240     1.007825032230
         H            2.801245439061    -1.449857412401    -0.577236967760     1.007825032230
         H            4.500047439061     0.227688587599    -1.432340967760     1.007825032230
         H            4.707370439061     0.832867587599     0.220159032240     1.007825032230
         H            5.184897439061    -0.823379412401    -0.185957967760     1.007825032230

  Basis Set: AUG-CC-PVTZ
    Blend: AUG-CC-PVTZ
  Basis Set: (AUG-CC-PVTZ AUX)
    Blend: AUG-CC-PVTZ-JKFIT
	 Reference Energy          =    -819.4945982744762887 [Eh]
	 Singles Energy            =      -0.0000000000000000 [Eh]
	 Same-Spin Energy          =      -0.4842887075901372 [Eh]
	 Opposite-Spin Energy      =      -1.5709723692485547 [Eh]
	 Correlation Energy        =      -2.0552610768386916 [Eh]
	 Total Energy              =    -821.5498593513150354 [Eh]

	 ================> DF-SCS-MP2 Energies <==================
	-----------------------------------------------------------
	 SCS Same-Spin Scale       =       0.3333333333333333 [-]
	 SCS Opposite-Spin Scale   =       1.2000000000000000 [-]
	 SCS Same-Spin Energy      =      -0.1614295691967124 [Eh]
	 SCS Opposite-Spin Energy  =      -1.8851668430982655 [Eh]
	 SCS Correlation Energy    =      -2.0465964122949778 [Eh]
	 SCS Total Energy          =    -821.5411946867712913 [Eh]
	-----------------------------------------------------------

  Dipole Moment: [D]
     X:     0.0182      Y:     2.8355      Z:     0.6929     Total:     2.9190

*** Psi4 exiting successfully. Buy a developer a beer!
