                               Psi4 1.3.2 release

  ==> Input File <==

--------------------------------------------------------------------------
#psi4
#
memory 32 gb

molecule  {
0 1
  S        1.7784678     0.7712560    -0.3554347
  O       -1.8432130    -0.9348080    -0.8000930
  O        0.4941690    -1.0618130     1.1146640
  C       -0.8013419     0.8698360     0.4474539
  C       -3.3832440     0.5955310     0.2374230
  C       -2.0096370     0.0521440    -0.0950140
  C        0.4326040    -0.0039200     0.5084100
  C       -4.5116740    -0.2794210    -0.2844450
  C        3.0576300    -0.5565920    -0.0082180
  C        4.4432860    -0.0468870    -0.3740170
  H       -0.6942050     1.7459430    -0.1201930
  H       -1.0474180     1.1506300     1.5016930
  H       -3.4528060     0.7235440     1.3254800
  H       -3.4442640     1.6111560    -0.1826160
  H       -5.4818800     0.1657790    -0.0500790
  H       -4.4326880    -0.4035450    -1.3660960
  H       -4.4661600    -1.2732880     0.1669010
  H        2.9964590    -0.8086780     1.0500210
  H        2.8025100    -1.4530070    -0.5759610
  H        4.5013120     0.2245390    -1.4310650
  H        4.7086350     0.8297180     0.2214350
  H        5.1861620    -0.8265290    -0.1846820
units angstrom
no_reorient  #important for SAPT in psi4, default
symmetry c1  #important for SAPT in psi4, default
}

set PROPERTIES_ORIGIN ["COM"]
properties('MP2/aug-cc-pvtz', properties = ['dipole'])
--------------------------------------------------------------------------

    Molecular point group: c1
  Charge       = 0
  Multiplicity = 1
  Basis Set: AUG-CC-PVTZ
    Blend: AUG-CC-PVTZ
  Basis Set: (AUG-CC-PVTZ AUX)
    Blend: AUG-CC-PVTZ-JKFIT

    Orbital Energies [Eh]
    ---------------------

    Doubly Occupied:

       1A    -91.973344     2A    -20.556523     3A    -20.555993
       4A    -11.368371     5A    -11.347142     6A    -11.267171
       7A    -11.264598     8A    -11.250087     9A    -11.230796
      10A    -11.222306    11A     -8.974190    12A     -6.655290
      13A     -6.654054    14A     -6.653537    15A     -1.396796
      16A     -1.383729    17A     -1.090136    18A     -1.071645
      19A     -1.042859    20A     -0.970087    21A     -0.894817
      22A     -0.836496    23A     -0.757347    24A     -0.729830
      25A     -0.676823    26A     -0.665541    27A     -0.646756
      28A     -0.635582    29A     -0.631549    30A     -0.609135
      31A     -0.596926    32A     -0.562596    33A     -0.545063
      34A     -0.532792    35A     -0.525697    36A     -0.520023
      37A     -0.513339    38A     -0.504049    39A     -0.489083
      40A     -0.457765    41A     -0.428936    42A     -0.404226
      43A     -0.373575

  @DF-RHF Final Energy:  -819.48897290225773

   => Energetics <=

    Nuclear Repulsion Energy =            602.0364196586134540
    One-Electron Energy =               -2320.1175783934068022
    Two-Electron Energy =                 898.5921858325357334
    Total Energy =                       -819.4889729022577285
  Basis Set: (AUG-CC-PVTZ AUX)
    Blend: AUG-CC-PVTZ-RI
    Molecular point group: c1

    Geometry (in Angstrom), charge = 0, multiplicity = 1:

       Center              X                  Y                   Z               Mass
    ------------   -----------------  -----------------  -----------------  -----------------
         S            1.783662931235     0.758818972741    -0.350463197457    31.972071174400
         O           -1.838017868765    -0.947245027259    -0.795121497457    15.994914619570
         O            0.499364131235    -1.074250027259     1.119635502543    15.994914619570
         C           -0.796146768765     0.857398972741     0.452425402543    12.000000000000
         C           -3.378048868765     0.583093972741     0.242394502543    12.000000000000
         C           -2.004441868765     0.039706972741    -0.090042497457    12.000000000000
         C            0.437799131235    -0.016357027259     0.513381502543    12.000000000000
         C           -4.506478868765    -0.291858027259    -0.279473497457    12.000000000000
         C            3.062825131235    -0.569029027259    -0.003246497457    12.000000000000
         C            4.448481131235    -0.059324027259    -0.369045497457    12.000000000000
         H           -0.689009868765     1.733505972741    -0.115221497457     1.007825032230
         H           -1.042222868765     1.138192972741     1.506664502543     1.007825032230
         H           -3.447610868765     0.711106972741     1.330451502543     1.007825032230
         H           -3.439068868765     1.598718972741    -0.177644497457     1.007825032230
         H           -5.476684868765     0.153341972741    -0.045107497457     1.007825032230
         H           -4.427492868765    -0.415982027259    -1.361124497457     1.007825032230
         H           -4.460964868765    -1.285725027259     0.171872502543     1.007825032230
         H            3.001654131235    -0.821115027259     1.054992502543     1.007825032230
         H            2.807705131235    -1.465444027259    -0.570989497457     1.007825032230
         H            4.506507131235     0.212101972741    -1.426093497457     1.007825032230
         H            4.713830131235     0.817280972741     0.226406502543     1.007825032230
         H            5.191357131235    -0.838966027259    -0.179710497457     1.007825032230

  Basis Set: AUG-CC-PVTZ
    Blend: AUG-CC-PVTZ
  Basis Set: (AUG-CC-PVTZ AUX)
    Blend: AUG-CC-PVTZ-JKFIT
	 Reference Energy          =    -819.4889729022577285 [Eh]
	 Singles Energy            =      -0.0000000000000000 [Eh]
	 Same-Spin Energy          =      -0.4841321932062561 [Eh]
	 Opposite-Spin Energy      =      -1.5718160379133974 [Eh]
	 Correlation Energy        =      -2.0559482311196535 [Eh]
	 Total Energy              =    -821.5449211333773292 [Eh]

	 ================> DF-SCS-MP2 Energies <==================
	-----------------------------------------------------------
	 SCS Same-Spin Scale       =       0.3333333333333333 [-]
	 SCS Opposite-Spin Scale   =       1.2000000000000000 [-]
	 SCS Same-Spin Energy      =      -0.1613773977354187 [Eh]
	 SCS Opposite-Spin Energy  =      -1.8861792454960769 [Eh]
	 SCS Correlation Energy    =      -2.0475566432314958 [Eh]
	 SCS Total Energy          =    -821.5365295454892021 [Eh]
	-----------------------------------------------------------

  Dipole Moment: [D]
     X:    -0.0573      Y:     2.8229      Z:     0.6434     Total:     2.8958

*** Psi4 exiting successfully. Buy a developer a beer!
