                               Psi4 1.3.2 release

  ==> Input File <==

--------------------------------------------------------------------------
#psi4
#
memory 32 gb

molecule  {
0 1
  S        1.8142300     0.7226310    -0.3411240
  O       -1.8432130    -0.9348080    -0.8000930
  O        0.4941690    -1.0618130     1.1146640
  C       -0.8273310     0.8335030     0.4756360
  C       -3.3832440     0.5955310     0.2374230
  C       -2.0096370     0.0521440    -0.0950140
  C        0.3493413     0.0514210     0.5062441
  C       -4.5116740    -0.2794210    -0.2844450
  C        3.0576300    -0.5565920    -0.0082180
  C        4.4432860    -0.0468870    -0.3740170
  H       -0.6942050     1.7459430    -0.1201930
  H       -1.0474180     1.1506300     1.5016930
  H       -3.4528060     0.7235440     1.3254800
  H       -3.4442640     1.6111560    -0.1826160
  H       -5.4818800     0.1657790    -0.0500790
  H       -4.4326880    -0.4035450    -1.3660960
  H       -4.4661600    -1.2732880     0.1669010
  H        2.9964590    -0.8086780     1.0500210
  H        2.8025100    -1.4530070    -0.5759610
  H        4.5013120     0.2245390    -1.4310650
  H        4.7086350     0.8297180     0.2214350
  H        5.1861620    -0.8265290    -0.1846820
units angstrom
no_reorient  #important for SAPT in psi4, default
symmetry c1  #important for SAPT in psi4, default
}

set PROPERTIES_ORIGIN ["COM"]
properties('MP2/aug-cc-pvtz', properties = ['dipole'])
--------------------------------------------------------------------------

    Molecular point group: c1
  Charge       = 0
  Multiplicity = 1
  Basis Set: AUG-CC-PVTZ
    Blend: AUG-CC-PVTZ
  Basis Set: (AUG-CC-PVTZ AUX)
    Blend: AUG-CC-PVTZ-JKFIT

    Orbital Energies [Eh]
    ---------------------

    Doubly Occupied:

       1A    -91.970693     2A    -20.560863     3A    -20.551725
       4A    -11.373593     5A    -11.352527     6A    -11.269281
       7A    -11.260771     8A    -11.253887     9A    -11.230449
      10A    -11.225000    11A     -8.971290    12A     -6.652364
      13A     -6.651427    14A     -6.650806    15A     -1.395629
      16A     -1.355979    17A     -1.105463    18A     -1.077753
      19A     -1.056083    20A     -0.965334    21A     -0.904176
      22A     -0.835329    23A     -0.769825    24A     -0.731363
      25A     -0.684337    26A     -0.674945    27A     -0.647037
      28A     -0.635603    29A     -0.632234    30A     -0.612475
      31A     -0.592508    32A     -0.554006    33A     -0.544955
      34A     -0.528668    35A     -0.525588    36A     -0.522169
      37A     -0.510496    38A     -0.498323    39A     -0.486849
      40A     -0.466442    41A     -0.432258    42A     -0.406234
      43A     -0.365392

  @DF-RHF Final Energy:  -819.47567416244192

   => Energetics <=

    Nuclear Repulsion Energy =            603.0962063197996486
    One-Electron Energy =               -2322.1595054686663389
    Two-Electron Energy =                 899.5876249864247711
    Total Energy =                       -819.4756741624419192
  Basis Set: (AUG-CC-PVTZ AUX)
    Blend: AUG-CC-PVTZ-RI
    Molecular point group: c1

    Geometry (in Angstrom), charge = 0, multiplicity = 1:

       Center              X                  Y                   Z               Mass
    ------------   -----------------  -----------------  -----------------  -----------------
         S            1.820472453453     0.718481994507    -0.340961677225    31.972071174400
         O           -1.836970546547    -0.938957005493    -0.799930677225    15.994914619570
         O            0.500411453453    -1.065962005493     1.114826322775    15.994914619570
         C           -0.821088546547     0.829353994507     0.475798322775    12.000000000000
         C           -3.377001546547     0.591381994507     0.237585322775    12.000000000000
         C           -2.003394546547     0.047994994507    -0.094851677225    12.000000000000
         C            0.355583753453     0.047271994507     0.506406422775    12.000000000000
         C           -4.505431546547    -0.283570005493    -0.284282677225    12.000000000000
         C            3.063872453453    -0.560741005493    -0.008055677225    12.000000000000
         C            4.449528453453    -0.051036005493    -0.373854677225    12.000000000000
         H           -0.687962546547     1.741793994507    -0.120030677225     1.007825032230
         H           -1.041175546547     1.146480994507     1.501855322775     1.007825032230
         H           -3.446563546547     0.719394994507     1.325642322775     1.007825032230
         H           -3.438021546547     1.607006994507    -0.182453677225     1.007825032230
         H           -5.475637546547     0.161629994507    -0.049916677225     1.007825032230
         H           -4.426445546547    -0.407694005493    -1.365933677225     1.007825032230
         H           -4.459917546547    -1.277437005493     0.167063322775     1.007825032230
         H            3.002701453453    -0.812827005493     1.050183322775     1.007825032230
         H            2.808752453453    -1.457156005493    -0.575798677225     1.007825032230
         H            4.507554453453     0.220389994507    -1.430902677225     1.007825032230
         H            4.714877453453     0.825568994507     0.221597322775     1.007825032230
         H            5.192404453453    -0.830678005493    -0.184519677225     1.007825032230

  Basis Set: AUG-CC-PVTZ
    Blend: AUG-CC-PVTZ
  Basis Set: (AUG-CC-PVTZ AUX)
    Blend: AUG-CC-PVTZ-JKFIT
	 Reference Energy          =    -819.4756741624419192 [Eh]
	 Singles Energy            =      -0.0000000000000000 [Eh]
	 Same-Spin Energy          =      -0.4865808231246644 [Eh]
	 Opposite-Spin Energy      =      -1.5756406951065205 [Eh]
	 Correlation Energy        =      -2.0622215182311852 [Eh]
	 Total Energy              =    -821.5378956806731594 [Eh]

	 ================> DF-SCS-MP2 Energies <==================
	-----------------------------------------------------------
	 SCS Same-Spin Scale       =       0.3333333333333333 [-]
	 SCS Opposite-Spin Scale   =       1.2000000000000000 [-]
	 SCS Same-Spin Energy      =      -0.1621936077082215 [Eh]
	 SCS Opposite-Spin Energy  =      -1.8907688341278246 [Eh]
	 SCS Correlation Energy    =      -2.0529624418360459 [Eh]
	 SCS Total Energy          =    -821.5286366042779491 [Eh]
	-----------------------------------------------------------

  Dipole Moment: [D]
     X:    -0.4924      Y:     2.9410      Z:     0.6983     Total:     3.0626

*** Psi4 exiting successfully. Buy a developer a beer!
