                               Psi4 1.3.2 release

  ==> Input File <==

--------------------------------------------------------------------------
#psi4
#
memory 32 gb

molecule  {
0 1
  S        1.7587893     0.7931249    -0.3659049
  O       -1.8432130    -0.9348080    -0.8000930
  O        0.4323593    -1.0550077     1.1294466
  C       -0.8273310     0.8335030     0.4756360
  C       -3.3832440     0.5955310     0.2374230
  C       -2.0096370     0.0521440    -0.0950140
  C        0.4326040    -0.0039200     0.5084100
  C       -4.5116740    -0.2794210    -0.2844450
  C        3.0576300    -0.5565920    -0.0082180
  C        4.4432860    -0.0468870    -0.3740170
  H       -0.6942050     1.7459430    -0.1201930
  H       -1.0474180     1.1506300     1.5016930
  H       -3.4528060     0.7235440     1.3254800
  H       -3.4442640     1.6111560    -0.1826160
  H       -5.4818800     0.1657790    -0.0500790
  H       -4.4326880    -0.4035450    -1.3660960
  H       -4.4661600    -1.2732880     0.1669010
  H        2.9964590    -0.8086780     1.0500210
  H        2.8025100    -1.4530070    -0.5759610
  H        4.5013120     0.2245390    -1.4310650
  H        4.7086350     0.8297180     0.2214350
  H        5.1861620    -0.8265290    -0.1846820
units angstrom
no_reorient  #important for SAPT in psi4, default
symmetry c1  #important for SAPT in psi4, default
}

set PROPERTIES_ORIGIN ["COM"]
properties('MP2/aug-cc-pvtz', properties = ['dipole'])
--------------------------------------------------------------------------

    Molecular point group: c1
  Charge       = 0
  Multiplicity = 1
  Basis Set: AUG-CC-PVTZ
    Blend: AUG-CC-PVTZ
  Basis Set: (AUG-CC-PVTZ AUX)
    Blend: AUG-CC-PVTZ-JKFIT

    Orbital Energies [Eh]
    ---------------------

    Doubly Occupied:

       1A    -91.978974     2A    -20.555685     3A    -20.552782
       4A    -11.366728     5A    -11.343095     6A    -11.272768
       7A    -11.261104     8A    -11.247717     9A    -11.232935
      10A    -11.220699    11A     -8.979139    12A     -6.660215
      13A     -6.658924    14A     -6.658431    15A     -1.396339
      16A     -1.381495    17A     -1.088529    18A     -1.070756
      19A     -1.040522    20A     -0.972991    21A     -0.892884
      22A     -0.838138    23A     -0.759191    24A     -0.725319
      25A     -0.675120    26A     -0.664200    27A     -0.645425
      28A     -0.635415    29A     -0.631585    30A     -0.606555
      31A     -0.592328    32A     -0.562821    33A     -0.544465
      34A     -0.531282    35A     -0.528001    36A     -0.519049
      37A     -0.511543    38A     -0.504297    39A     -0.486336
      40A     -0.456569    41A     -0.428691    42A     -0.405527
      43A     -0.377613

  @DF-RHF Final Energy:  -819.48857611958590

   => Energetics <=

    Nuclear Repulsion Energy =            601.7120042758024283
    One-Electron Energy =               -2319.4767917784392921
    Two-Electron Energy =                 898.2762113830509634
    Total Energy =                       -819.4885761195859004
  Basis Set: (AUG-CC-PVTZ AUX)
    Blend: AUG-CC-PVTZ-RI
    Molecular point group: c1

    Geometry (in Angstrom), charge = 0, multiplicity = 1:

       Center              X                  Y                   Z               Mass
    ------------   -----------------  -----------------  -----------------  -----------------
         S            1.776040679538     0.778363382045    -0.362432110056    31.972071174400
         O           -1.825961620462    -0.949569517955    -0.796620210056    15.994914619570
         O            0.449610679538    -1.069769217955     1.132919389944    15.994914619570
         C           -0.810079620462     0.818741482045     0.479108789944    12.000000000000
         C           -3.365992620462     0.580769482045     0.240895789944    12.000000000000
         C           -1.992385620462     0.037382482045    -0.091541210056    12.000000000000
         C            0.449855379538    -0.018681517955     0.511882789944    12.000000000000
         C           -4.494422620462    -0.294182517955    -0.280972210056    12.000000000000
         C            3.074881379538    -0.571353517955    -0.004745210056    12.000000000000
         C            4.460537379538    -0.061648517955    -0.370544210056    12.000000000000
         H           -0.676953620462     1.731181482045    -0.116720210056     1.007825032230
         H           -1.030166620462     1.135868482045     1.505165789944     1.007825032230
         H           -3.435554620462     0.708782482045     1.328952789944     1.007825032230
         H           -3.427012620462     1.596394482045    -0.179143210056     1.007825032230
         H           -5.464628620462     0.151017482045    -0.046606210056     1.007825032230
         H           -4.415436620462    -0.418306517955    -1.362623210056     1.007825032230
         H           -4.448908620462    -1.288049517955     0.170373789944     1.007825032230
         H            3.013710379538    -0.823439517955     1.053493789944     1.007825032230
         H            2.819761379538    -1.467768517955    -0.572488210056     1.007825032230
         H            4.518563379538     0.209777482045    -1.427592210056     1.007825032230
         H            4.725886379538     0.814956482045     0.224907789944     1.007825032230
         H            5.203413379538    -0.841290517955    -0.181209210056     1.007825032230

  Basis Set: AUG-CC-PVTZ
    Blend: AUG-CC-PVTZ
  Basis Set: (AUG-CC-PVTZ AUX)
    Blend: AUG-CC-PVTZ-JKFIT
	 Reference Energy          =    -819.4885761195859004 [Eh]
	 Singles Energy            =      -0.0000000000000000 [Eh]
	 Same-Spin Energy          =      -0.4839484342542447 [Eh]
	 Opposite-Spin Energy      =      -1.5721007854945439 [Eh]
	 Correlation Energy        =      -2.0560492197487887 [Eh]
	 Total Energy              =    -821.5446253393347433 [Eh]

	 ================> DF-SCS-MP2 Energies <==================
	-----------------------------------------------------------
	 SCS Same-Spin Scale       =       0.3333333333333333 [-]
	 SCS Opposite-Spin Scale   =       1.2000000000000000 [-]
	 SCS Same-Spin Energy      =      -0.1613161447514149 [Eh]
	 SCS Opposite-Spin Energy  =      -1.8865209425934526 [Eh]
	 SCS Correlation Energy    =      -2.0478370873448677 [Eh]
	 SCS Total Energy          =    -821.5364132069307743 [Eh]
	-----------------------------------------------------------

  Dipole Moment: [D]
     X:     0.2887      Y:     2.8268      Z:     0.6254     Total:     2.9095

*** Psi4 exiting successfully. Buy a developer a beer!
