                               Psi4 1.3.2 release

  ==> Input File <==

--------------------------------------------------------------------------
#psi4
#
memory 32 gb

molecule  {
0 1
  S        1.8142300     0.7226310    -0.3411240
  O       -1.8432130    -0.9348080    -0.8000930
  O        0.4941690    -1.0618130     1.1146640
  C       -0.8273310     0.8335030     0.4756360
  C       -3.3832440     0.5955310     0.2374230
  C       -2.0096370     0.0521440    -0.0950140
  C        0.5991294    -0.1146021     0.5127417
  C       -4.5116740    -0.2794210    -0.2844450
  C        3.0576300    -0.5565920    -0.0082180
  C        4.4432860    -0.0468870    -0.3740170
  H       -0.6942050     1.7459430    -0.1201930
  H       -1.0474180     1.1506300     1.5016930
  H       -3.4528060     0.7235440     1.3254800
  H       -3.4442640     1.6111560    -0.1826160
  H       -5.4818800     0.1657790    -0.0500790
  H       -4.4326880    -0.4035450    -1.3660960
  H       -4.4661600    -1.2732880     0.1669010
  H        2.9964590    -0.8086780     1.0500210
  H        2.8025100    -1.4530070    -0.5759610
  H        4.5013120     0.2245390    -1.4310650
  H        4.7086350     0.8297180     0.2214350
  H        5.1861620    -0.8265290    -0.1846820
units angstrom
no_reorient  #important for SAPT in psi4, default
symmetry c1  #important for SAPT in psi4, default
}

set PROPERTIES_ORIGIN ["COM"]
properties('MP2/aug-cc-pvtz', properties = ['dipole'])
--------------------------------------------------------------------------

    Molecular point group: c1
  Charge       = 0
  Multiplicity = 1
  Basis Set: AUG-CC-PVTZ
    Blend: AUG-CC-PVTZ
  Basis Set: (AUG-CC-PVTZ AUX)
    Blend: AUG-CC-PVTZ-JKFIT

    Orbital Energies [Eh]
    ---------------------

    Doubly Occupied:

       1A    -91.980031     2A    -20.563817     3A    -20.544289
       4A    -11.360513     5A    -11.333195     6A    -11.267687
       7A    -11.249881     8A    -11.241045     9A    -11.234962
      10A    -11.216157    11A     -8.983143    12A     -6.664400
      13A     -6.662839    14A     -6.662181    15A     -1.463250
      16A     -1.377094    17A     -1.104942    18A     -1.064239
      19A     -1.017491    20A     -0.979963    21A     -0.880762
      22A     -0.842103    23A     -0.745966    24A     -0.724968
      25A     -0.676020    26A     -0.661048    27A     -0.653424
      28A     -0.642960    29A     -0.635832    30A     -0.605687
      31A     -0.592531    32A     -0.569741    33A     -0.565702
      34A     -0.535088    35A     -0.531411    36A     -0.518103
      37A     -0.513287    38A     -0.504630    39A     -0.481221
      40A     -0.471449    41A     -0.417561    42A     -0.384579
      43A     -0.380267

  @DF-RHF Final Energy:  -819.46586437735618

   => Energetics <=

    Nuclear Repulsion Energy =            604.3328926461188075
    One-Electron Energy =               -2324.5865929020433214
    Two-Electron Energy =                 900.7878358785683304
    Total Energy =                       -819.4658643773561835
  Basis Set: (AUG-CC-PVTZ AUX)
    Blend: AUG-CC-PVTZ-RI
    Molecular point group: c1

    Geometry (in Angstrom), charge = 0, multiplicity = 1:

       Center              X                  Y                   Z               Mass
    ------------   -----------------  -----------------  -----------------  -----------------
         S            1.801744877288     0.730929385917    -0.341448827329    31.972071174400
         O           -1.855698122712    -0.926509614083    -0.800417827329    15.994914619570
         O            0.481683877288    -1.053514614083     1.114339172671    15.994914619570
         C           -0.839816122712     0.841801385917     0.475311172671    12.000000000000
         C           -3.395729122712     0.603829385917     0.237098172671    12.000000000000
         C           -2.022122122712     0.060442385917    -0.095338827329    12.000000000000
         C            0.586644277288    -0.106303714083     0.512416872671    12.000000000000
         C           -4.524159122712    -0.271122614083    -0.284769827329    12.000000000000
         C            3.045144877288    -0.548293614083    -0.008542827329    12.000000000000
         C            4.430800877288    -0.038588614083    -0.374341827329    12.000000000000
         H           -0.706690122712     1.754241385917    -0.120517827329     1.007825032230
         H           -1.059903122712     1.158928385917     1.501368172671     1.007825032230
         H           -3.465291122712     0.731842385917     1.325155172671     1.007825032230
         H           -3.456749122712     1.619454385917    -0.182940827329     1.007825032230
         H           -5.494365122712     0.174077385917    -0.050403827329     1.007825032230
         H           -4.445173122712    -0.395246614083    -1.366420827329     1.007825032230
         H           -4.478645122712    -1.264989614083     0.166576172671     1.007825032230
         H            2.983973877288    -0.800379614083     1.049696172671     1.007825032230
         H            2.790024877288    -1.444708614083    -0.576285827329     1.007825032230
         H            4.488826877288     0.232837385917    -1.431389827329     1.007825032230
         H            4.696149877288     0.838016385917     0.221110172671     1.007825032230
         H            5.173676877288    -0.818230614083    -0.185006827329     1.007825032230

  Basis Set: AUG-CC-PVTZ
    Blend: AUG-CC-PVTZ
  Basis Set: (AUG-CC-PVTZ AUX)
    Blend: AUG-CC-PVTZ-JKFIT
	 Reference Energy          =    -819.4658643773561835 [Eh]
	 Singles Energy            =      -0.0000000000000000 [Eh]
	 Same-Spin Energy          =      -0.4826740069527159 [Eh]
	 Opposite-Spin Energy      =      -1.5678788058367512 [Eh]
	 Correlation Energy        =      -2.0505528127894670 [Eh]
	 Total Energy              =    -821.5164171901456029 [Eh]

	 ================> DF-SCS-MP2 Energies <==================
	-----------------------------------------------------------
	 SCS Same-Spin Scale       =       0.3333333333333333 [-]
	 SCS Opposite-Spin Scale   =       1.2000000000000000 [-]
	 SCS Same-Spin Energy      =      -0.1608913356509053 [Eh]
	 SCS Opposite-Spin Energy  =      -1.8814545670041014 [Eh]
	 SCS Correlation Energy    =      -2.0423459026550068 [Eh]
	 SCS Total Energy          =    -821.5082102800112125 [Eh]
	-----------------------------------------------------------

  Dipole Moment: [D]
     X:     1.1768      Y:     2.5197      Z:     0.6593     Total:     2.8581

*** Psi4 exiting successfully. Buy a developer a beer!
