                               Psi4 1.3.2 release

  ==> Input File <==

--------------------------------------------------------------------------
#psi4
#
memory 32 gb

molecule  {
0 1
  S        1.8142300     0.7226310    -0.3411240
  O       -1.8432130    -0.9348080    -0.8000930
  O        0.4941690    -1.0618130     1.1146640
  C       -0.8273310     0.8335030     0.4756360
  C       -3.3832440     0.5955310     0.2374230
  C       -2.0096370     0.0521440    -0.0950140
  C        0.4326040    -0.0039200     0.5084100
  C       -4.5116740    -0.2794210    -0.2844450
  C        3.0576300    -0.5565920    -0.0082180
  C        4.4432860    -0.0468870    -0.3740170
  H       -0.6942050     1.7459430    -0.1201930
  H       -1.0474180     1.1506300     1.5016930
  H       -3.4528060     0.7235440     1.3254800
  H       -3.4442640     1.6111560    -0.1826160
  H       -5.4818800     0.1657790    -0.0500790
  H       -4.4326880    -0.4035450    -1.3660960
  H       -4.4661600    -1.2732880     0.1669010
  H        2.9964590    -0.8086780     1.0500210
  H        2.7557556    -1.6172880    -0.6800081
  H        4.5013120     0.2245390    -1.4310650
  H        4.7086350     0.8297180     0.2214350
  H        5.1861620    -0.8265290    -0.1846820
units angstrom
no_reorient  #important for SAPT in psi4, default
symmetry c1  #important for SAPT in psi4, default
}

set PROPERTIES_ORIGIN ["COM"]
properties('MP2/aug-cc-pvtz', properties = ['dipole'])
--------------------------------------------------------------------------

    Molecular point group: c1
  Charge       = 0
  Multiplicity = 1
  Basis Set: AUG-CC-PVTZ
    Blend: AUG-CC-PVTZ
  Basis Set: (AUG-CC-PVTZ AUX)
    Blend: AUG-CC-PVTZ-JKFIT

    Orbital Energies [Eh]
    ---------------------

    Doubly Occupied:

       1A    -91.974103     2A    -20.555734     3A    -20.555495
       4A    -11.367770     5A    -11.346290     6A    -11.283496
       7A    -11.267239     8A    -11.250047     9A    -11.233244
      10A    -11.222401    11A     -8.975582    12A     -6.656725
      13A     -6.655596    14A     -6.654985    15A     -1.397553
      16A     -1.384131    17A     -1.092255    18A     -1.075337
      19A     -1.042066    20A     -0.972769    21A     -0.896010
      22A     -0.827044    23A     -0.757299    24A     -0.726227
      25A     -0.678452    26A     -0.668290    27A     -0.648081
      28A     -0.637525    29A     -0.618965    30A     -0.608523
      31A     -0.594253    32A     -0.560233    33A     -0.545980
      34A     -0.533005    35A     -0.525446    36A     -0.519745
      37A     -0.511578    38A     -0.495017    39A     -0.486447
      40A     -0.462729    41A     -0.430074    42A     -0.406874
      43A     -0.368864

  @DF-RHF Final Energy:  -819.47419836099471

   => Energetics <=

    Nuclear Repulsion Energy =            602.5682179262530553
    One-Electron Energy =               -2321.1458734946686491
    Two-Electron Energy =                 899.1034572074208882
    Total Energy =                       -819.4741983609947056
  Basis Set: (AUG-CC-PVTZ AUX)
    Blend: AUG-CC-PVTZ-RI
    Molecular point group: c1

    Geometry (in Angstrom), charge = 0, multiplicity = 1:

       Center              X                  Y                   Z               Mass
    ------------   -----------------  -----------------  -----------------  -----------------
         S            1.814524326983     0.723665552366    -0.340468908631    31.972071174400
         O           -1.842918673017    -0.933773447634    -0.799437908631    15.994914619570
         O            0.494463326983    -1.060778447634     1.115319091369    15.994914619570
         C           -0.827036673017     0.834537552366     0.476291091369    12.000000000000
         C           -3.382949673017     0.596565552366     0.238078091369    12.000000000000
         C           -2.009342673017     0.053178552366    -0.094358908631    12.000000000000
         C            0.432898326983    -0.002885447634     0.509065091369    12.000000000000
         C           -4.511379673017    -0.278386447634    -0.283789908631    12.000000000000
         C            3.057924326983    -0.555557447634    -0.007562908631    12.000000000000
         C            4.443580326983    -0.045852447634    -0.373361908631    12.000000000000
         H           -0.693910673017     1.746977552366    -0.119537908631     1.007825032230
         H           -1.047123673017     1.151664552366     1.502348091369     1.007825032230
         H           -3.452511673017     0.724578552366     1.326135091369     1.007825032230
         H           -3.443969673017     1.612190552366    -0.181960908631     1.007825032230
         H           -5.481585673017     0.166813552366    -0.049423908631     1.007825032230
         H           -4.432393673017    -0.402510447634    -1.365440908631     1.007825032230
         H           -4.465865673017    -1.272253447634     0.167556091369     1.007825032230
         H            2.996753326983    -0.807643447634     1.050676091369     1.007825032230
         H            2.756049926983    -1.616253447634    -0.679353008631     1.007825032230
         H            4.501606326983     0.225573552366    -1.430409908631     1.007825032230
         H            4.708929326983     0.830752552366     0.222090091369     1.007825032230
         H            5.186456326983    -0.825494447634    -0.184026908631     1.007825032230

  Basis Set: AUG-CC-PVTZ
    Blend: AUG-CC-PVTZ
  Basis Set: (AUG-CC-PVTZ AUX)
    Blend: AUG-CC-PVTZ-JKFIT
	 Reference Energy          =    -819.4741983609947056 [Eh]
	 Singles Energy            =      -0.0000000000000000 [Eh]
	 Same-Spin Energy          =      -0.4845505462320449 [Eh]
	 Opposite-Spin Energy      =      -1.5729424989985912 [Eh]
	 Correlation Energy        =      -2.0574930452306361 [Eh]
	 Total Energy              =    -821.5316914062253772 [Eh]

	 ================> DF-SCS-MP2 Energies <==================
	-----------------------------------------------------------
	 SCS Same-Spin Scale       =       0.3333333333333333 [-]
	 SCS Opposite-Spin Scale   =       1.2000000000000000 [-]
	 SCS Same-Spin Energy      =      -0.1615168487440150 [Eh]
	 SCS Opposite-Spin Energy  =      -1.8875309987983093 [Eh]
	 SCS Correlation Energy    =      -2.0490478475423242 [Eh]
	 SCS Total Energy          =    -821.5232462085369889 [Eh]
	-----------------------------------------------------------

  Dipole Moment: [D]
     X:    -0.0152      Y:     2.9267      Z:     0.7067     Total:     3.0108

*** Psi4 exiting successfully. Buy a developer a beer!
