                               Psi4 1.3.2 release

  ==> Input File <==

--------------------------------------------------------------------------
#psi4
#
memory 32 gb

molecule  {
0 1
  S        1.8142300     0.7226310    -0.3411240
  O       -1.8432130    -0.9348080    -0.8000930
  O        0.4941690    -1.0618130     1.1146640
  C       -0.8273310     0.8335030     0.4756360
  C       -3.3832440     0.5955310     0.2374230
  C       -2.0096370     0.0521440    -0.0950140
  C        0.4446378     0.0140065     0.4932008
  C       -4.5116740    -0.2794210    -0.2844450
  C        3.0576300    -0.5565920    -0.0082180
  C        4.4432860    -0.0468870    -0.3740170
  H       -0.6761204     1.7407437    -0.1238064
  H       -1.0474180     1.1506300     1.5016930
  H       -3.4528060     0.7235440     1.3254800
  H       -3.4442640     1.6111560    -0.1826160
  H       -5.4818800     0.1657790    -0.0500790
  H       -4.4326880    -0.4035450    -1.3660960
  H       -4.4661600    -1.2732880     0.1669010
  H        2.9964590    -0.8086780     1.0500210
  H        2.8025100    -1.4530070    -0.5759610
  H        4.5013120     0.2245390    -1.4310650
  H        4.7086350     0.8297180     0.2214350
  H        5.1861620    -0.8265290    -0.1846820
units angstrom
no_reorient  #important for SAPT in psi4, default
symmetry c1  #important for SAPT in psi4, default
}

set PROPERTIES_ORIGIN ["COM"]
properties('MP2/aug-cc-pvtz', properties = ['dipole'])
--------------------------------------------------------------------------

    Molecular point group: c1
  Charge       = 0
  Multiplicity = 1
  Basis Set: AUG-CC-PVTZ
    Blend: AUG-CC-PVTZ
  Basis Set: (AUG-CC-PVTZ AUX)
    Blend: AUG-CC-PVTZ-JKFIT

    Orbital Energies [Eh]
    ---------------------

    Doubly Occupied:

       1A    -91.975853     2A    -20.554817     3A    -20.550601
       4A    -11.367375     5A    -11.345632     6A    -11.266572
       7A    -11.264369     8A    -11.249513     9A    -11.233041
      10A    -11.221937    11A     -8.977740    12A     -6.658935
      13A     -6.657755    14A     -6.657169    15A     -1.390631
      16A     -1.372690    17A     -1.096710    18A     -1.077390
      19A     -1.042770    20A     -0.976442    21A     -0.896107
      22A     -0.840240    23A     -0.759760    24A     -0.724829
      25A     -0.677058    26A     -0.666971    27A     -0.644447
      28A     -0.636846    29A     -0.634274    30A     -0.606281
      31A     -0.594431    32A     -0.558334    33A     -0.544425
      34A     -0.531559    35A     -0.526696    36A     -0.520566
      37A     -0.511669    38A     -0.501402    39A     -0.487261
      40A     -0.466653    41A     -0.429323    42A     -0.409058
      43A     -0.373208

  @DF-RHF Final Energy:  -819.49142036685805

   => Energetics <=

    Nuclear Repulsion Energy =            603.4570397885254351
    One-Electron Energy =               -2322.9382367743155555
    Two-Electron Energy =                 899.9897766189320691
    Total Energy =                       -819.4914203668580512
  Basis Set: (AUG-CC-PVTZ AUX)
    Blend: AUG-CC-PVTZ-RI
    Molecular point group: c1

    Geometry (in Angstrom), charge = 0, multiplicity = 1:

       Center              X                  Y                   Z               Mass
    ------------   -----------------  -----------------  -----------------  -----------------
         S            1.813213834229     0.721319842198    -0.339961018241    31.972071174400
         O           -1.844229165771    -0.936119157802    -0.798930018241    15.994914619570
         O            0.493152834229    -1.063124157802     1.115826981759    15.994914619570
         C           -0.828347165771     0.832191842198     0.476798981759    12.000000000000
         C           -3.384260165771     0.594219842198     0.238585981759    12.000000000000
         C           -2.010653165771     0.050832842198    -0.093851018241    12.000000000000
         C            0.443621634229     0.012695342198     0.494363781759    12.000000000000
         C           -4.512690165771    -0.280732157802    -0.283282018241    12.000000000000
         C            3.056613834229    -0.557903157802    -0.007055018241    12.000000000000
         C            4.442269834229    -0.048198157802    -0.372854018241    12.000000000000
         H           -0.677136565771     1.739432542198    -0.122643418241     1.007825032230
         H           -1.048434165771     1.149318842198     1.502855981759     1.007825032230
         H           -3.453822165771     0.722232842198     1.326642981759     1.007825032230
         H           -3.445280165771     1.609844842198    -0.181453018241     1.007825032230
         H           -5.482896165771     0.164467842198    -0.048916018241     1.007825032230
         H           -4.433704165771    -0.404856157802    -1.364933018241     1.007825032230
         H           -4.467176165771    -1.274599157802     0.168063981759     1.007825032230
         H            2.995442834229    -0.809989157802     1.051183981759     1.007825032230
         H            2.801493834229    -1.454318157802    -0.574798018241     1.007825032230
         H            4.500295834229     0.223227842198    -1.429902018241     1.007825032230
         H            4.707618834229     0.828406842198     0.222597981759     1.007825032230
         H            5.185145834229    -0.827840157802    -0.183519018241     1.007825032230

  Basis Set: AUG-CC-PVTZ
    Blend: AUG-CC-PVTZ
  Basis Set: (AUG-CC-PVTZ AUX)
    Blend: AUG-CC-PVTZ-JKFIT
	 Reference Energy          =    -819.4914203668580512 [Eh]
	 Singles Energy            =      -0.0000000000000000 [Eh]
	 Same-Spin Energy          =      -0.4848949343986718 [Eh]
	 Opposite-Spin Energy      =      -1.5723727111637917 [Eh]
	 Correlation Energy        =      -2.0572676455624634 [Eh]
	 Total Energy              =    -821.5486880124204845 [Eh]

	 ================> DF-SCS-MP2 Energies <==================
	-----------------------------------------------------------
	 SCS Same-Spin Scale       =       0.3333333333333333 [-]
	 SCS Opposite-Spin Scale   =       1.2000000000000000 [-]
	 SCS Same-Spin Energy      =      -0.1616316447995573 [Eh]
	 SCS Opposite-Spin Energy  =      -1.8868472533965499 [Eh]
	 SCS Correlation Energy    =      -2.0484788981961071 [Eh]
	 SCS Total Energy          =    -821.5398992650541459 [Eh]
	-----------------------------------------------------------

  Dipole Moment: [D]
     X:     0.1890      Y:     2.9252      Z:     0.5742     Total:     2.9870

*** Psi4 exiting successfully. Buy a developer a beer!
