                               Psi4 1.3.2 release

  ==> Input File <==

--------------------------------------------------------------------------
#psi4
#
memory 32 gb

molecule  {
0 1
  S        1.8142300     0.7226310    -0.3411240
  O       -1.8432130    -0.9348080    -0.8000930
  O        0.4941690    -1.0618130     1.1146640
  C       -0.8273310     0.8335030     0.4756360
  C       -3.3832440     0.5955310     0.2374230
  C       -2.0096370     0.0521440    -0.0950140
  C        0.4326040    -0.0039200     0.5084100
  C       -4.5209114    -0.2818691    -0.2596921
  C        3.0576300    -0.5565920    -0.0082180
  C        4.4432860    -0.0468870    -0.3740170
  H       -0.6942050     1.7459430    -0.1201930
  H       -1.0474180     1.1506300     1.5016930
  H       -3.4685089     0.7125673     1.3255988
  H       -3.4442640     1.6111560    -0.1826160
  H       -5.4818800     0.1657790    -0.0500790
  H       -4.4326880    -0.4035450    -1.3660960
  H       -4.4661600    -1.2732880     0.1669010
  H        2.9964590    -0.8086780     1.0500210
  H        2.8025100    -1.4530070    -0.5759610
  H        4.5013120     0.2245390    -1.4310650
  H        4.7086350     0.8297180     0.2214350
  H        5.1861620    -0.8265290    -0.1846820
units angstrom
no_reorient  #important for SAPT in psi4, default
symmetry c1  #important for SAPT in psi4, default
}

set PROPERTIES_ORIGIN ["COM"]
properties('MP2/aug-cc-pvtz', properties = ['dipole'])
--------------------------------------------------------------------------

    Molecular point group: c1
  Charge       = 0
  Multiplicity = 1
  Basis Set: AUG-CC-PVTZ
    Blend: AUG-CC-PVTZ
  Basis Set: (AUG-CC-PVTZ AUX)
    Blend: AUG-CC-PVTZ-JKFIT

    Orbital Energies [Eh]
    ---------------------

    Doubly Occupied:

       1A    -91.972167     2A    -20.555817     3A    -20.555163
       4A    -11.367539     5A    -11.346489     6A    -11.266943
       7A    -11.262651     8A    -11.249787     9A    -11.231658
      10A    -11.222122    11A     -8.973778    12A     -6.654931
      13A     -6.653802    14A     -6.653189    15A     -1.397476
      16A     -1.384088    17A     -1.093958    18A     -1.077149
      19A     -1.042798    20A     -0.972160    21A     -0.896031
      22A     -0.837720    23A     -0.760126    24A     -0.726997
      25A     -0.678318    26A     -0.668512    27A     -0.648184
      28A     -0.637348    29A     -0.634037    30A     -0.608941
      31A     -0.595365    32A     -0.559742    33A     -0.547248
      34A     -0.536163    35A     -0.526998    36A     -0.521293
      37A     -0.508693    38A     -0.502860    39A     -0.488008
      40A     -0.465338    41A     -0.430036    42A     -0.406672
      43A     -0.371186

  @DF-RHF Final Energy:  -819.49384998730500

   => Energetics <=

    Nuclear Repulsion Energy =            603.3309748348033281
    One-Electron Energy =               -2322.6706887762788938
    Two-Electron Energy =                 899.8458639541705679
    Total Energy =                       -819.4938499873049977
  Basis Set: (AUG-CC-PVTZ AUX)
    Blend: AUG-CC-PVTZ-RI
    Molecular point group: c1

    Geometry (in Angstrom), charge = 0, multiplicity = 1:

       Center              X                  Y                   Z               Mass
    ------------   -----------------  -----------------  -----------------  -----------------
         S            1.815021368144     0.722883783068    -0.342980631415    31.972071174400
         O           -1.842421631856    -0.934555216932    -0.801949631415    15.994914619570
         O            0.494960368144    -1.061560216932     1.112807368585    15.994914619570
         C           -0.826539631856     0.833755783068     0.473779368585    12.000000000000
         C           -3.382452631856     0.595783783068     0.235566368585    12.000000000000
         C           -2.008845631856     0.052396783068    -0.096870631415    12.000000000000
         C            0.433395368144    -0.003667216932     0.506553368585    12.000000000000
         C           -4.520120031856    -0.281616316932    -0.261548731415    12.000000000000
         C            3.058421368144    -0.556339216932    -0.010074631415    12.000000000000
         C            4.444077368144    -0.046634216932    -0.375873631415    12.000000000000
         H           -0.693413631856     1.746195783068    -0.122049631415     1.007825032230
         H           -1.046626631856     1.150882783068     1.499836368585     1.007825032230
         H           -3.467717531856     0.712820083068     1.323742168585     1.007825032230
         H           -3.443472631856     1.611408783068    -0.184472631415     1.007825032230
         H           -5.481088631856     0.166031783068    -0.051935631415     1.007825032230
         H           -4.431896631856    -0.403292216932    -1.367952631415     1.007825032230
         H           -4.465368631856    -1.273035216932     0.165044368585     1.007825032230
         H            2.997250368144    -0.808425216932     1.048164368585     1.007825032230
         H            2.803301368144    -1.452754216932    -0.577817631415     1.007825032230
         H            4.502103368144     0.224791783068    -1.432921631415     1.007825032230
         H            4.709426368144     0.829970783068     0.219578368585     1.007825032230
         H            5.186953368144    -0.826276216932    -0.186538631415     1.007825032230

  Basis Set: AUG-CC-PVTZ
    Blend: AUG-CC-PVTZ
  Basis Set: (AUG-CC-PVTZ AUX)
    Blend: AUG-CC-PVTZ-JKFIT
	 Reference Energy          =    -819.4938499873049977 [Eh]
	 Singles Energy            =      -0.0000000000000000 [Eh]
	 Same-Spin Energy          =      -0.4842139763115695 [Eh]
	 Opposite-Spin Energy      =      -1.5711104346347646 [Eh]
	 Correlation Energy        =      -2.0553244109463340 [Eh]
	 Total Energy              =    -821.5491743982513526 [Eh]

	 ================> DF-SCS-MP2 Energies <==================
	-----------------------------------------------------------
	 SCS Same-Spin Scale       =       0.3333333333333333 [-]
	 SCS Opposite-Spin Scale   =       1.2000000000000000 [-]
	 SCS Same-Spin Energy      =      -0.1614046587705232 [Eh]
	 SCS Opposite-Spin Energy  =      -1.8853325215617174 [Eh]
	 SCS Correlation Energy    =      -2.0467371803322405 [Eh]
	 SCS Total Energy          =    -821.5405871676372271 [Eh]
	-----------------------------------------------------------

  Dipole Moment: [D]
     X:     0.0049      Y:     2.8309      Z:     0.6928     Total:     2.9144

*** Psi4 exiting successfully. Buy a developer a beer!
