                               Psi4 1.3.2 release

  ==> Input File <==

--------------------------------------------------------------------------
#psi4
#
memory 32 gb

molecule  {
0 1
  S        1.8142300     0.7226310    -0.3411240
  O       -1.8432130    -0.9348080    -0.8000930
  O        0.4941690    -1.0618130     1.1146640
  C       -0.8273310     0.8335030     0.4756360
  C       -3.3832440     0.5955310     0.2374230
  C       -2.0096370     0.0521440    -0.0950140
  C        0.2660786     0.1067621     0.5040783
  C       -4.5116740    -0.2794210    -0.2844450
  C        3.0576300    -0.5565920    -0.0082180
  C        4.4432860    -0.0468870    -0.3740170
  H       -0.6942050     1.7459430    -0.1201930
  H       -1.0474180     1.1506300     1.5016930
  H       -3.4528060     0.7235440     1.3254800
  H       -3.4442640     1.6111560    -0.1826160
  H       -5.4818800     0.1657790    -0.0500790
  H       -4.4326880    -0.4035450    -1.3660960
  H       -4.4661600    -1.2732880     0.1669010
  H        2.9964590    -0.8086780     1.0500210
  H        2.8025100    -1.4530070    -0.5759610
  H        4.5013120     0.2245390    -1.4310650
  H        4.7086350     0.8297180     0.2214350
  H        5.1861620    -0.8265290    -0.1846820
units angstrom
no_reorient  #important for SAPT in psi4, default
symmetry c1  #important for SAPT in psi4, default
}

set PROPERTIES_ORIGIN ["COM"]
properties('MP2/aug-cc-pvtz', properties = ['dipole'])
--------------------------------------------------------------------------

    Molecular point group: c1
  Charge       = 0
  Multiplicity = 1
  Basis Set: AUG-CC-PVTZ
    Blend: AUG-CC-PVTZ
  Basis Set: (AUG-CC-PVTZ AUX)
    Blend: AUG-CC-PVTZ-JKFIT

    Orbital Energies [Eh]
    ---------------------

    Doubly Occupied:

       1A    -91.969541     2A    -20.566819     3A    -20.546401
       4A    -11.378523     5A    -11.360128     6A    -11.269328
       7A    -11.258635     8A    -11.258439     9A    -11.229037
      10A    -11.228010    11A     -8.969112    12A     -6.650096
      13A     -6.649320    14A     -6.648673    15A     -1.401264
      16A     -1.322519    17A     -1.131708    18A     -1.074714
      19A     -1.065309    20A     -0.958125    21A     -0.912205
      22A     -0.832535    23A     -0.779973    24A     -0.738604
      25A     -0.692099    26A     -0.684865    27A     -0.644583
      28A     -0.637070    29A     -0.630251    30A     -0.618086
      31A     -0.585436    32A     -0.548088    33A     -0.546500
      34A     -0.529934    35A     -0.527250    36A     -0.518925
      37A     -0.504758    38A     -0.500086    39A     -0.474236
      40A     -0.463208    41A     -0.435494    42A     -0.398677
      43A     -0.359732

  @DF-RHF Final Energy:  -819.42802357534185

   => Energetics <=

    Nuclear Repulsion Energy =            602.9085741556162930
    One-Electron Energy =               -2321.6766069766858891
    Two-Electron Energy =                 899.3400092457276287
    Total Energy =                       -819.4280235753418538
  Basis Set: (AUG-CC-PVTZ AUX)
    Blend: AUG-CC-PVTZ-RI
    Molecular point group: c1

    Geometry (in Angstrom), charge = 0, multiplicity = 1:

       Center              X                  Y                   Z               Mass
    ------------   -----------------  -----------------  -----------------  -----------------
         S            1.826714978841     0.714332859039    -0.340799298855    31.972071174400
         O           -1.830728021159    -0.943106140961    -0.799768298855    15.994914619570
         O            0.506653978841    -1.070111140961     1.114988701145    15.994914619570
         C           -0.814846021159     0.825204859039     0.475960701145    12.000000000000
         C           -3.370759021159     0.587232859039     0.237747701145    12.000000000000
         C           -1.997152021159     0.043845859039    -0.094689298855    12.000000000000
         C            0.278563578841     0.098463959039     0.504403001145    12.000000000000
         C           -4.499189021159    -0.287719140961    -0.284120298855    12.000000000000
         C            3.070114978841    -0.564890140961    -0.007893298855    12.000000000000
         C            4.455770978841    -0.055185140961    -0.373692298855    12.000000000000
         H           -0.681720021159     1.737644859039    -0.119868298855     1.007825032230
         H           -1.034933021159     1.142331859039     1.502017701145     1.007825032230
         H           -3.440321021159     0.715245859039     1.325804701145     1.007825032230
         H           -3.431779021159     1.602857859039    -0.182291298855     1.007825032230
         H           -5.469395021159     0.157480859039    -0.049754298855     1.007825032230
         H           -4.420203021159    -0.411843140961    -1.365771298855     1.007825032230
         H           -4.453675021159    -1.281586140961     0.167225701145     1.007825032230
         H            3.008943978841    -0.816976140961     1.050345701145     1.007825032230
         H            2.814994978841    -1.461305140961    -0.575636298855     1.007825032230
         H            4.513796978841     0.216240859039    -1.430740298855     1.007825032230
         H            4.721119978841     0.821419859039     0.221759701145     1.007825032230
         H            5.198646978841    -0.834827140961    -0.184357298855     1.007825032230

  Basis Set: AUG-CC-PVTZ
    Blend: AUG-CC-PVTZ
  Basis Set: (AUG-CC-PVTZ AUX)
    Blend: AUG-CC-PVTZ-JKFIT
	 Reference Energy          =    -819.4280235753418538 [Eh]
	 Singles Energy            =      -0.0000000000000000 [Eh]
	 Same-Spin Energy          =      -0.4900273864567793 [Eh]
	 Opposite-Spin Energy      =      -1.5820667055023092 [Eh]
	 Correlation Energy        =      -2.0720940919590887 [Eh]
	 Total Energy              =    -821.5001176673009695 [Eh]

	 ================> DF-SCS-MP2 Energies <==================
	-----------------------------------------------------------
	 SCS Same-Spin Scale       =       0.3333333333333333 [-]
	 SCS Opposite-Spin Scale   =       1.2000000000000000 [-]
	 SCS Same-Spin Energy      =      -0.1633424621522598 [Eh]
	 SCS Opposite-Spin Energy  =      -1.8984800466027709 [Eh]
	 SCS Correlation Energy    =      -2.0618225087550308 [Eh]
	 SCS Total Energy          =    -821.4898460840969392 [Eh]
	-----------------------------------------------------------

  Dipole Moment: [D]
     X:    -1.0169      Y:     3.0376      Z:     0.7152     Total:     3.2822

*** Psi4 exiting successfully. Buy a developer a beer!
