                               Psi4 1.3.2 release

  ==> Input File <==

--------------------------------------------------------------------------
#psi4
#
memory 32 gb

molecule  {
0 1
  S        1.8142300     0.7226310    -0.3411240
  O       -1.8432130    -0.9348080    -0.8000930
  O        0.4941690    -1.0618130     1.1146640
  C       -0.8273310     0.8335030     0.4756360
  C       -3.3832440     0.5955310     0.2374230
  C       -2.0096370     0.0521440    -0.0950140
  C        0.4562841     0.0321827     0.4779863
  C       -4.5116740    -0.2794210    -0.2844450
  C        3.0576300    -0.5565920    -0.0082180
  C        4.4432860    -0.0468870    -0.3740170
  H       -0.6580820     1.7352680    -0.1272372
  H       -1.0474180     1.1506300     1.5016930
  H       -3.4528060     0.7235440     1.3254800
  H       -3.4442640     1.6111560    -0.1826160
  H       -5.4818800     0.1657790    -0.0500790
  H       -4.4326880    -0.4035450    -1.3660960
  H       -4.4661600    -1.2732880     0.1669010
  H        2.9964590    -0.8086780     1.0500210
  H        2.8025100    -1.4530070    -0.5759610
  H        4.5013120     0.2245390    -1.4310650
  H        4.7086350     0.8297180     0.2214350
  H        5.1861620    -0.8265290    -0.1846820
units angstrom
no_reorient  #important for SAPT in psi4, default
symmetry c1  #important for SAPT in psi4, default
}

set PROPERTIES_ORIGIN ["COM"]
properties('MP2/aug-cc-pvtz', properties = ['dipole'])
--------------------------------------------------------------------------

    Molecular point group: c1
  Charge       = 0
  Multiplicity = 1
  Basis Set: AUG-CC-PVTZ
    Blend: AUG-CC-PVTZ
  Basis Set: (AUG-CC-PVTZ AUX)
    Blend: AUG-CC-PVTZ-JKFIT

    Orbital Energies [Eh]
    ---------------------

    Doubly Occupied:

       1A    -91.979388     2A    -20.554119     3A    -20.546099
       4A    -11.367296     5A    -11.345221     6A    -11.266483
       7A    -11.266098     8A    -11.249177     9A    -11.234414
      10A    -11.221603    11A     -8.981602    12A     -6.662845
      13A     -6.661603    14A     -6.661049    15A     -1.388490
      16A     -1.357387    17A     -1.099894    18A     -1.077393
      19A     -1.043004    20A     -0.980671    21A     -0.896116
      22A     -0.842739    23A     -0.759611    24A     -0.723002
      25A     -0.676089    26A     -0.665714    27A     -0.642953
      28A     -0.636720    29A     -0.632990    30A     -0.604170
      31A     -0.593174    32A     -0.556688    33A     -0.543661
      34A     -0.530820    35A     -0.526086    36A     -0.520398
      37A     -0.511444    38A     -0.497848    39A     -0.485523
      40A     -0.467683    41A     -0.428642    42A     -0.410951
      43A     -0.374825

  @DF-RHF Final Energy:  -819.48619686212180

   => Energetics <=

    Nuclear Repulsion Energy =            603.4903919833609507
    One-Electron Energy =               -2323.0098069821260651
    Two-Electron Energy =                 900.0332181366433133
    Total Energy =                       -819.4861968621218011
  Basis Set: (AUG-CC-PVTZ AUX)
    Blend: AUG-CC-PVTZ-RI
    Molecular point group: c1

    Geometry (in Angstrom), charge = 0, multiplicity = 1:

       Center              X                  Y                   Z               Mass
    ------------   -----------------  -----------------  -----------------  -----------------
         S            1.812227083669     0.719991581358    -0.338798725808    31.972071174400
         O           -1.845215916331    -0.937447418642    -0.797767725808    15.994914619570
         O            0.492166083669    -1.064452418642     1.116989274192    15.994914619570
         C           -0.829333916331     0.830863581358     0.477961274192    12.000000000000
         C           -3.385246916331     0.592891581358     0.239748274192    12.000000000000
         C           -2.011639916331     0.049504581358    -0.092688725808    12.000000000000
         C            0.454281183669     0.029543281358     0.480311574192    12.000000000000
         C           -4.513676916331    -0.282060418642    -0.282119725808    12.000000000000
         C            3.055627083669    -0.559231418642    -0.005892725808    12.000000000000
         C            4.441283083669    -0.049526418642    -0.371691725808    12.000000000000
         H           -0.660084916331     1.732628581358    -0.124911925808     1.007825032230
         H           -1.049420916331     1.147990581358     1.504018274192     1.007825032230
         H           -3.454808916331     0.720904581358     1.327805274192     1.007825032230
         H           -3.446266916331     1.608516581358    -0.180290725808     1.007825032230
         H           -5.483882916331     0.163139581358    -0.047753725808     1.007825032230
         H           -4.434690916331    -0.406184418642    -1.363770725808     1.007825032230
         H           -4.468162916331    -1.275927418642     0.169226274192     1.007825032230
         H            2.994456083669    -0.811317418642     1.052346274192     1.007825032230
         H            2.800507083669    -1.455646418642    -0.573635725808     1.007825032230
         H            4.499309083669     0.221899581358    -1.428739725808     1.007825032230
         H            4.706632083669     0.827078581358     0.223760274192     1.007825032230
         H            5.184159083669    -0.829168418642    -0.182356725808     1.007825032230

  Basis Set: AUG-CC-PVTZ
    Blend: AUG-CC-PVTZ
  Basis Set: (AUG-CC-PVTZ AUX)
    Blend: AUG-CC-PVTZ-JKFIT
	 Reference Energy          =    -819.4861968621218011 [Eh]
	 Singles Energy            =      -0.0000000000000000 [Eh]
	 Same-Spin Energy          =      -0.4856494026026057 [Eh]
	 Opposite-Spin Energy      =      -1.5737954892108825 [Eh]
	 Correlation Energy        =      -2.0594448918134880 [Eh]
	 Total Energy              =    -821.5456417539353424 [Eh]

	 ================> DF-SCS-MP2 Energies <==================
	-----------------------------------------------------------
	 SCS Same-Spin Scale       =       0.3333333333333333 [-]
	 SCS Opposite-Spin Scale   =       1.2000000000000000 [-]
	 SCS Same-Spin Energy      =      -0.1618831342008686 [Eh]
	 SCS Opposite-Spin Energy  =      -1.8885545870530589 [Eh]
	 SCS Correlation Energy    =      -2.0504377212539273 [Eh]
	 SCS Total Energy          =    -821.5366345833757578 [Eh]
	-----------------------------------------------------------

  Dipole Moment: [D]
     X:     0.3670      Y:     3.0095      Z:     0.4715     Total:     3.0683

*** Psi4 exiting successfully. Buy a developer a beer!
