                               Psi4 1.3.2 release

  ==> Input File <==

--------------------------------------------------------------------------
#psi4
#
memory 32 gb

molecule  {
0 1
  S        1.7599690     0.7952179    -0.3621963
  O       -1.8432130    -0.9348080    -0.8000930
  O        0.4941690    -1.0618130     1.1146640
  C       -0.7877815     0.8876061     0.4333886
  C       -3.3832440     0.5955310     0.2374230
  C       -2.0096370     0.0521440    -0.0950140
  C        0.4326040    -0.0039200     0.5084100
  C       -4.5116740    -0.2794210    -0.2844450
  C        3.0576300    -0.5565920    -0.0082180
  C        4.4432860    -0.0468870    -0.3740170
  H       -0.6942050     1.7459430    -0.1201930
  H       -1.0474180     1.1506300     1.5016930
  H       -3.4528060     0.7235440     1.3254800
  H       -3.4442640     1.6111560    -0.1826160
  H       -5.4818800     0.1657790    -0.0500790
  H       -4.4326880    -0.4035450    -1.3660960
  H       -4.4661600    -1.2732880     0.1669010
  H        2.9964590    -0.8086780     1.0500210
  H        2.8025100    -1.4530070    -0.5759610
  H        4.5013120     0.2245390    -1.4310650
  H        4.7086350     0.8297180     0.2214350
  H        5.1861620    -0.8265290    -0.1846820
units angstrom
no_reorient  #important for SAPT in psi4, default
symmetry c1  #important for SAPT in psi4, default
}

set PROPERTIES_ORIGIN ["COM"]
properties('MP2/aug-cc-pvtz', properties = ['dipole'])
--------------------------------------------------------------------------

    Molecular point group: c1
  Charge       = 0
  Multiplicity = 1
  Basis Set: AUG-CC-PVTZ
    Blend: AUG-CC-PVTZ
  Basis Set: (AUG-CC-PVTZ AUX)
    Blend: AUG-CC-PVTZ-JKFIT

    Orbital Energies [Eh]
    ---------------------

    Doubly Occupied:

       1A    -91.973754     2A    -20.557229     3A    -20.556176
       4A    -11.368903     5A    -11.347696     6A    -11.269505
       7A    -11.263717     8A    -11.250189     9A    -11.230534
      10A    -11.222303    11A     -8.974297    12A     -6.655372
      13A     -6.654080    14A     -6.653601    15A     -1.396544
      16A     -1.383620    17A     -1.089170    18A     -1.069070
      19A     -1.042841    20A     -0.968917    21A     -0.894183
      22A     -0.836114    23A     -0.756190    24A     -0.732167
      25A     -0.676689    26A     -0.663679    27A     -0.646450
      28A     -0.634486    29A     -0.630654    30A     -0.610086
      31A     -0.596412    32A     -0.563982    33A     -0.544504
      34A     -0.532700    35A     -0.525285    36A     -0.519681
      37A     -0.513785    38A     -0.503780    39A     -0.489147
      40A     -0.453724    41A     -0.428472    42A     -0.402475
      43A     -0.374513

  @DF-RHF Final Energy:  -819.48220054837100

   => Energetics <=

    Nuclear Repulsion Energy =            601.3847148061166763
    One-Electron Energy =               -2318.8204793230142968
    Two-Electron Energy =                 897.9535639685265096
    Total Energy =                       -819.4822005483709972
  Basis Set: (AUG-CC-PVTZ AUX)
    Blend: AUG-CC-PVTZ-RI
    Molecular point group: c1

    Geometry (in Angstrom), charge = 0, multiplicity = 1:

       Center              X                  Y                   Z               Mass
    ------------   -----------------  -----------------  -----------------  -----------------
         S            1.767842698010     0.776662051884    -0.354819599054    31.972071174400
         O           -1.835339301990    -0.953363848116    -0.792716299054    15.994914619570
         O            0.502042698010    -1.080368848116     1.122040700946    15.994914619570
         C           -0.779907801990     0.869050251884     0.440765300946    12.000000000000
         C           -3.375370301990     0.576975151884     0.244799700946    12.000000000000
         C           -2.001763301990     0.033588151884    -0.087637299054    12.000000000000
         C            0.440477698010    -0.022475848116     0.515786700946    12.000000000000
         C           -4.503800301990    -0.297976848116    -0.277068299054    12.000000000000
         C            3.065503698010    -0.575147848116    -0.000841299054    12.000000000000
         C            4.451159698010    -0.065442848116    -0.366640299054    12.000000000000
         H           -0.686331301990     1.727387151884    -0.112816299054     1.007825032230
         H           -1.039544301990     1.132074151884     1.509069700946     1.007825032230
         H           -3.444932301990     0.704988151884     1.332856700946     1.007825032230
         H           -3.436390301990     1.592600151884    -0.175239299054     1.007825032230
         H           -5.474006301990     0.147223151884    -0.042702299054     1.007825032230
         H           -4.424814301990    -0.422100848116    -1.358719299054     1.007825032230
         H           -4.458286301990    -1.291843848116     0.174277700946     1.007825032230
         H            3.004332698010    -0.827233848116     1.057397700946     1.007825032230
         H            2.810383698010    -1.471562848116    -0.568584299054     1.007825032230
         H            4.509185698010     0.205983151884    -1.423688299054     1.007825032230
         H            4.716508698010     0.811162151884     0.228811700946     1.007825032230
         H            5.194035698010    -0.845084848116    -0.177305299054     1.007825032230

  Basis Set: AUG-CC-PVTZ
    Blend: AUG-CC-PVTZ
  Basis Set: (AUG-CC-PVTZ AUX)
    Blend: AUG-CC-PVTZ-JKFIT
	 Reference Energy          =    -819.4822005483709972 [Eh]
	 Singles Energy            =      -0.0000000000000000 [Eh]
	 Same-Spin Energy          =      -0.4842191328694772 [Eh]
	 Opposite-Spin Energy      =      -1.5724453163413570 [Eh]
	 Correlation Energy        =      -2.0566644492108344 [Eh]
	 Total Energy              =    -821.5388649975818680 [Eh]

	 ================> DF-SCS-MP2 Energies <==================
	-----------------------------------------------------------
	 SCS Same-Spin Scale       =       0.3333333333333333 [-]
	 SCS Opposite-Spin Scale   =       1.2000000000000000 [-]
	 SCS Same-Spin Energy      =      -0.1614063776231590 [Eh]
	 SCS Opposite-Spin Energy  =      -1.8869343796096283 [Eh]
	 SCS Correlation Energy    =      -2.0483407572327872 [Eh]
	 SCS Total Energy          =    -821.5305413056038333 [Eh]
	-----------------------------------------------------------

  Dipole Moment: [D]
     X:    -0.0818      Y:     2.8125      Z:     0.6242     Total:     2.8821

*** Psi4 exiting successfully. Buy a developer a beer!
