                               Psi4 1.3.2 release

  ==> Input File <==

--------------------------------------------------------------------------
#psi4
#
memory 32 gb

molecule  {
0 1
  S        1.8142300     0.7226310    -0.3411240
  O       -1.8432130    -0.9348080    -0.8000930
  O        0.5549011    -1.0673199     1.0955180
  C       -0.7888614     0.8858605     0.4303046
  C       -3.3832440     0.5955310     0.2374230
  C       -2.0096370     0.0521440    -0.0950140
  C        0.4326040    -0.0039200     0.5084100
  C       -4.5116740    -0.2794210    -0.2844450
  C        3.0576300    -0.5565920    -0.0082180
  C        4.4432860    -0.0468870    -0.3740170
  H       -0.6942050     1.7459430    -0.1201930
  H       -1.0474180     1.1506300     1.5016930
  H       -3.4528060     0.7235440     1.3254800
  H       -3.4442640     1.6111560    -0.1826160
  H       -5.4818800     0.1657790    -0.0500790
  H       -4.4326880    -0.4035450    -1.3660960
  H       -4.4661600    -1.2732880     0.1669010
  H        2.9964590    -0.8086780     1.0500210
  H        2.8025100    -1.4530070    -0.5759610
  H        4.5013120     0.2245390    -1.4310650
  H        4.7086350     0.8297180     0.2214350
  H        5.1861620    -0.8265290    -0.1846820
units angstrom
no_reorient  #important for SAPT in psi4, default
symmetry c1  #important for SAPT in psi4, default
}

set PROPERTIES_ORIGIN ["COM"]
properties('MP2/aug-cc-pvtz', properties = ['dipole'])
--------------------------------------------------------------------------

    Molecular point group: c1
  Charge       = 0
  Multiplicity = 1
  Basis Set: AUG-CC-PVTZ
    Blend: AUG-CC-PVTZ
  Basis Set: (AUG-CC-PVTZ AUX)
    Blend: AUG-CC-PVTZ-JKFIT

    Orbital Energies [Eh]
    ---------------------

    Doubly Occupied:

       1A    -91.966700     2A    -20.558853     3A    -20.556572
       4A    -11.369838     5A    -11.350536     6A    -11.269535
       7A    -11.259333     8A    -11.252349     9A    -11.229181
      10A    -11.223898    11A     -8.968684    12A     -6.649831
      13A     -6.648712    14A     -6.648108    15A     -1.398052
      16A     -1.386152    17A     -1.093476    18A     -1.075599
      19A     -1.045469    20A     -0.968253    21A     -0.897394
      22A     -0.835912    23A     -0.757016    24A     -0.733749
      25A     -0.680828    26A     -0.666773    27A     -0.648631
      28A     -0.637588    29A     -0.632391    30A     -0.612704
      31A     -0.598933    32A     -0.560664    33A     -0.546188
      34A     -0.534650    35A     -0.524660    36A     -0.521458
      37A     -0.514218    38A     -0.503609    39A     -0.491269
      40A     -0.462665    41A     -0.428865    42A     -0.402822
      43A     -0.367891

  @DF-RHF Final Energy:  -819.48636460496050

   => Energetics <=

    Nuclear Repulsion Energy =            603.2621075979293437
    One-Electron Energy =               -2322.5369217540292084
    Two-Electron Energy =                 899.7884495511393652
    Total Energy =                       -819.4863646049604995
  Basis Set: (AUG-CC-PVTZ AUX)
    Blend: AUG-CC-PVTZ-RI
    Molecular point group: c1

    Geometry (in Angstrom), charge = 0, multiplicity = 1:

       Center              X                  Y                   Z               Mass
    ------------   -----------------  -----------------  -----------------  -----------------
         S            1.805276550886     0.719256002039    -0.335812069206    31.972071174400
         O           -1.852166449114    -0.938182997961    -0.794781069206    15.994914619570
         O            0.545947650886    -1.070694897961     1.100829930794    15.994914619570
         C           -0.797814849114     0.882485502039     0.435616530794    12.000000000000
         C           -3.392197449114     0.592156002039     0.242734930794    12.000000000000
         C           -2.018590449114     0.048769002039    -0.089702069206    12.000000000000
         C            0.423650550886    -0.007294997961     0.513721930794    12.000000000000
         C           -4.520627449114    -0.282795997961    -0.279133069206    12.000000000000
         C            3.048676550886    -0.559966997961    -0.002906069206    12.000000000000
         C            4.434332550886    -0.050261997961    -0.368705069206    12.000000000000
         H           -0.703158449114     1.742568002039    -0.114881069206     1.007825032230
         H           -1.056371449114     1.147255002039     1.507004930794     1.007825032230
         H           -3.461759449114     0.720169002039     1.330791930794     1.007825032230
         H           -3.453217449114     1.607781002039    -0.177304069206     1.007825032230
         H           -5.490833449114     0.162404002039    -0.044767069206     1.007825032230
         H           -4.441641449114    -0.406919997961    -1.360784069206     1.007825032230
         H           -4.475113449114    -1.276662997961     0.172212930794     1.007825032230
         H            2.987505550886    -0.812052997961     1.055332930794     1.007825032230
         H            2.793556550886    -1.456381997961    -0.570649069206     1.007825032230
         H            4.492358550886     0.221164002039    -1.425753069206     1.007825032230
         H            4.699681550886     0.826343002039     0.226746930794     1.007825032230
         H            5.177208550886    -0.829903997961    -0.179370069206     1.007825032230

  Basis Set: AUG-CC-PVTZ
    Blend: AUG-CC-PVTZ
  Basis Set: (AUG-CC-PVTZ AUX)
    Blend: AUG-CC-PVTZ-JKFIT
	 Reference Energy          =    -819.4863646049604995 [Eh]
	 Singles Energy            =      -0.0000000000000000 [Eh]
	 Same-Spin Energy          =      -0.4845796592513717 [Eh]
	 Opposite-Spin Energy      =      -1.5715753575343010 [Eh]
	 Correlation Energy        =      -2.0561550167856728 [Eh]
	 Total Energy              =    -821.5425196217461234 [Eh]

	 ================> DF-SCS-MP2 Energies <==================
	-----------------------------------------------------------
	 SCS Same-Spin Scale       =       0.3333333333333333 [-]
	 SCS Opposite-Spin Scale   =       1.2000000000000000 [-]
	 SCS Same-Spin Energy      =      -0.1615265530837905 [Eh]
	 SCS Opposite-Spin Energy  =      -1.8858904290411611 [Eh]
	 SCS Correlation Energy    =      -2.0474169821249517 [Eh]
	 SCS Total Energy          =    -821.5337815870854001 [Eh]
	-----------------------------------------------------------

  Dipole Moment: [D]
     X:    -0.3663      Y:     2.8130      Z:     0.6926     Total:     2.9201

*** Psi4 exiting successfully. Buy a developer a beer!
