                               Psi4 1.3.2 release

  ==> Input File <==

--------------------------------------------------------------------------
#psi4
#
memory 32 gb

molecule  {
0 1
  S        1.8142300     0.7226310    -0.3411240
  O       -1.8537974    -0.9357304    -0.8012191
  O        0.4941690    -1.0618130     1.1146640
  C       -0.8273310     0.8335030     0.4756360
  C       -3.3887311     0.5858989     0.2302325
  C       -2.0096370     0.0521440    -0.0950140
  C        0.4326040    -0.0039200     0.5084100
  C       -4.5116740    -0.2794210    -0.2844450
  C        3.0576300    -0.5565920    -0.0082180
  C        4.4432860    -0.0468870    -0.3740170
  H       -0.6942050     1.7459430    -0.1201930
  H       -1.0474180     1.1506300     1.5016930
  H       -3.4528060     0.7235440     1.3254800
  H       -3.4442640     1.6111560    -0.1826160
  H       -5.4818800     0.1657790    -0.0500790
  H       -4.4326880    -0.4035450    -1.3660960
  H       -4.4661600    -1.2732880     0.1669010
  H        2.9964590    -0.8086780     1.0500210
  H        2.8025100    -1.4530070    -0.5759610
  H        4.5013120     0.2245390    -1.4310650
  H        4.7086350     0.8297180     0.2214350
  H        5.1861620    -0.8265290    -0.1846820
units angstrom
no_reorient  #important for SAPT in psi4, default
symmetry c1  #important for SAPT in psi4, default
}

set PROPERTIES_ORIGIN ["COM"]
properties('MP2/aug-cc-pvtz', properties = ['dipole'])
--------------------------------------------------------------------------

    Molecular point group: c1
  Charge       = 0
  Multiplicity = 1
  Basis Set: AUG-CC-PVTZ
    Blend: AUG-CC-PVTZ
  Basis Set: (AUG-CC-PVTZ AUX)
    Blend: AUG-CC-PVTZ-JKFIT

    Orbital Energies [Eh]
    ---------------------

    Doubly Occupied:

       1A    -91.972431     2A    -20.555507     3A    -20.555060
       4A    -11.367892     5A    -11.345888     6A    -11.267680
       7A    -11.262847     8A    -11.250021     9A    -11.231807
      10A    -11.221418    11A     -8.974039    12A     -6.655192
      13A     -6.654063    14A     -6.653449    15A     -1.397507
      16A     -1.384075    17A     -1.094181    18A     -1.077404
      19A     -1.043901    20A     -0.972497    21A     -0.895958
      22A     -0.837789    23A     -0.759434    24A     -0.727013
      25A     -0.678262    26A     -0.668355    27A     -0.648491
      28A     -0.637213    29A     -0.633687    30A     -0.608516
      31A     -0.595394    32A     -0.560030    33A     -0.547752
      34A     -0.533930    35A     -0.527244    36A     -0.520815
      37A     -0.511577    38A     -0.504126    39A     -0.487011
      40A     -0.465568    41A     -0.429731    42A     -0.406747
      43A     -0.371424

  @DF-RHF Final Energy:  -819.49440130031371

   => Energetics <=

    Nuclear Repulsion Energy =            603.4150540552316215
    One-Electron Energy =               -2322.8330577137835462
    Two-Electron Energy =                 899.9236023582382131
    Total Energy =                       -819.4944013003137115
  Basis Set: (AUG-CC-PVTZ AUX)
    Blend: AUG-CC-PVTZ-RI
    Molecular point group: c1

    Geometry (in Angstrom), charge = 0, multiplicity = 1:

       Center              X                  Y                   Z               Mass
    ------------   -----------------  -----------------  -----------------  -----------------
         S            1.815699051790     0.723445456658    -0.340472428645    31.972071174400
         O           -1.852328348210    -0.934915943342    -0.800567528645    15.994914619570
         O            0.495638051790    -1.060998543342     1.115315571355    15.994914619570
         C           -0.825861948210     0.834317456658     0.476287571355    12.000000000000
         C           -3.387262048210     0.586713356658     0.230884071355    12.000000000000
         C           -2.008167948210     0.052958456658    -0.094362428645    12.000000000000
         C            0.434073051790    -0.003105543342     0.509061571355    12.000000000000
         C           -4.510204948210    -0.278606543342    -0.283793428645    12.000000000000
         C            3.059099051790    -0.555777543342    -0.007566428645    12.000000000000
         C            4.444755051790    -0.046072543342    -0.373365428645    12.000000000000
         H           -0.692735948210     1.746757456658    -0.119541428645     1.007825032230
         H           -1.045948948210     1.151444456658     1.502344571355     1.007825032230
         H           -3.451336948210     0.724358456658     1.326131571355     1.007825032230
         H           -3.442794948210     1.611970456658    -0.181964428645     1.007825032230
         H           -5.480410948210     0.166593456658    -0.049427428645     1.007825032230
         H           -4.431218948210    -0.402730543342    -1.365444428645     1.007825032230
         H           -4.464690948210    -1.272473543342     0.167552571355     1.007825032230
         H            2.997928051790    -0.807863543342     1.050672571355     1.007825032230
         H            2.803979051790    -1.452192543342    -0.575309428645     1.007825032230
         H            4.502781051790     0.225353456658    -1.430413428645     1.007825032230
         H            4.710104051790     0.830532456658     0.222086571355     1.007825032230
         H            5.187631051790    -0.825714543342    -0.184030428645     1.007825032230

  Basis Set: AUG-CC-PVTZ
    Blend: AUG-CC-PVTZ
  Basis Set: (AUG-CC-PVTZ AUX)
    Blend: AUG-CC-PVTZ-JKFIT
	 Reference Energy          =    -819.4944013003137115 [Eh]
	 Singles Energy            =      -0.0000000000000000 [Eh]
	 Same-Spin Energy          =      -0.4842976911933861 [Eh]
	 Opposite-Spin Energy      =      -1.5711217759226035 [Eh]
	 Correlation Energy        =      -2.0554194671159896 [Eh]
	 Total Energy              =    -821.5498207674296509 [Eh]

	 ================> DF-SCS-MP2 Energies <==================
	-----------------------------------------------------------
	 SCS Same-Spin Scale       =       0.3333333333333333 [-]
	 SCS Opposite-Spin Scale   =       1.2000000000000000 [-]
	 SCS Same-Spin Energy      =      -0.1614325637311287 [Eh]
	 SCS Opposite-Spin Energy  =      -1.8853461311071240 [Eh]
	 SCS Correlation Energy    =      -2.0467786948382525 [Eh]
	 SCS Total Energy          =    -821.5411799951519924 [Eh]
	-----------------------------------------------------------

  Dipole Moment: [D]
     X:     0.0377      Y:     2.8357      Z:     0.6852     Total:     2.9175

*** Psi4 exiting successfully. Buy a developer a beer!
