                               Psi4 1.4a3.dev225

  ==> Input File <==

--------------------------------------------------------------------------
#psi4
#
memory 32 gb

molecule  {
0 1
  S        1.5586770    -0.2994370    -0.7152220
  O       -1.5255240    -0.4876820     1.0921970
  O        0.7924220     1.7006740     0.8461850
  C       -0.8878030     0.9736540    -0.7120840
  C       -3.2304390    -0.0998550    -0.5631210
  C       -1.8542380     0.0638590     0.0480780
  C        0.4791140     0.9485020    -0.0654040
  C       -4.1634610    -0.9398430     0.2972900
  C        2.9497330    -0.0790050     0.4324980
  C        4.0540790    -1.0751370     0.1033520
  H       -0.8502545     0.6892411    -1.7187894
  H       -1.2645150     2.0025910    -0.6674260
  H       -3.6447290     0.9013370    -0.7419330
  H       -3.1015980    -0.5455960    -1.5588690
  H       -5.1413450    -1.0357370    -0.1813640
  H       -3.7504260    -1.9381500     0.4523140
  H       -4.2995020    -0.4825820     1.2793320
  H        3.3022180     0.9509290     0.3487650
  H        2.5726230    -0.2199470     1.4475820
  H        3.7004310    -2.1050230     0.1947960
  H        4.4320470    -0.9299840    -0.9117720
  H        4.8873260    -0.9394890     0.7982930
units angstrom
no_reorient  #important for SAPT in psi4, default
symmetry c1  #important for SAPT in psi4, default
}

set PROPERTIES_ORIGIN ["COM"]
properties('MP2/aug-cc-pvtz', properties = ['dipole'])
--------------------------------------------------------------------------

    Molecular point group: c1
  Charge       = 0
  Multiplicity = 1
  Basis Set: AUG-CC-PVTZ
    Blend: AUG-CC-PVTZ
  Basis Set: (AUG-CC-PVTZ AUX)
    Blend: AUG-CC-PVTZ-JKFIT

    Orbital Energies [Eh]
    ---------------------

    Doubly Occupied:

       1A    -91.968420     2A    -20.558961     3A    -20.554620
       4A    -11.365017     5A    -11.349575     6A    -11.261674
       7A    -11.260636     8A    -11.252499     9A    -11.230091
      10A    -11.224611    11A     -8.970219    12A     -6.651416
      13A     -6.650273    14A     -6.649636    15A     -1.396529
      16A     -1.385303    17A     -1.094729    18A     -1.077524
      19A     -1.045182    20A     -0.970138    21A     -0.898031
      22A     -0.836368    23A     -0.760810    24A     -0.729736
      25A     -0.680427    26A     -0.671709    27A     -0.649107
      28A     -0.636683    29A     -0.632461    30A     -0.611775
      31A     -0.593902    32A     -0.559953    33A     -0.546656
      34A     -0.530888    35A     -0.526361    36A     -0.522331
      37A     -0.513780    38A     -0.504359    39A     -0.493950
      40A     -0.462702    41A     -0.432148    42A     -0.406421
      43A     -0.368116

  @DF-RHF Final Energy:  -819.49492773067641

   => Energetics <=

    Nuclear Repulsion Energy =            610.4872288945226728
    One-Electron Energy =               -2336.9928628007883162
    Two-Electron Energy =                 907.0107061755893483
    Total Energy =                       -819.4949277306764088
  Basis Set: (AUG-CC-PVTZ AUX)
    Blend: AUG-CC-PVTZ-RI
    Molecular point group: c1

    Geometry (in Angstrom), charge = 0, multiplicity = 1:

       Center              X                  Y                   Z               Mass
    ------------   -----------------  -----------------  -----------------  -----------------
         S            1.539373642839    -0.322261491549    -0.723690985314    31.972071174400
         O           -1.544827357161    -0.510506491549     1.083728014686    15.994914619570
         O            0.773118642839     1.677849508451     0.837716014686    15.994914619570
         C           -0.907106357161     0.950829508451    -0.720552985314    12.000000000000
         C           -3.249742357161    -0.122679491549    -0.571589985314    12.000000000000
         C           -1.873541357161     0.041034508451     0.039609014686    12.000000000000
         C            0.459810642839     0.925677508451    -0.073872985314    12.000000000000
         C           -4.182764357161    -0.962667491549     0.288821014686    12.000000000000
         C            2.930429642839    -0.101829491549     0.424029014686    12.000000000000
         C            4.034775642839    -1.097961491549     0.094883014686    12.000000000000
         H           -0.869557857161     0.666416608451    -1.727258385314     1.007825032230
         H           -1.283818357161     1.979766508451    -0.675894985314     1.007825032230
         H           -3.664032357161     0.878512508451    -0.750401985314     1.007825032230
         H           -3.120901357161    -0.568420491549    -1.567337985314     1.007825032230
         H           -5.160648357161    -1.058561491549    -0.189832985314     1.007825032230
         H           -3.769729357161    -1.960974491549     0.443845014686     1.007825032230
         H           -4.318805357161    -0.505406491549     1.270863014686     1.007825032230
         H            3.282914642839     0.928104508451     0.340296014686     1.007825032230
         H            2.553319642839    -0.242771491549     1.439113014686     1.007825032230
         H            3.681127642839    -2.127847491549     0.186327014686     1.007825032230
         H            4.412743642839    -0.952808491549    -0.920240985314     1.007825032230
         H            4.868022642839    -0.962313491549     0.789824014686     1.007825032230

  Basis Set: AUG-CC-PVTZ
    Blend: AUG-CC-PVTZ
  Basis Set: (AUG-CC-PVTZ AUX)
    Blend: AUG-CC-PVTZ-JKFIT
	 Reference Energy          =    -819.4949277306764088 [Eh]
	 Singles Energy            =      -0.0000000000000000 [Eh]
	 Same-Spin Energy          =      -0.4844735586388788 [Eh]
	 Opposite-Spin Energy      =      -1.5710497426756682 [Eh]
	 Correlation Energy        =      -2.0555233013145471 [Eh]
	 Total Energy              =    -821.5504510319909741 [Eh]

	 ================> DF-SCS-MP2 Energies <==================
	-----------------------------------------------------------
	 SCS Same-Spin Scale       =       0.3333333333333333 [-]
	 SCS Opposite-Spin Scale   =       1.2000000000000000 [-]
	 SCS Same-Spin Energy      =      -0.1614911862129596 [Eh]
	 SCS Opposite-Spin Energy  =      -1.8852596912108017 [Eh]
	 SCS Correlation Energy    =      -2.0467508774237615 [Eh]
	 SCS Total Energy          =    -821.5416786081001419 [Eh]
	-----------------------------------------------------------

  Dipole Moment: [D]
     X:    -0.7573      Y:    -0.2160      Z:    -2.6947     Total:     2.8074

*** Psi4 exiting successfully. Buy a developer a beer!
