                               Psi4 1.3.2 release

  ==> Input File <==

--------------------------------------------------------------------------
#psi4
#
memory 32 gb

molecule  {
0 1
  S        1.8142300     0.7226310    -0.3411240
  O       -1.8432130    -0.9348080    -0.8000930
  O        0.4941690    -1.0618130     1.1146640
  C       -0.8273310     0.8335030     0.4756360
  C       -3.3832440     0.5955310     0.2374230
  C       -2.0251443     0.0735626    -0.0915894
  C        0.4456642     0.0165524     0.5187929
  C       -4.5116740    -0.2794210    -0.2844450
  C        3.0576300    -0.5565920    -0.0082180
  C        4.4432860    -0.0468870    -0.3740170
  H       -0.6942050     1.7459430    -0.1201930
  H       -1.0474180     1.1506300     1.5016930
  H       -3.4528060     0.7235440     1.3254800
  H       -3.4442640     1.6111560    -0.1826160
  H       -5.4818800     0.1657790    -0.0500790
  H       -4.4326880    -0.4035450    -1.3660960
  H       -4.4661600    -1.2732880     0.1669010
  H        2.9964590    -0.8086780     1.0500210
  H        2.8025100    -1.4530070    -0.5759610
  H        4.5013120     0.2245390    -1.4310650
  H        4.7086350     0.8297180     0.2214350
  H        5.1861620    -0.8265290    -0.1846820
units angstrom
no_reorient  #important for SAPT in psi4, default
symmetry c1  #important for SAPT in psi4, default
}

set PROPERTIES_ORIGIN ["COM"]
properties('MP2/aug-cc-pvtz', properties = ['dipole'])
--------------------------------------------------------------------------

    Molecular point group: c1
  Charge       = 0
  Multiplicity = 1
  Basis Set: AUG-CC-PVTZ
    Blend: AUG-CC-PVTZ
  Basis Set: (AUG-CC-PVTZ AUX)
    Blend: AUG-CC-PVTZ-JKFIT

    Orbital Energies [Eh]
    ---------------------

    Doubly Occupied:

       1A    -91.974201     2A    -20.553112     3A    -20.552723
       4A    -11.367743     5A    -11.347553     6A    -11.267455
       7A    -11.263516     8A    -11.250899     9A    -11.232295
      10A    -11.223177    11A     -8.975948    12A     -6.657123
      13A     -6.655968    14A     -6.655367    15A     -1.386468
      16A     -1.370298    17A     -1.095808    18A     -1.080178
      19A     -1.043941    20A     -0.974746    21A     -0.900134
      22A     -0.839551    23A     -0.760891    24A     -0.724740
      25A     -0.675762    26A     -0.667777    27A     -0.645512
      28A     -0.637610    29A     -0.634596    30A     -0.602982
      31A     -0.594819    32A     -0.558881    33A     -0.545815
      34A     -0.531572    35A     -0.526336    36A     -0.520341
      37A     -0.511199    38A     -0.503102    39A     -0.481114
      40A     -0.465532    41A     -0.430439    42A     -0.410133
      43A     -0.372185

  @DF-RHF Final Energy:  -819.48953082975765

   => Energetics <=

    Nuclear Repulsion Energy =            603.0975589035273288
    One-Electron Energy =               -2322.2350971889909488
    Two-Electron Energy =                 899.6480074557058515
    Total Energy =                       -819.4895308297576548
  Basis Set: (AUG-CC-PVTZ AUX)
    Blend: AUG-CC-PVTZ-RI
    Molecular point group: c1

    Geometry (in Angstrom), charge = 0, multiplicity = 1:

       Center              X                  Y                   Z               Mass
    ------------   -----------------  -----------------  -----------------  -----------------
         S            1.814413396579     0.719490392823    -0.342159264561    31.972071174400
         O           -1.843029603421    -0.937948607177    -0.801128264561    15.994914619570
         O            0.494352396579    -1.064953607177     1.113628735439    15.994914619570
         C           -0.827147603421     0.830362392823     0.474600735439    12.000000000000
         C           -3.383060603421     0.592390392823     0.236387735439    12.000000000000
         C           -2.024960903421     0.070421992823    -0.092624664561    12.000000000000
         C            0.445847596579     0.013411792823     0.517757635439    12.000000000000
         C           -4.511490603421    -0.282561607177    -0.285480264561    12.000000000000
         C            3.057813396579    -0.559732607177    -0.009253264561    12.000000000000
         C            4.443469396579    -0.050027607177    -0.375052264561    12.000000000000
         H           -0.694021603421     1.742802392823    -0.121228264561     1.007825032230
         H           -1.047234603421     1.147489392823     1.500657735439     1.007825032230
         H           -3.452622603421     0.720403392823     1.324444735439     1.007825032230
         H           -3.444080603421     1.608015392823    -0.183651264561     1.007825032230
         H           -5.481696603421     0.162638392823    -0.051114264561     1.007825032230
         H           -4.432504603421    -0.406685607177    -1.367131264561     1.007825032230
         H           -4.465976603421    -1.276428607177     0.165865735439     1.007825032230
         H            2.996642396579    -0.811818607177     1.048985735439     1.007825032230
         H            2.802693396579    -1.456147607177    -0.576996264561     1.007825032230
         H            4.501495396579     0.221398392823    -1.432100264561     1.007825032230
         H            4.708818396579     0.826577392823     0.220399735439     1.007825032230
         H            5.186345396579    -0.829669607177    -0.185717264561     1.007825032230

  Basis Set: AUG-CC-PVTZ
    Blend: AUG-CC-PVTZ
  Basis Set: (AUG-CC-PVTZ AUX)
    Blend: AUG-CC-PVTZ-JKFIT
	 Reference Energy          =    -819.4895308297576548 [Eh]
	 Singles Energy            =      -0.0000000000000000 [Eh]
	 Same-Spin Energy          =      -0.4852612601464947 [Eh]
	 Opposite-Spin Energy      =      -1.5732052738996878 [Eh]
	 Correlation Energy        =      -2.0584665340461825 [Eh]
	 Total Energy              =    -821.5479973638038018 [Eh]

	 ================> DF-SCS-MP2 Energies <==================
	-----------------------------------------------------------
	 SCS Same-Spin Scale       =       0.3333333333333333 [-]
	 SCS Opposite-Spin Scale   =       1.2000000000000000 [-]
	 SCS Same-Spin Energy      =      -0.1617537533821649 [Eh]
	 SCS Opposite-Spin Energy  =      -1.8878463286796252 [Eh]
	 SCS Correlation Energy    =      -2.0496000820617901 [Eh]
	 SCS Total Energy          =    -821.5391309118194840 [Eh]
	-----------------------------------------------------------

  Dipole Moment: [D]
     X:     0.0342      Y:     2.9453      Z:     0.6640     Total:     3.0194

*** Psi4 exiting successfully. Buy a developer a beer!
