                               Psi4 1.3.2 release

  ==> Input File <==

--------------------------------------------------------------------------
#psi4
#
memory 32 gb

molecule  {
0 1
  S        1.8142300     0.7226310    -0.3411240
  O       -1.8432130    -0.9348080    -0.8000930
  O        0.4941690    -1.0618130     1.1146640
  C       -0.8273310     0.8335030     0.4756360
  C       -3.3832440     0.5955310     0.2374230
  C       -2.0096370     0.0521440    -0.0950140
  C        0.3814500     0.0694982     0.4829110
  C       -4.5116740    -0.2794210    -0.2844450
  C        3.1203554    -0.5048964    -0.0574088
  C        4.4432860    -0.0468870    -0.3740170
  H       -0.6942050     1.7459430    -0.1201930
  H       -1.0474180     1.1506300     1.5016930
  H       -3.4528060     0.7235440     1.3254800
  H       -3.4442640     1.6111560    -0.1826160
  H       -5.4818800     0.1657790    -0.0500790
  H       -4.4326880    -0.4035450    -1.3660960
  H       -4.4661600    -1.2732880     0.1669010
  H        2.9964590    -0.8086780     1.0500210
  H        2.8025100    -1.4530070    -0.5759610
  H        4.5013120     0.2245390    -1.4310650
  H        4.7086350     0.8297180     0.2214350
  H        5.1861620    -0.8265290    -0.1846820
units angstrom
no_reorient  #important for SAPT in psi4, default
symmetry c1  #important for SAPT in psi4, default
}

set PROPERTIES_ORIGIN ["COM"]
properties('MP2/aug-cc-pvtz', properties = ['dipole'])
--------------------------------------------------------------------------

    Molecular point group: c1
  Charge       = 0
  Multiplicity = 1
  Basis Set: AUG-CC-PVTZ
    Blend: AUG-CC-PVTZ
  Basis Set: (AUG-CC-PVTZ AUX)
    Blend: AUG-CC-PVTZ-JKFIT

    Orbital Energies [Eh]
    ---------------------

    Doubly Occupied:

       1A    -91.976371     2A    -20.558695     3A    -20.546241
       4A    -11.373966     5A    -11.350696     6A    -11.269170
       7A    -11.268890     8A    -11.252732     9A    -11.229541
      10A    -11.224052    11A     -8.977506    12A     -6.658634
      13A     -6.657733    14A     -6.657107    15A     -1.392899
      16A     -1.339693    17A     -1.105824    18A     -1.088491
      19A     -1.055717    20A     -0.981073    21A     -0.902896
      22A     -0.832340    23A     -0.766112    24A     -0.727980
      25A     -0.682037    26A     -0.672974    27A     -0.645440
      28A     -0.633713    29A     -0.632510    30A     -0.610146
      31A     -0.595891    32A     -0.561313    33A     -0.549198
      34A     -0.537326    35A     -0.525947    36A     -0.519149
      37A     -0.507323    38A     -0.493645    39A     -0.477845
      40A     -0.458144    41A     -0.429829    42A     -0.410341
      43A     -0.365790

  @DF-RHF Final Energy:  -819.46238340496234

   => Energetics <=

    Nuclear Repulsion Energy =            603.1821702701078038
    One-Electron Energy =               -2322.2832682020139146
    Two-Electron Energy =                 899.6387145269438861
    Total Energy =                       -819.4623834049623383
  Basis Set: (AUG-CC-PVTZ AUX)
    Blend: AUG-CC-PVTZ-RI
    Molecular point group: c1

    Geometry (in Angstrom), charge = 0, multiplicity = 1:

       Center              X                  Y                   Z               Mass
    ------------   -----------------  -----------------  -----------------  -----------------
         S            1.813362375628     0.713250858892    -0.335524281044    31.972071174400
         O           -1.844080624372    -0.944188141108    -0.794493281044    15.994914619570
         O            0.493301375628    -1.071193141108     1.120263718956    15.994914619570
         C           -0.828198624372     0.824122858892     0.481235718956    12.000000000000
         C           -3.384111624372     0.586150858892     0.243022718956    12.000000000000
         C           -2.010504624372     0.042763858892    -0.089414281044    12.000000000000
         C            0.380582375628     0.060118058892     0.488510718956    12.000000000000
         C           -4.512541624372    -0.288801141108    -0.278845281044    12.000000000000
         C            3.119487775628    -0.514276541108    -0.051809081044    12.000000000000
         C            4.442418375628    -0.056267141108    -0.368417281044    12.000000000000
         H           -0.695072624372     1.736562858892    -0.114593281044     1.007825032230
         H           -1.048285624372     1.141249858892     1.507292718956     1.007825032230
         H           -3.453673624372     0.714163858892     1.331079718956     1.007825032230
         H           -3.445131624372     1.601775858892    -0.177016281044     1.007825032230
         H           -5.482747624372     0.156398858892    -0.044479281044     1.007825032230
         H           -4.433555624372    -0.412925141108    -1.360496281044     1.007825032230
         H           -4.467027624372    -1.282668141108     0.172500718956     1.007825032230
         H            2.995591375628    -0.818058141108     1.055620718956     1.007825032230
         H            2.801642375628    -1.462387141108    -0.570361281044     1.007825032230
         H            4.500444375628     0.215158858892    -1.425465281044     1.007825032230
         H            4.707767375628     0.820337858892     0.227034718956     1.007825032230
         H            5.185294375628    -0.835909141108    -0.179082281044     1.007825032230

  Basis Set: AUG-CC-PVTZ
    Blend: AUG-CC-PVTZ
  Basis Set: (AUG-CC-PVTZ AUX)
    Blend: AUG-CC-PVTZ-JKFIT
	 Reference Energy          =    -819.4623834049623383 [Eh]
	 Singles Energy            =      -0.0000000000000000 [Eh]
	 Same-Spin Energy          =      -0.4880216428946135 [Eh]
	 Opposite-Spin Energy      =      -1.5776157800479043 [Eh]
	 Correlation Energy        =      -2.0656374229425176 [Eh]
	 Total Energy              =    -821.5280208279048111 [Eh]

	 ================> DF-SCS-MP2 Energies <==================
	-----------------------------------------------------------
	 SCS Same-Spin Scale       =       0.3333333333333333 [-]
	 SCS Opposite-Spin Scale   =       1.2000000000000000 [-]
	 SCS Same-Spin Energy      =      -0.1626738809648711 [Eh]
	 SCS Opposite-Spin Energy  =      -1.8931389360574851 [Eh]
	 SCS Correlation Energy    =      -2.0558128170223564 [Eh]
	 SCS Total Energy          =    -821.5181962219846810 [Eh]
	-----------------------------------------------------------

  Dipole Moment: [D]
     X:    -0.0699      Y:     3.0289      Z:     0.5430     Total:     3.0780

*** Psi4 exiting successfully. Buy a developer a beer!
