                               Psi4 1.3.2 release

  ==> Input File <==

--------------------------------------------------------------------------
#psi4
#
memory 32 gb

molecule  {
0 1
  S        1.8142300     0.7226310    -0.3411240
  O       -1.8432130    -0.9348080    -0.8000930
  O        0.4941690    -1.0618130     1.1146640
  C       -0.8273310     0.8335030     0.4756360
  C       -3.3832440     0.5955310     0.2374230
  C       -1.9960436    -0.0284697    -0.1526044
  C        0.4326040    -0.0039200     0.5084100
  C       -4.5116740    -0.2794210    -0.2844450
  C        3.0576300    -0.5565920    -0.0082180
  C        4.4432860    -0.0468870    -0.3740170
  H       -0.6942050     1.7459430    -0.1201930
  H       -1.0474180     1.1506300     1.5016930
  H       -3.4528060     0.7235440     1.3254800
  H       -3.4442640     1.6111560    -0.1826160
  H       -5.4818800     0.1657790    -0.0500790
  H       -4.4326880    -0.4035450    -1.3660960
  H       -4.4661600    -1.2732880     0.1669010
  H        2.9964590    -0.8086780     1.0500210
  H        2.8025100    -1.4530070    -0.5759610
  H        4.5013120     0.2245390    -1.4310650
  H        4.7086350     0.8297180     0.2214350
  H        5.1861620    -0.8265290    -0.1846820
units angstrom
no_reorient  #important for SAPT in psi4, default
symmetry c1  #important for SAPT in psi4, default
}

set PROPERTIES_ORIGIN ["COM"]
properties('MP2/aug-cc-pvtz', properties = ['dipole'])
--------------------------------------------------------------------------

    Molecular point group: c1
  Charge       = 0
  Multiplicity = 1
  Basis Set: AUG-CC-PVTZ
    Blend: AUG-CC-PVTZ
  Basis Set: (AUG-CC-PVTZ AUX)
    Blend: AUG-CC-PVTZ-JKFIT

    Orbital Energies [Eh]
    ---------------------

    Doubly Occupied:

       1A    -91.970067     2A    -20.564949     3A    -20.553415
       4A    -11.363926     5A    -11.339502     6A    -11.261338
       7A    -11.259907     8A    -11.245245     9A    -11.230756
      10A    -11.220127    11A     -8.971731    12A     -6.652882
      13A     -6.651745    14A     -6.651139    15A     -1.464751
      16A     -1.390948    17A     -1.089890    18A     -1.066268
      19A     -1.035635    20A     -0.967432    21A     -0.884452
      22A     -0.834427    23A     -0.755911    24A     -0.729447
      25A     -0.691080    26A     -0.667346    27A     -0.653816
      28A     -0.638109    29A     -0.633616    30A     -0.622781
      31A     -0.591499    32A     -0.560825    33A     -0.553612
      34A     -0.540849    35A     -0.533910    36A     -0.522573
      37A     -0.518229    38A     -0.505135    39A     -0.500551
      40A     -0.464278    41A     -0.421534    42A     -0.391082
      43A     -0.369463

  @DF-RHF Final Energy:  -819.48679239646583

   => Energetics <=

    Nuclear Repulsion Energy =            604.3142741866117831
    One-Electron Energy =               -2324.5297765264790542
    Two-Electron Energy =                 900.7287099434014408
    Total Energy =                       -819.4867923964658303
  Basis Set: (AUG-CC-PVTZ AUX)
    Blend: AUG-CC-PVTZ-RI
    Molecular point group: c1

    Geometry (in Angstrom), charge = 0, multiplicity = 1:

       Center              X                  Y                   Z               Mass
    ------------   -----------------  -----------------  -----------------  -----------------
         S            1.813210778498     0.728675042131    -0.336806288938    31.972071174400
         O           -1.844232221502    -0.928763957869    -0.795775288938    15.994914619570
         O            0.493149778498    -1.055768957869     1.118981711062    15.994914619570
         C           -0.828350221502     0.839547042131     0.479953711062    12.000000000000
         C           -3.384263221502     0.601575042131     0.241740711062    12.000000000000
         C           -1.997062821502    -0.022425657869    -0.148286688938    12.000000000000
         C            0.431584778498     0.002124042131     0.512727711062    12.000000000000
         C           -4.512693221502    -0.273376957869    -0.280127288938    12.000000000000
         C            3.056610778498    -0.550547957869    -0.003900288938    12.000000000000
         C            4.442266778498    -0.040842957869    -0.369699288938    12.000000000000
         H           -0.695224221502     1.751987042131    -0.115875288938     1.007825032230
         H           -1.048437221502     1.156674042131     1.506010711062     1.007825032230
         H           -3.453825221502     0.729588042131     1.329797711062     1.007825032230
         H           -3.445283221502     1.617200042131    -0.178298288938     1.007825032230
         H           -5.482899221502     0.171823042131    -0.045761288938     1.007825032230
         H           -4.433707221502    -0.397500957869    -1.361778288938     1.007825032230
         H           -4.467179221502    -1.267243957869     0.171218711062     1.007825032230
         H            2.995439778498    -0.802633957869     1.054338711062     1.007825032230
         H            2.801490778498    -1.446962957869    -0.571643288938     1.007825032230
         H            4.500292778498     0.230583042131    -1.426747288938     1.007825032230
         H            4.707615778498     0.835762042131     0.225752711062     1.007825032230
         H            5.185142778498    -0.820484957869    -0.180364288938     1.007825032230

  Basis Set: AUG-CC-PVTZ
    Blend: AUG-CC-PVTZ
  Basis Set: (AUG-CC-PVTZ AUX)
    Blend: AUG-CC-PVTZ-JKFIT
	 Reference Energy          =    -819.4867923964658303 [Eh]
	 Singles Energy            =      -0.0000000000000000 [Eh]
	 Same-Spin Energy          =      -0.4818149708830242 [Eh]
	 Opposite-Spin Energy      =      -1.5656340355004930 [Eh]
	 Correlation Energy        =      -2.0474490063835171 [Eh]
	 Total Energy              =    -821.5342414028493749 [Eh]

	 ================> DF-SCS-MP2 Energies <==================
	-----------------------------------------------------------
	 SCS Same-Spin Scale       =       0.3333333333333333 [-]
	 SCS Opposite-Spin Scale   =       1.2000000000000000 [-]
	 SCS Same-Spin Energy      =      -0.1606049902943414 [Eh]
	 SCS Opposite-Spin Energy  =      -1.8787608426005915 [Eh]
	 SCS Correlation Energy    =      -2.0393658328949327 [Eh]
	 SCS Total Energy          =    -821.5261582293608171 [Eh]
	-----------------------------------------------------------

  Dipole Moment: [D]
     X:    -0.0724      Y:     2.4880      Z:     0.4164     Total:     2.5236

*** Psi4 exiting successfully. Buy a developer a beer!
