                               Psi4 1.4a3.dev225

  ==> Input File <==

--------------------------------------------------------------------------
#psi4
#
memory 32 gb

molecule  {
0 1
  S        1.5586770    -0.2994370    -0.7152220
  O       -1.5255240    -0.4876820     1.0921970
  O        0.7924220     1.7006740     0.8461850
  C       -0.8878030     0.9736540    -0.7120840
  C       -3.2304390    -0.0998550    -0.5631210
  C       -1.8542380     0.0638590     0.0480780
  C        0.4791140     0.9485020    -0.0654040
  C       -4.1634610    -0.9398430     0.2972900
  C        2.9497330    -0.0790050     0.4324980
  C        4.0540790    -1.0751370     0.1033520
  H       -0.8484610     0.6756560    -1.7668750
  H       -1.2645150     2.0025910    -0.6674260
  H       -3.6447290     0.9013370    -0.7419330
  H       -3.1015980    -0.5455960    -1.5588690
  H       -5.1413450    -1.0357370    -0.1813640
  H       -3.7504260    -1.9381500     0.4523140
  H       -4.2995020    -0.4825820     1.2793320
  H        3.3022180     0.9509290     0.3487650
  H        2.5898899    -0.2134936     1.4011040
  H        3.7004310    -2.1050230     0.1947960
  H        4.4320470    -0.9299840    -0.9117720
  H        4.8873260    -0.9394890     0.7982930
units angstrom
no_reorient  #important for SAPT in psi4, default
symmetry c1  #important for SAPT in psi4, default
}

set PROPERTIES_ORIGIN ["COM"]
properties('MP2/aug-cc-pvtz', properties = ['dipole'])
--------------------------------------------------------------------------

    Molecular point group: c1
  Charge       = 0
  Multiplicity = 1
  Basis Set: AUG-CC-PVTZ
    Blend: AUG-CC-PVTZ
  Basis Set: (AUG-CC-PVTZ AUX)
    Blend: AUG-CC-PVTZ-JKFIT

    Orbital Energies [Eh]
    ---------------------

    Doubly Occupied:

       1A    -91.968108     2A    -20.559208     3A    -20.554998
       4A    -11.365455     5A    -11.349881     6A    -11.266361
       7A    -11.255996     8A    -11.252386     9A    -11.229836
      10A    -11.224541    11A     -8.969922    12A     -6.651116
      13A     -6.649973    14A     -6.649336    15A     -1.396816
      16A     -1.385624    17A     -1.094142    18A     -1.077916
      19A     -1.043870    20A     -0.969751    21A     -0.897915
      22A     -0.840375    23A     -0.761804    24A     -0.727126
      25A     -0.678443    26A     -0.670328    27A     -0.649338
      28A     -0.637117    29A     -0.636569    30A     -0.610774
      31A     -0.591065    32A     -0.559901    33A     -0.546034
      34A     -0.531557    35A     -0.526911    36A     -0.522432
      37A     -0.512827    38A     -0.507024    39A     -0.493983
      40A     -0.463196    41A     -0.432227    42A     -0.406589
      43A     -0.368477

  @DF-RHF Final Energy:  -819.49487343442240

   => Energetics <=

    Nuclear Repulsion Energy =            610.4612794387730901
    One-Electron Energy =               -2336.9378101975262325
    Two-Electron Energy =                 906.9816573243307403
    Total Energy =                       -819.4948734344224022
  Basis Set: (AUG-CC-PVTZ AUX)
    Blend: AUG-CC-PVTZ-RI
    Molecular point group: c1

    Geometry (in Angstrom), charge = 0, multiplicity = 1:

       Center              X                  Y                   Z               Mass
    ------------   -----------------  -----------------  -----------------  -----------------
         S            1.539253625020    -0.322216585299    -0.723095545706    31.972071174400
         O           -1.544947374980    -0.510461585299     1.084323454294    15.994914619570
         O            0.772998625020     1.677894414701     0.838311454294    15.994914619570
         C           -0.907226374980     0.950874414701    -0.719957545706    12.000000000000
         C           -3.249862374980    -0.122634585299    -0.570994545706    12.000000000000
         C           -1.873661374980     0.041079414701     0.040204454294    12.000000000000
         C            0.459690625020     0.925722414701    -0.073277545706    12.000000000000
         C           -4.182884374980    -0.962622585299     0.289416454294    12.000000000000
         C            2.930309625020    -0.101784585299     0.424624454294    12.000000000000
         C            4.034655625020    -1.097916585299     0.095478454294    12.000000000000
         H           -0.867884374980     0.652876414701    -1.774748545706     1.007825032230
         H           -1.283938374980     1.979811414701    -0.675299545706     1.007825032230
         H           -3.664152374980     0.878557414701    -0.749806545706     1.007825032230
         H           -3.121021374980    -0.568375585299    -1.566742545706     1.007825032230
         H           -5.160768374980    -1.058516585299    -0.189237545706     1.007825032230
         H           -3.769849374980    -1.960929585299     0.444440454294     1.007825032230
         H           -4.318925374980    -0.505361585299     1.271458454294     1.007825032230
         H            3.282794625020     0.928149414701     0.340891454294     1.007825032230
         H            2.570466525020    -0.236273185299     1.393230454294     1.007825032230
         H            3.681007625020    -2.127802585299     0.186922454294     1.007825032230
         H            4.412623625020    -0.952763585299    -0.919645545706     1.007825032230
         H            4.867902625020    -0.962268585299     0.790419454294     1.007825032230

  Basis Set: AUG-CC-PVTZ
    Blend: AUG-CC-PVTZ
  Basis Set: (AUG-CC-PVTZ AUX)
    Blend: AUG-CC-PVTZ-JKFIT
	 Reference Energy          =    -819.4948734344224022 [Eh]
	 Singles Energy            =      -0.0000000000000000 [Eh]
	 Same-Spin Energy          =      -0.4844531580412678 [Eh]
	 Opposite-Spin Energy      =      -1.5710478538612964 [Eh]
	 Correlation Energy        =      -2.0555010119025643 [Eh]
	 Total Energy              =    -821.5503744463250086 [Eh]

	 ================> DF-SCS-MP2 Energies <==================
	-----------------------------------------------------------
	 SCS Same-Spin Scale       =       0.3333333333333333 [-]
	 SCS Opposite-Spin Scale   =       1.2000000000000000 [-]
	 SCS Same-Spin Energy      =      -0.1614843860137559 [Eh]
	 SCS Opposite-Spin Energy  =      -1.8852574246335556 [Eh]
	 SCS Correlation Energy    =      -2.0467418106473114 [Eh]
	 SCS Total Energy          =    -821.5416152450696927 [Eh]
	-----------------------------------------------------------

  Dipole Moment: [D]
     X:    -0.7497      Y:    -0.2133      Z:    -2.6801     Total:     2.7912

*** Psi4 exiting successfully. Buy a developer a beer!
