                               Psi4 1.4a3.dev225

  ==> Input File <==

--------------------------------------------------------------------------
#psi4
#
memory 32 gb

molecule  {
0 1
  S        1.5586770    -0.2994370    -0.7152220
  O       -1.5255240    -0.4876820     1.0921970
  O        0.7924220     1.7006740     0.8461850
  C       -0.8878030     0.9736540    -0.7120840
  C       -3.2304390    -0.0998550    -0.5631210
  C       -1.8360667     0.0660207     0.0561483
  C        0.4791140     0.9485020    -0.0654040
  C       -4.1634610    -0.9398430     0.2972900
  C        2.9497330    -0.0790050     0.4324980
  C        4.0540790    -1.0751370     0.1033520
  H       -0.8484610     0.6756560    -1.7668750
  H       -1.2645150     2.0025910    -0.6674260
  H       -3.6447290     0.9013370    -0.7419330
  H       -3.1015980    -0.5455960    -1.5588690
  H       -5.1413450    -1.0357370    -0.1813640
  H       -3.7504260    -1.9381500     0.4523140
  H       -4.2995020    -0.4825820     1.2793320
  H        3.3022180     0.9509290     0.3487650
  H        2.5726230    -0.2199470     1.4475820
  H        3.7004310    -2.1050230     0.1947960
  H        4.4320470    -0.9299840    -0.9117720
  H        4.8873260    -0.9394890     0.7982930
units angstrom
no_reorient  #important for SAPT in psi4, default
symmetry c1  #important for SAPT in psi4, default
}

set PROPERTIES_ORIGIN ["COM"]
properties('MP2/aug-cc-pvtz', properties = ['dipole'])
--------------------------------------------------------------------------

    Molecular point group: c1
  Charge       = 0
  Multiplicity = 1
  Basis Set: AUG-CC-PVTZ
    Blend: AUG-CC-PVTZ
  Basis Set: (AUG-CC-PVTZ AUX)
    Blend: AUG-CC-PVTZ-JKFIT

    Orbital Energies [Eh]
    ---------------------

    Doubly Occupied:

       1A    -91.968825     2A    -20.560037     3A    -20.555408
       4A    -11.365693     5A    -11.348853     6A    -11.266376
       7A    -11.261929     8A    -11.251430     9A    -11.230327
      10A    -11.223568    11A     -8.970616    12A     -6.651810
      13A     -6.650666    14A     -6.650029    15A     -1.401943
      16A     -1.388174    17A     -1.093681    18A     -1.075411
      19A     -1.042881    20A     -0.970220    21A     -0.894598
      22A     -0.836228    23A     -0.761339    24A     -0.727406
      25A     -0.679287    26A     -0.670339    27A     -0.650100
      28A     -0.635701    29A     -0.632632    30A     -0.612204
      31A     -0.591597    32A     -0.560111    33A     -0.545465
      34A     -0.531340    35A     -0.526939    36A     -0.522087
      37A     -0.513105    38A     -0.504904    39A     -0.496362
      40A     -0.463169    41A     -0.431431    42A     -0.405576
      43A     -0.368577

  @DF-RHF Final Energy:  -819.49643984445265

   => Energetics <=

    Nuclear Repulsion Energy =            610.4259514210993984
    One-Electron Energy =               -2336.8680339134452879
    Two-Electron Energy =                 906.9456426478932372
    Total Energy =                       -819.4964398444526523
  Basis Set: (AUG-CC-PVTZ AUX)
    Blend: AUG-CC-PVTZ-RI
    Molecular point group: c1

    Geometry (in Angstrom), charge = 0, multiplicity = 1:

       Center              X                  Y                   Z               Mass
    ------------   -----------------  -----------------  -----------------  -----------------
         S            1.537999977323    -0.322338021085    -0.723993265696    31.972071174400
         O           -1.546201022677    -0.510583021085     1.083425734304    15.994914619570
         O            0.771744977323     1.677772978915     0.837413734304    15.994914619570
         C           -0.908480022677     0.950752978915    -0.720855265696    12.000000000000
         C           -3.251116022677    -0.122756021085    -0.571892265696    12.000000000000
         C           -1.856743722677     0.043119678915     0.047377034304    12.000000000000
         C            0.458436977323     0.925600978915    -0.074175265696    12.000000000000
         C           -4.184138022677    -0.962744021085     0.288518734304    12.000000000000
         C            2.929055977323    -0.101906021085     0.423726734304    12.000000000000
         C            4.033401977323    -1.098038021085     0.094580734304    12.000000000000
         H           -0.869138022677     0.652754978915    -1.775646265696     1.007825032230
         H           -1.285192022677     1.979689978915    -0.676197265696     1.007825032230
         H           -3.665406022677     0.878435978915    -0.750704265696     1.007825032230
         H           -3.122275022677    -0.568497021085    -1.567640265696     1.007825032230
         H           -5.162022022677    -1.058638021085    -0.190135265696     1.007825032230
         H           -3.771103022677    -1.961051021085     0.443542734304     1.007825032230
         H           -4.320179022677    -0.505483021085     1.270560734304     1.007825032230
         H            3.281540977323     0.928027978915     0.339993734304     1.007825032230
         H            2.551945977323    -0.242848021085     1.438810734304     1.007825032230
         H            3.679753977323    -2.127924021085     0.186024734304     1.007825032230
         H            4.411369977323    -0.952885021085    -0.920543265696     1.007825032230
         H            4.866648977323    -0.962390021085     0.789521734304     1.007825032230

  Basis Set: AUG-CC-PVTZ
    Blend: AUG-CC-PVTZ
  Basis Set: (AUG-CC-PVTZ AUX)
    Blend: AUG-CC-PVTZ-JKFIT
	 Reference Energy          =    -819.4964398444526523 [Eh]
	 Singles Energy            =      -0.0000000000000000 [Eh]
	 Same-Spin Energy          =      -0.4842526831373501 [Eh]
	 Opposite-Spin Energy      =      -1.5707796117292676 [Eh]
	 Correlation Energy        =      -2.0550322948666180 [Eh]
	 Total Energy              =    -821.5514721393192303 [Eh]

	 ================> DF-SCS-MP2 Energies <==================
	-----------------------------------------------------------
	 SCS Same-Spin Scale       =       0.3333333333333333 [-]
	 SCS Opposite-Spin Scale   =       1.2000000000000000 [-]
	 SCS Same-Spin Energy      =      -0.1614175610457834 [Eh]
	 SCS Opposite-Spin Energy  =      -1.8849355340751210 [Eh]
	 SCS Correlation Energy    =      -2.0463530951209044 [Eh]
	 SCS Total Energy          =    -821.5427929395735873 [Eh]
	-----------------------------------------------------------

  Dipole Moment: [D]
     X:    -0.6522      Y:    -0.1979      Z:    -2.6599     Total:     2.7459

*** Psi4 exiting successfully. Buy a developer a beer!
