                               Psi4 1.3.2 release

  ==> Input File <==

--------------------------------------------------------------------------
#psi4
#
memory 32 gb

molecule  {
0 1
  S        1.8142300     0.7226310    -0.3411240
  O       -1.8432130    -0.9348080    -0.8000930
  O        0.5346861    -1.0658076     1.1020815
  C       -0.8020620     0.8686720     0.4453974
  C       -3.3832440     0.5955310     0.2374230
  C       -2.0096370     0.0521440    -0.0950140
  C        0.4326040    -0.0039200     0.5084100
  C       -4.5116740    -0.2794210    -0.2844450
  C        3.0576300    -0.5565920    -0.0082180
  C        4.4432860    -0.0468870    -0.3740170
  H       -0.6942050     1.7459430    -0.1201930
  H       -1.0474180     1.1506300     1.5016930
  H       -3.4528060     0.7235440     1.3254800
  H       -3.4442640     1.6111560    -0.1826160
  H       -5.4818800     0.1657790    -0.0500790
  H       -4.4326880    -0.4035450    -1.3660960
  H       -4.4661600    -1.2732880     0.1669010
  H        2.9964590    -0.8086780     1.0500210
  H        2.8025100    -1.4530070    -0.5759610
  H        4.5013120     0.2245390    -1.4310650
  H        4.7086350     0.8297180     0.2214350
  H        5.1861620    -0.8265290    -0.1846820
units angstrom
no_reorient  #important for SAPT in psi4, default
symmetry c1  #important for SAPT in psi4, default
}

set PROPERTIES_ORIGIN ["COM"]
properties('MP2/aug-cc-pvtz', properties = ['dipole'])
--------------------------------------------------------------------------

    Molecular point group: c1
  Charge       = 0
  Multiplicity = 1
  Basis Set: AUG-CC-PVTZ
    Blend: AUG-CC-PVTZ
  Basis Set: (AUG-CC-PVTZ AUX)
    Blend: AUG-CC-PVTZ-JKFIT

    Orbital Energies [Eh]
    ---------------------

    Doubly Occupied:

       1A    -91.968514     2A    -20.557749     3A    -20.556051
       4A    -11.368940     5A    -11.349001     6A    -11.268458
       7A    -11.260427     8A    -11.251510     9A    -11.230000
      10A    -11.223355    11A     -8.970369    12A     -6.651519
      13A     -6.650397    14A     -6.649790    15A     -1.397741
      16A     -1.385384    17A     -1.093536    18A     -1.076124
      19A     -1.044530    20A     -0.969522    21A     -0.896969
      22A     -0.836446    23A     -0.757919    24A     -0.730792
      25A     -0.679482    26A     -0.667727    27A     -0.648328
      28A     -0.637622    29A     -0.632888    30A     -0.610631
      31A     -0.598732    32A     -0.560483    33A     -0.546170
      34A     -0.534094    35A     -0.525377    36A     -0.521237
      37A     -0.513701    38A     -0.504015    39A     -0.490501
      40A     -0.463575    41A     -0.429312    42A     -0.404161
      43A     -0.368979

  @DF-RHF Final Energy:  -819.49109651276206

   => Energetics <=

    Nuclear Repulsion Energy =            603.3081752822682802
    One-Electron Energy =               -2322.6344320144439735
    Two-Electron Energy =                 899.8351602194137513
    Total Energy =                       -819.4910965127620557
  Basis Set: (AUG-CC-PVTZ AUX)
    Blend: AUG-CC-PVTZ-RI
    Molecular point group: c1

    Geometry (in Angstrom), charge = 0, multiplicity = 1:

       Center              X                  Y                   Z               Mass
    ------------   -----------------  -----------------  -----------------  -----------------
         S            1.808286403679     0.720393560876    -0.337599547202    31.972071174400
         O           -1.849156596321    -0.937045439124    -0.796568547202    15.994914619570
         O            0.528742503679    -1.068045039124     1.105605952798    15.994914619570
         C           -0.808005596321     0.866434560876     0.448921852798    12.000000000000
         C           -3.389187596321     0.593293560876     0.240947452798    12.000000000000
         C           -2.015580596321     0.049906560876    -0.091489547202    12.000000000000
         C            0.426660403679    -0.006157439124     0.511934452798    12.000000000000
         C           -4.517617596321    -0.281658439124    -0.280920547202    12.000000000000
         C            3.051686403679    -0.558829439124    -0.004693547202    12.000000000000
         C            4.437342403679    -0.049124439124    -0.370492547202    12.000000000000
         H           -0.700148596321     1.743705560876    -0.116668547202     1.007825032230
         H           -1.053361596321     1.148392560876     1.505217452798     1.007825032230
         H           -3.458749596321     0.721306560876     1.329004452798     1.007825032230
         H           -3.450207596321     1.608918560876    -0.179091547202     1.007825032230
         H           -5.487823596321     0.163541560876    -0.046554547202     1.007825032230
         H           -4.438631596321    -0.405782439124    -1.362571547202     1.007825032230
         H           -4.472103596321    -1.275525439124     0.170425452798     1.007825032230
         H            2.990515403679    -0.810915439124     1.053545452798     1.007825032230
         H            2.796566403679    -1.455244439124    -0.572436547202     1.007825032230
         H            4.495368403679     0.222301560876    -1.427540547202     1.007825032230
         H            4.702691403679     0.827480560876     0.224959452798     1.007825032230
         H            5.180218403679    -0.828766439124    -0.181157547202     1.007825032230

  Basis Set: AUG-CC-PVTZ
    Blend: AUG-CC-PVTZ
  Basis Set: (AUG-CC-PVTZ AUX)
    Blend: AUG-CC-PVTZ-JKFIT
	 Reference Energy          =    -819.4910965127620557 [Eh]
	 Singles Energy            =      -0.0000000000000000 [Eh]
	 Same-Spin Energy          =      -0.4844023001873330 [Eh]
	 Opposite-Spin Energy      =      -1.5712786075800813 [Eh]
	 Correlation Energy        =      -2.0556809077674143 [Eh]
	 Total Energy              =    -821.5467774205294518 [Eh]

	 ================> DF-SCS-MP2 Energies <==================
	-----------------------------------------------------------
	 SCS Same-Spin Scale       =       0.3333333333333333 [-]
	 SCS Opposite-Spin Scale   =       1.2000000000000000 [-]
	 SCS Same-Spin Energy      =      -0.1614674333957777 [Eh]
	 SCS Opposite-Spin Energy  =      -1.8855343290960975 [Eh]
	 SCS Correlation Energy    =      -2.0470017624918753 [Eh]
	 SCS Total Energy          =    -821.5380982752539012 [Eh]
	-----------------------------------------------------------

  Dipole Moment: [D]
     X:    -0.2435      Y:     2.8235      Z:     0.6883     Total:     2.9163

*** Psi4 exiting successfully. Buy a developer a beer!
