                               Psi4 1.3.2 release

  ==> Input File <==

--------------------------------------------------------------------------
#psi4
#
memory 32 gb

molecule  {
0 1
  S        1.8142300     0.7226310    -0.3411240
  O       -1.8432130    -0.9348080    -0.8000930
  O        0.4332682    -1.0534065     1.1321483
  C       -0.8623472     0.7788502     0.5210572
  C       -3.3832440     0.5955310     0.2374230
  C       -2.0096370     0.0521440    -0.0950140
  C        0.4326040    -0.0039200     0.5084100
  C       -4.5116740    -0.2794210    -0.2844450
  C        3.0576300    -0.5565920    -0.0082180
  C        4.4432860    -0.0468870    -0.3740170
  H       -0.6942050     1.7459430    -0.1201930
  H       -1.0474180     1.1506300     1.5016930
  H       -3.4528060     0.7235440     1.3254800
  H       -3.4442640     1.6111560    -0.1826160
  H       -5.4818800     0.1657790    -0.0500790
  H       -4.4326880    -0.4035450    -1.3660960
  H       -4.4661600    -1.2732880     0.1669010
  H        2.9964590    -0.8086780     1.0500210
  H        2.8025100    -1.4530070    -0.5759610
  H        4.5013120     0.2245390    -1.4310650
  H        4.7086350     0.8297180     0.2214350
  H        5.1861620    -0.8265290    -0.1846820
units angstrom
no_reorient  #important for SAPT in psi4, default
symmetry c1  #important for SAPT in psi4, default
}

set PROPERTIES_ORIGIN ["COM"]
properties('MP2/aug-cc-pvtz', properties = ['dipole'])
--------------------------------------------------------------------------

    Molecular point group: c1
  Charge       = 0
  Multiplicity = 1
  Basis Set: AUG-CC-PVTZ
    Blend: AUG-CC-PVTZ
  Basis Set: (AUG-CC-PVTZ AUX)
    Blend: AUG-CC-PVTZ-JKFIT

    Orbital Energies [Eh]
    ---------------------

    Doubly Occupied:

       1A    -91.977438     2A    -20.553943     3A    -20.552267
       4A    -11.366024     5A    -11.342188     6A    -11.265873
       7A    -11.265796     8A    -11.247602     9A    -11.234057
      10A    -11.220793    11A     -8.978710    12A     -6.659865
      13A     -6.658723    14A     -6.658097    15A     -1.397613
      16A     -1.382114    17A     -1.095103    18A     -1.078690
      19A     -1.040090    20A     -0.975999    21A     -0.895034
      22A     -0.839865    23A     -0.763734    24A     -0.725419
      25A     -0.680452    26A     -0.665506    27A     -0.648405
      28A     -0.637927    29A     -0.634982    30A     -0.608967
      31A     -0.586030    32A     -0.557692    33A     -0.545822
      34A     -0.532262    35A     -0.529918    36A     -0.520153
      37A     -0.509429    38A     -0.503551    39A     -0.484611
      40A     -0.467717    41A     -0.429100    42A     -0.408592
      43A     -0.374345

  @DF-RHF Final Energy:  -819.48725909308530

   => Energetics <=

    Nuclear Repulsion Energy =            603.7184786777937688
    One-Electron Energy =               -2323.4104801710013817
    Two-Electron Energy =                 900.2047424001221998
    Total Energy =                       -819.4872590930852994
  Basis Set: (AUG-CC-PVTZ AUX)
    Blend: AUG-CC-PVTZ-RI
    Molecular point group: c1

    Geometry (in Angstrom), charge = 0, multiplicity = 1:

       Center              X                  Y                   Z               Mass
    ------------   -----------------  -----------------  -----------------  -----------------
         S            1.822941249299     0.725888563618    -0.346276730359    31.972071174400
         O           -1.834501750701    -0.931550436382    -0.805245730359    15.994914619570
         O            0.441979449299    -1.050148936382     1.126995569641    15.994914619570
         C           -0.853635950701     0.782107763618     0.515904469641    12.000000000000
         C           -3.374532750701     0.598788563618     0.232270269641    12.000000000000
         C           -2.000925750701     0.055401563618    -0.100166730359    12.000000000000
         C            0.441315249299    -0.000662436382     0.503257269641    12.000000000000
         C           -4.502962750701    -0.276163436382    -0.289597730359    12.000000000000
         C            3.066341249299    -0.553334436382    -0.013370730359    12.000000000000
         C            4.451997249299    -0.043629436382    -0.379169730359    12.000000000000
         H           -0.685493750701     1.749200563618    -0.125345730359     1.007825032230
         H           -1.038706750701     1.153887563618     1.496540269641     1.007825032230
         H           -3.444094750701     0.726801563618     1.320327269641     1.007825032230
         H           -3.435552750701     1.614413563618    -0.187768730359     1.007825032230
         H           -5.473168750701     0.169036563618    -0.055231730359     1.007825032230
         H           -4.423976750701    -0.400287436382    -1.371248730359     1.007825032230
         H           -4.457448750701    -1.270030436382     0.161748269641     1.007825032230
         H            3.005170249299    -0.805420436382     1.044868269641     1.007825032230
         H            2.811221249299    -1.449749436382    -0.581113730359     1.007825032230
         H            4.510023249299     0.227796563618    -1.436217730359     1.007825032230
         H            4.717346249299     0.832975563618     0.216282269641     1.007825032230
         H            5.194873249299    -0.823271436382    -0.189834730359     1.007825032230

  Basis Set: AUG-CC-PVTZ
    Blend: AUG-CC-PVTZ
  Basis Set: (AUG-CC-PVTZ AUX)
    Blend: AUG-CC-PVTZ-JKFIT
	 Reference Energy          =    -819.4872590930852994 [Eh]
	 Singles Energy            =      -0.0000000000000000 [Eh]
	 Same-Spin Energy          =      -0.4843391651575077 [Eh]
	 Opposite-Spin Energy      =      -1.5716049986545209 [Eh]
	 Correlation Energy        =      -2.0559441638120286 [Eh]
	 Total Energy              =    -821.5432032568973000 [Eh]

	 ================> DF-SCS-MP2 Energies <==================
	-----------------------------------------------------------
	 SCS Same-Spin Scale       =       0.3333333333333333 [-]
	 SCS Opposite-Spin Scale   =       1.2000000000000000 [-]
	 SCS Same-Spin Energy      =      -0.1614463883858359 [Eh]
	 SCS Opposite-Spin Energy  =      -1.8859259983854249 [Eh]
	 SCS Correlation Energy    =      -2.0473723867712605 [Eh]
	 SCS Total Energy          =    -821.5346314798565572 [Eh]
	-----------------------------------------------------------

  Dipole Moment: [D]
     X:     0.3665      Y:     2.8263      Z:     0.6849     Total:     2.9311

*** Psi4 exiting successfully. Buy a developer a beer!
