                               Psi4 1.3.2 release

  ==> Input File <==

--------------------------------------------------------------------------
#psi4
#
memory 32 gb

molecule  {
0 1
  S        1.8142300     0.7226310    -0.3411240
  O       -1.8432130    -0.9348080    -0.8000930
  O        0.4941690    -1.0618130     1.1146640
  C       -0.8273310     0.8335030     0.4756360
  C       -3.3832440     0.5955310     0.2374230
  C       -2.0096370     0.0521440    -0.0950140
  C        0.4326040    -0.0039200     0.5084100
  C       -4.5383438    -0.2859629    -0.2097397
  C        3.0576300    -0.5565920    -0.0082180
  C        4.4432860    -0.0468870    -0.3740170
  H       -0.6942050     1.7459430    -0.1201930
  H       -1.0474180     1.1506300     1.5016930
  H       -3.4998320     0.6905102     1.3248422
  H       -3.4442640     1.6111560    -0.1826160
  H       -5.4818800     0.1657790    -0.0500790
  H       -4.4326880    -0.4035450    -1.3660960
  H       -4.4661600    -1.2732880     0.1669010
  H        2.9964590    -0.8086780     1.0500210
  H        2.8025100    -1.4530070    -0.5759610
  H        4.5013120     0.2245390    -1.4310650
  H        4.7086350     0.8297180     0.2214350
  H        5.1861620    -0.8265290    -0.1846820
units angstrom
no_reorient  #important for SAPT in psi4, default
symmetry c1  #important for SAPT in psi4, default
}

set PROPERTIES_ORIGIN ["COM"]
properties('MP2/aug-cc-pvtz', properties = ['dipole'])
--------------------------------------------------------------------------

    Molecular point group: c1
  Charge       = 0
  Multiplicity = 1
  Basis Set: AUG-CC-PVTZ
    Blend: AUG-CC-PVTZ
  Basis Set: (AUG-CC-PVTZ AUX)
    Blend: AUG-CC-PVTZ-JKFIT

    Orbital Energies [Eh]
    ---------------------

    Doubly Occupied:

       1A    -91.972300     2A    -20.556403     3A    -20.555332
       4A    -11.367734     5A    -11.347342     6A    -11.267226
       7A    -11.262746     8A    -11.249918     9A    -11.231726
      10A    -11.222599    11A     -8.973909    12A     -6.655062
      13A     -6.653933    14A     -6.653319    15A     -1.397717
      16A     -1.384385    17A     -1.094077    18A     -1.077280
      19A     -1.043246    20A     -0.972339    21A     -0.896276
      22A     -0.837850    23A     -0.760568    24A     -0.727213
      25A     -0.678941    26A     -0.669056    27A     -0.648438
      28A     -0.637081    29A     -0.634478    30A     -0.610140
      31A     -0.596588    32A     -0.559716    33A     -0.550151
      34A     -0.541898    35A     -0.528048    36A     -0.523463
      37A     -0.507984    38A     -0.495522    39A     -0.479431
      40A     -0.465377    41A     -0.430620    42A     -0.407197
      43A     -0.371310

  @DF-RHF Final Energy:  -819.48725657728664

   => Energetics <=

    Nuclear Repulsion Energy =            603.1279366714044272
    One-Electron Energy =               -2322.2385096121961396
    Two-Electron Energy =                 899.6233163635051824
    Total Energy =                       -819.4872565772866437
  Basis Set: (AUG-CC-PVTZ AUX)
    Blend: AUG-CC-PVTZ-RI
    Molecular point group: c1

    Geometry (in Angstrom), charge = 0, multiplicity = 1:

       Center              X                  Y                   Z               Mass
    ------------   -----------------  -----------------  -----------------  -----------------
         S            1.816525574821     0.723329598197    -0.346720991193    31.972071174400
         O           -1.840917425179    -0.934109401803    -0.805689991193    15.994914619570
         O            0.496464574821    -1.061114401803     1.109067008807    15.994914619570
         C           -0.825035425179     0.834201598197     0.470039008807    12.000000000000
         C           -3.380948425179     0.596229598197     0.231826008807    12.000000000000
         C           -2.007341425179     0.052842598197    -0.100610991193    12.000000000000
         C            0.434899574821    -0.003221401803     0.502813008807    12.000000000000
         C           -4.536048225179    -0.285264301803    -0.215336691193    12.000000000000
         C            3.059925574821    -0.555893401803    -0.013814991193    12.000000000000
         C            4.445581574821    -0.046188401803    -0.379613991193    12.000000000000
         H           -0.691909425179     1.746641598197    -0.125789991193     1.007825032230
         H           -1.045122425179     1.151328598197     1.496096008807     1.007825032230
         H           -3.497536425179     0.691208798197     1.319245208807     1.007825032230
         H           -3.441968425179     1.611854598197    -0.188212991193     1.007825032230
         H           -5.479584425179     0.166477598197    -0.055675991193     1.007825032230
         H           -4.430392425179    -0.402846401803    -1.371692991193     1.007825032230
         H           -4.463864425179    -1.272589401803     0.161304008807     1.007825032230
         H            2.998754574821    -0.807979401803     1.044424008807     1.007825032230
         H            2.804805574821    -1.452308401803    -0.581557991193     1.007825032230
         H            4.503607574821     0.225237598197    -1.436661991193     1.007825032230
         H            4.710930574821     0.830416598197     0.215838008807     1.007825032230
         H            5.188457574821    -0.825830401803    -0.190278991193     1.007825032230

  Basis Set: AUG-CC-PVTZ
    Blend: AUG-CC-PVTZ
  Basis Set: (AUG-CC-PVTZ AUX)
    Blend: AUG-CC-PVTZ-JKFIT
	 Reference Energy          =    -819.4872565772866437 [Eh]
	 Singles Energy            =      -0.0000000000000000 [Eh]
	 Same-Spin Energy          =      -0.4843129268473276 [Eh]
	 Opposite-Spin Energy      =      -1.5714607390796984 [Eh]
	 Correlation Energy        =      -2.0557736659270258 [Eh]
	 Total Energy              =    -821.5430302432137069 [Eh]

	 ================> DF-SCS-MP2 Energies <==================
	-----------------------------------------------------------
	 SCS Same-Spin Scale       =       0.3333333333333333 [-]
	 SCS Opposite-Spin Scale   =       1.2000000000000000 [-]
	 SCS Same-Spin Energy      =      -0.1614376422824425 [Eh]
	 SCS Opposite-Spin Energy  =      -1.8857528868956379 [Eh]
	 SCS Correlation Energy    =      -2.0471905291780805 [Eh]
	 SCS Total Energy          =    -821.5344471064647678 [Eh]
	-----------------------------------------------------------

  Dipole Moment: [D]
     X:     0.0175      Y:     2.8258      Z:     0.7180     Total:     2.9157

*** Psi4 exiting successfully. Buy a developer a beer!
