                               Psi4 1.3.2 release

  ==> Input File <==

--------------------------------------------------------------------------
#psi4
#
memory 32 gb

molecule  {
0 1
  S        1.8142300     0.7226310    -0.3411240
  O       -1.8432130    -0.9348080    -0.8000930
  O        0.4941690    -1.0618130     1.1146640
  C       -0.8273310     0.8335030     0.4756360
  C       -3.3832440     0.5955310     0.2374230
  C       -1.9987292     0.0727883    -0.0826375
  C        0.4326040    -0.0039200     0.5084100
  C       -4.5292818    -0.2624440    -0.2741604
  C        3.0576300    -0.5565920    -0.0082180
  C        4.4432860    -0.0468870    -0.3740170
  H       -0.6942050     1.7459430    -0.1201930
  H       -1.0474180     1.1506300     1.5016930
  H       -3.4528060     0.7235440     1.3254800
  H       -3.4442640     1.6111560    -0.1826160
  H       -5.4818800     0.1657790    -0.0500790
  H       -4.4326880    -0.4035450    -1.3660960
  H       -4.4661600    -1.2732880     0.1669010
  H        2.9964590    -0.8086780     1.0500210
  H        2.8025100    -1.4530070    -0.5759610
  H        4.5013120     0.2245390    -1.4310650
  H        4.7086350     0.8297180     0.2214350
  H        5.1861620    -0.8265290    -0.1846820
units angstrom
no_reorient  #important for SAPT in psi4, default
symmetry c1  #important for SAPT in psi4, default
}

set PROPERTIES_ORIGIN ["COM"]
properties('MP2/aug-cc-pvtz', properties = ['dipole'])
--------------------------------------------------------------------------

    Molecular point group: c1
  Charge       = 0
  Multiplicity = 1
  Basis Set: AUG-CC-PVTZ
    Blend: AUG-CC-PVTZ
  Basis Set: (AUG-CC-PVTZ AUX)
    Blend: AUG-CC-PVTZ-JKFIT

    Orbital Energies [Eh]
    ---------------------

    Doubly Occupied:

       1A    -91.973013     2A    -20.556062     3A    -20.553580
       4A    -11.368859     5A    -11.347903     6A    -11.268719
       7A    -11.263230     8A    -11.250489     9A    -11.232079
      10A    -11.222361    11A     -8.974611    12A     -6.655764
      13A     -6.654636    14A     -6.654021    15A     -1.395679
      16A     -1.371540    17A     -1.096050    18A     -1.078873
      19A     -1.044344    20A     -0.973961    21A     -0.897563
      22A     -0.838931    23A     -0.762227    24A     -0.726984
      25A     -0.677097    26A     -0.669369    27A     -0.649032
      28A     -0.636826    29A     -0.633380    30A     -0.603742
      31A     -0.596177    32A     -0.560382    33A     -0.550237
      34A     -0.536107    35A     -0.526512    36A     -0.517705
      37A     -0.508830    38A     -0.502371    39A     -0.480814
      40A     -0.465743    41A     -0.431724    42A     -0.408782
      43A     -0.371882

  @DF-RHF Final Energy:  -819.49026000236461

   => Energetics <=

    Nuclear Repulsion Energy =            603.1805507980371885
    One-Electron Energy =               -2322.3652417207467806
    Two-Electron Energy =                 899.6944309203450985
    Total Energy =                       -819.4902600023646073
  Basis Set: (AUG-CC-PVTZ AUX)
    Blend: AUG-CC-PVTZ-RI
    Molecular point group: c1

    Geometry (in Angstrom), charge = 0, multiplicity = 1:

       Center              X                  Y                   Z               Mass
    ------------   -----------------  -----------------  -----------------  -----------------
         S            1.814732252876     0.719810508681    -0.342823053061    31.972071174400
         O           -1.842710747124    -0.937628491319    -0.801792053061    15.994914619570
         O            0.494671252876    -1.064633491319     1.112964946939    15.994914619570
         C           -0.826828747124     0.830682508681     0.473936946939    12.000000000000
         C           -3.382741747124     0.592710508681     0.235723946939    12.000000000000
         C           -1.998226947124     0.069967808681    -0.084336553061    12.000000000000
         C            0.433106252876    -0.006740491319     0.506710946939    12.000000000000
         C           -4.528779547124    -0.265264491319    -0.275859453061    12.000000000000
         C            3.058132252876    -0.559412491319    -0.009917053061    12.000000000000
         C            4.443788252876    -0.049707491319    -0.375716053061    12.000000000000
         H           -0.693702747124     1.743122508681    -0.121892053061     1.007825032230
         H           -1.046915747124     1.147809508681     1.499993946939     1.007825032230
         H           -3.452303747124     0.720723508681     1.323780946939     1.007825032230
         H           -3.443761747124     1.608335508681    -0.184315053061     1.007825032230
         H           -5.481377747124     0.162958508681    -0.051778053061     1.007825032230
         H           -4.432185747124    -0.406365491319    -1.367795053061     1.007825032230
         H           -4.465657747124    -1.276108491319     0.165201946939     1.007825032230
         H            2.996961252876    -0.811498491319     1.048321946939     1.007825032230
         H            2.803012252876    -1.455827491319    -0.577660053061     1.007825032230
         H            4.501814252876     0.221718508681    -1.432764053061     1.007825032230
         H            4.709137252876     0.826897508681     0.219735946939     1.007825032230
         H            5.186664252876    -0.829349491319    -0.186381053061     1.007825032230

  Basis Set: AUG-CC-PVTZ
    Blend: AUG-CC-PVTZ
  Basis Set: (AUG-CC-PVTZ AUX)
    Blend: AUG-CC-PVTZ-JKFIT
	 Reference Energy          =    -819.4902600023646073 [Eh]
	 Singles Energy            =      -0.0000000000000000 [Eh]
	 Same-Spin Energy          =      -0.4849120663536067 [Eh]
	 Opposite-Spin Energy      =      -1.5725915690963872 [Eh]
	 Correlation Energy        =      -2.0575036354499940 [Eh]
	 Total Energy              =    -821.5477636378145689 [Eh]

	 ================> DF-SCS-MP2 Energies <==================
	-----------------------------------------------------------
	 SCS Same-Spin Scale       =       0.3333333333333333 [-]
	 SCS Opposite-Spin Scale   =       1.2000000000000000 [-]
	 SCS Same-Spin Energy      =      -0.1616373554512022 [Eh]
	 SCS Opposite-Spin Energy  =      -1.8871098829156645 [Eh]
	 SCS Correlation Energy    =      -2.0487472383668668 [Eh]
	 SCS Total Energy          =    -821.5390072407315074 [Eh]
	-----------------------------------------------------------

  Dipole Moment: [D]
     X:     0.0993      Y:     2.9069      Z:     0.7393     Total:     3.0011

*** Psi4 exiting successfully. Buy a developer a beer!
