                               Psi4 1.3.2 release

  ==> Input File <==

--------------------------------------------------------------------------
#psi4
#
memory 32 gb

molecule  {
0 1
  S        1.8142300     0.7226310    -0.3411240
  O       -1.8432130    -0.9348080    -0.8000930
  O        0.4941690    -1.0618130     1.1146640
  C       -0.8273310     0.8335030     0.4756360
  C       -3.3832440     0.5955310     0.2374230
  C       -2.0096370     0.0521440    -0.0950140
  C        0.4201864    -0.0215914     0.5236092
  C       -4.5116740    -0.2794210    -0.2844450
  C        3.0576300    -0.5565920    -0.0082180
  C        4.4432860    -0.0468870    -0.3740170
  H       -0.7123301     1.7508644    -0.1163981
  H       -1.0474180     1.1506300     1.5016930
  H       -3.4528060     0.7235440     1.3254800
  H       -3.4442640     1.6111560    -0.1826160
  H       -5.4818800     0.1657790    -0.0500790
  H       -4.4326880    -0.4035450    -1.3660960
  H       -4.4661600    -1.2732880     0.1669010
  H        2.9964590    -0.8086780     1.0500210
  H        2.8025100    -1.4530070    -0.5759610
  H        4.5013120     0.2245390    -1.4310650
  H        4.7086350     0.8297180     0.2214350
  H        5.1861620    -0.8265290    -0.1846820
units angstrom
no_reorient  #important for SAPT in psi4, default
symmetry c1  #important for SAPT in psi4, default
}

set PROPERTIES_ORIGIN ["COM"]
properties('MP2/aug-cc-pvtz', properties = ['dipole'])
--------------------------------------------------------------------------

    Molecular point group: c1
  Charge       = 0
  Multiplicity = 1
  Basis Set: AUG-CC-PVTZ
    Blend: AUG-CC-PVTZ
  Basis Set: (AUG-CC-PVTZ AUX)
    Blend: AUG-CC-PVTZ-JKFIT

    Orbital Energies [Eh]
    ---------------------

    Doubly Occupied:

       1A    -91.968130     2A    -20.559630     3A    -20.556361
       4A    -11.367596     5A    -11.346623     6A    -11.267282
       7A    -11.260819     8A    -11.250314     9A    -11.230172
      10A    -11.222699    11A     -8.969520    12A     -6.650634
      13A     -6.649550    14A     -6.648912    15A     -1.412077
      16A     -1.387852    17A     -1.091697    18A     -1.076617
      19A     -1.042789    20A     -0.967681    21A     -0.896277
      22A     -0.835140    23A     -0.760467    24A     -0.729297
      25A     -0.679377    26A     -0.669818    27A     -0.653287
      28A     -0.638448    29A     -0.632997    30A     -0.610912
      31A     -0.595553    32A     -0.561153    33A     -0.549252
      34A     -0.535193    35A     -0.527261    36A     -0.521195
      37A     -0.512101    38A     -0.507093    39A     -0.489879
      40A     -0.463686    41A     -0.430055    42A     -0.402995
      43A     -0.368654

  @DF-RHF Final Energy:  -819.49610006600483

   => Energetics <=

    Nuclear Repulsion Energy =            603.4332542767519953
    One-Electron Energy =               -2322.8646191003649619
    Two-Electron Energy =                 899.9352647576081381
    Total Energy =                       -819.4961000660048285
  Basis Set: (AUG-CC-PVTZ AUX)
    Blend: AUG-CC-PVTZ-RI
    Molecular point group: c1

    Geometry (in Angstrom), charge = 0, multiplicity = 1:

       Center              X                  Y                   Z               Mass
    ------------   -----------------  -----------------  -----------------  -----------------
         S            1.815275051882     0.723925026784    -0.342287501058    31.972071174400
         O           -1.842167948118    -0.933513973216    -0.801256501058    15.994914619570
         O            0.495214051882    -1.060518973216     1.113500498942    15.994914619570
         C           -0.826285948118     0.834797026784     0.474472498942    12.000000000000
         C           -3.382198948118     0.596825026784     0.236259498942    12.000000000000
         C           -2.008591948118     0.053438026784    -0.096177501058    12.000000000000
         C            0.421231451882    -0.020297373216     0.522445698942    12.000000000000
         C           -4.510628948118    -0.278126973216    -0.285608501058    12.000000000000
         C            3.058675051882    -0.555297973216    -0.009381501058    12.000000000000
         C            4.444331051882    -0.045592973216    -0.375180501058    12.000000000000
         H           -0.711285048118     1.752158426784    -0.117561601058     1.007825032230
         H           -1.046372948118     1.151924026784     1.500529498942     1.007825032230
         H           -3.451760948118     0.724838026784     1.324316498942     1.007825032230
         H           -3.443218948118     1.612450026784    -0.183779501058     1.007825032230
         H           -5.480834948118     0.167073026784    -0.051242501058     1.007825032230
         H           -4.431642948118    -0.402250973216    -1.367259501058     1.007825032230
         H           -4.465114948118    -1.271993973216     0.165737498942     1.007825032230
         H            2.997504051882    -0.807383973216     1.048857498942     1.007825032230
         H            2.803555051882    -1.451712973216    -0.577124501058     1.007825032230
         H            4.502357051882     0.225833026784    -1.432228501058     1.007825032230
         H            4.709680051882     0.831012026784     0.220271498942     1.007825032230
         H            5.187207051882    -0.825234973216    -0.185845501058     1.007825032230

  Basis Set: AUG-CC-PVTZ
    Blend: AUG-CC-PVTZ
  Basis Set: (AUG-CC-PVTZ AUX)
    Blend: AUG-CC-PVTZ-JKFIT
	 Reference Energy          =    -819.4961000660048285 [Eh]
	 Singles Energy            =      -0.0000000000000000 [Eh]
	 Same-Spin Energy          =      -0.4836135889160138 [Eh]
	 Opposite-Spin Energy      =      -1.5698623341512792 [Eh]
	 Correlation Energy        =      -2.0534759230672930 [Eh]
	 Total Energy              =    -821.5495759890720819 [Eh]

	 ================> DF-SCS-MP2 Energies <==================
	-----------------------------------------------------------
	 SCS Same-Spin Scale       =       0.3333333333333333 [-]
	 SCS Opposite-Spin Scale   =       1.2000000000000000 [-]
	 SCS Same-Spin Energy      =      -0.1612045296386713 [Eh]
	 SCS Opposite-Spin Energy  =      -1.8838348009815349 [Eh]
	 SCS Correlation Energy    =      -2.0450393306202059 [Eh]
	 SCS Total Energy          =    -821.5411393966249989 [Eh]
	-----------------------------------------------------------

  Dipole Moment: [D]
     X:    -0.1969      Y:     2.7377      Z:     0.7975     Total:     2.8583

*** Psi4 exiting successfully. Buy a developer a beer!
