                               Psi4 1.4a3.dev225

  ==> Input File <==

--------------------------------------------------------------------------
#psi4
#
memory 32 gb

molecule  {
0 1
  S        1.5586770    -0.2994370    -0.7152220
  O       -1.5255240    -0.4876820     1.0921970
  O        0.7924220     1.7006740     0.8461850
  C       -0.8878030     0.9736540    -0.7120840
  C       -3.2304390    -0.0998550    -0.5631210
  C       -1.8542380     0.0638590     0.0480780
  C        0.4791140     0.9485020    -0.0654040
  C       -4.1634610    -0.9398430     0.2972900
  C        2.9497330    -0.0790050     0.4324980
  C        4.0540790    -1.0751370     0.1033520
  H       -0.8484610     0.6756560    -1.7668750
  H       -1.2645150     2.0025910    -0.6674260
  H       -3.6635916     0.9469212    -0.7500743
  H       -3.1015980    -0.5455960    -1.5588690
  H       -5.1413450    -1.0357370    -0.1813640
  H       -3.7504260    -1.9381500     0.4523140
  H       -4.2995020    -0.4825820     1.2793320
  H        3.3022180     0.9509290     0.3487650
  H        2.5726230    -0.2199470     1.4475820
  H        3.7004310    -2.1050230     0.1947960
  H        4.4320470    -0.9299840    -0.9117720
  H        4.8873260    -0.9394890     0.7982930
units angstrom
no_reorient  #important for SAPT in psi4, default
symmetry c1  #important for SAPT in psi4, default
}

set PROPERTIES_ORIGIN ["COM"]
properties('MP2/aug-cc-pvtz', properties = ['dipole'])
--------------------------------------------------------------------------

    Molecular point group: c1
  Charge       = 0
  Multiplicity = 1
  Basis Set: AUG-CC-PVTZ
    Blend: AUG-CC-PVTZ
  Basis Set: (AUG-CC-PVTZ AUX)
    Blend: AUG-CC-PVTZ-JKFIT

    Orbital Energies [Eh]
    ---------------------

    Doubly Occupied:

       1A    -91.968399     2A    -20.559582     3A    -20.554983
       4A    -11.365371     5A    -11.350342     6A    -11.266311
       7A    -11.261578     8A    -11.258316     9A    -11.230065
      10A    -11.225103    11A     -8.970187    12A     -6.651381
      13A     -6.650238    14A     -6.649600    15A     -1.396979
      16A     -1.385739    17A     -1.092933    18A     -1.075853
      19A     -1.042681    20A     -0.969764    21A     -0.896974
      22A     -0.835759    23A     -0.759217    24A     -0.726323
      25A     -0.677534    26A     -0.669351    27A     -0.649119
      28A     -0.633948    29A     -0.632432    30A     -0.610790
      31A     -0.590428    32A     -0.559916    33A     -0.546252
      34A     -0.531086    35A     -0.526475    36A     -0.521359
      37A     -0.512016    38A     -0.504477    39A     -0.491850
      40A     -0.462676    41A     -0.432372    42A     -0.406715
      43A     -0.368085

  @DF-RHF Final Energy:  -819.49358010481751

   => Energetics <=

    Nuclear Repulsion Energy =            609.9915237091311155
    One-Electron Energy =               -2336.0290869895047763
    Two-Electron Energy =                 906.5439831755561499
    Total Energy =                       -819.4935801048175108
  Basis Set: (AUG-CC-PVTZ AUX)
    Blend: AUG-CC-PVTZ-RI
    Molecular point group: c1

    Geometry (in Angstrom), charge = 0, multiplicity = 1:

       Center              X                  Y                   Z               Mass
    ------------   -----------------  -----------------  -----------------  -----------------
         S            1.539481122020    -0.322462980616    -0.723336940805    31.972071174400
         O           -1.544719877980    -0.510707980616     1.084082059195    15.994914619570
         O            0.773226122020     1.677648019384     0.838070059195    15.994914619570
         C           -0.906998877980     0.950628019384    -0.720198940805    12.000000000000
         C           -3.249634877980    -0.122880980616    -0.571235940805    12.000000000000
         C           -1.873433877980     0.040833019384     0.039963059195    12.000000000000
         C            0.459918122020     0.925476019384    -0.073518940805    12.000000000000
         C           -4.182656877980    -0.962868980616     0.289175059195    12.000000000000
         C            2.930537122020    -0.102030980616     0.424383059195    12.000000000000
         C            4.034883122020    -1.098162980616     0.095237059195    12.000000000000
         H           -0.867656877980     0.652630019384    -1.774989940805     1.007825032230
         H           -1.283710877980     1.979565019384    -0.675540940805     1.007825032230
         H           -3.682787477980     0.923895219384    -0.758189240805     1.007825032230
         H           -3.120793877980    -0.568621980616    -1.566983940805     1.007825032230
         H           -5.160540877980    -1.058762980616    -0.189478940805     1.007825032230
         H           -3.769621877980    -1.961175980616     0.444199059195     1.007825032230
         H           -4.318697877980    -0.505607980616     1.271217059195     1.007825032230
         H            3.283022122020     0.927903019384     0.340650059195     1.007825032230
         H            2.553427122020    -0.242972980616     1.439467059195     1.007825032230
         H            3.681235122020    -2.128048980616     0.186681059195     1.007825032230
         H            4.412851122020    -0.953009980616    -0.919886940805     1.007825032230
         H            4.868130122020    -0.962514980616     0.790178059195     1.007825032230

  Basis Set: AUG-CC-PVTZ
    Blend: AUG-CC-PVTZ
  Basis Set: (AUG-CC-PVTZ AUX)
    Blend: AUG-CC-PVTZ-JKFIT
	 Reference Energy          =    -819.4935801048175108 [Eh]
	 Singles Energy            =      -0.0000000000000000 [Eh]
	 Same-Spin Energy          =      -0.4845637458205500 [Eh]
	 Opposite-Spin Energy      =      -1.5717272446072523 [Eh]
	 Correlation Energy        =      -2.0562909904278022 [Eh]
	 Total Energy              =    -821.5498710952452939 [Eh]

	 ================> DF-SCS-MP2 Energies <==================
	-----------------------------------------------------------
	 SCS Same-Spin Scale       =       0.3333333333333333 [-]
	 SCS Opposite-Spin Scale   =       1.2000000000000000 [-]
	 SCS Same-Spin Energy      =      -0.1615212486068500 [Eh]
	 SCS Opposite-Spin Energy  =      -1.8860726935287027 [Eh]
	 SCS Correlation Energy    =      -2.0475939421355527 [Eh]
	 SCS Total Energy          =    -821.5411740469530741 [Eh]
	-----------------------------------------------------------

  Dipole Moment: [D]
     X:    -0.7546      Y:    -0.2367      Z:    -2.6789     Total:     2.7932

*** Psi4 exiting successfully. Buy a developer a beer!
