                               Psi4 1.3.2 release

  ==> Input File <==

--------------------------------------------------------------------------
#psi4
#
memory 32 gb

molecule  {
0 1
  S        1.8142300     0.7226310    -0.3411240
  O       -1.8432130    -0.9348080    -0.8000930
  O        0.4941690    -1.0618130     1.1146640
  C       -0.8273310     0.8335030     0.4756360
  C       -3.3832440     0.5955310     0.2374230
  C       -2.0096370     0.0521440    -0.0950140
  C        0.4386691     0.0050117     0.5008064
  C       -4.5116740    -0.2794210    -0.2844450
  C        3.0576300    -0.5565920    -0.0082180
  C        4.4432860    -0.0468870    -0.3740170
  H       -0.6851573     1.7433780    -0.1220225
  H       -1.0474180     1.1506300     1.5016930
  H       -3.4528060     0.7235440     1.3254800
  H       -3.4442640     1.6111560    -0.1826160
  H       -5.4818800     0.1657790    -0.0500790
  H       -4.4326880    -0.4035450    -1.3660960
  H       -4.4661600    -1.2732880     0.1669010
  H        2.9964590    -0.8086780     1.0500210
  H        2.8025100    -1.4530070    -0.5759610
  H        4.5013120     0.2245390    -1.4310650
  H        4.7086350     0.8297180     0.2214350
  H        5.1861620    -0.8265290    -0.1846820
units angstrom
no_reorient  #important for SAPT in psi4, default
symmetry c1  #important for SAPT in psi4, default
}

set PROPERTIES_ORIGIN ["COM"]
properties('MP2/aug-cc-pvtz', properties = ['dipole'])
--------------------------------------------------------------------------

    Molecular point group: c1
  Charge       = 0
  Multiplicity = 1
  Basis Set: AUG-CC-PVTZ
    Blend: AUG-CC-PVTZ
  Basis Set: (AUG-CC-PVTZ AUX)
    Blend: AUG-CC-PVTZ-JKFIT

    Orbital Energies [Eh]
    ---------------------

    Doubly Occupied:

       1A    -91.974012     2A    -20.555182     3A    -20.552846
       4A    -11.367412     5A    -11.345856     6A    -11.266677
       7A    -11.263495     8A    -11.249696     9A    -11.232341
      10A    -11.222115    11A     -8.975754    12A     -6.656928
      13A     -6.655774    14A     -6.655174    15A     -1.392931
      16A     -1.379332    17A     -1.095261    18A     -1.077318
      19A     -1.042714    20A     -0.974285    21A     -0.896125
      22A     -0.838977    23A     -0.759881    24A     -0.725845
      25A     -0.677573    26A     -0.667618    27A     -0.646020
      28A     -0.637223    29A     -0.634234    30A     -0.607456
      31A     -0.594807    32A     -0.559080    33A     -0.545111
      34A     -0.532263    35A     -0.526943    36A     -0.520675
      37A     -0.511775    38A     -0.503106    39A     -0.487994
      40A     -0.466016    41A     -0.429569    42A     -0.407832
      43A     -0.372225

  @DF-RHF Final Energy:  -819.49332859661683

   => Energetics <=

    Nuclear Repulsion Energy =            603.4457540520076009
    One-Electron Energy =               -2322.9112611433597522
    Two-Electron Energy =                 899.9721784947354308
    Total Energy =                       -819.4933285966168341
  Basis Set: (AUG-CC-PVTZ AUX)
    Blend: AUG-CC-PVTZ-RI
    Molecular point group: c1

    Geometry (in Angstrom), charge = 0, multiplicity = 1:

       Center              X                  Y                   Z               Mass
    ------------   -----------------  -----------------  -----------------  -----------------
         S            1.813718233405     0.721977629582    -0.340542472076    31.972071174400
         O           -1.843724766595    -0.935461370418    -0.799511472076    15.994914619570
         O            0.493657233405    -1.062466370418     1.115245527924    15.994914619570
         C           -0.827842766595     0.832849629582     0.476217527924    12.000000000000
         C           -3.383755766595     0.594877629582     0.238004527924    12.000000000000
         C           -2.010148766595     0.051490629582    -0.094432472076    12.000000000000
         C            0.438157333405     0.004358329582     0.501387927924    12.000000000000
         C           -4.512185766595    -0.280074370418    -0.283863472076    12.000000000000
         C            3.057118233405    -0.557245370418    -0.007636472076    12.000000000000
         C            4.442774233405    -0.047540370418    -0.373435472076    12.000000000000
         H           -0.685669066595     1.742724629582    -0.121440972076     1.007825032230
         H           -1.047929766595     1.149976629582     1.502274527924     1.007825032230
         H           -3.453317766595     0.722890629582     1.326061527924     1.007825032230
         H           -3.444775766595     1.610502629582    -0.182034472076     1.007825032230
         H           -5.482391766595     0.165125629582    -0.049497472076     1.007825032230
         H           -4.433199766595    -0.404198370418    -1.365514472076     1.007825032230
         H           -4.466671766595    -1.273941370418     0.167482527924     1.007825032230
         H            2.995947233405    -0.809331370418     1.050602527924     1.007825032230
         H            2.801998233405    -1.453660370418    -0.575379472076     1.007825032230
         H            4.500800233405     0.223885629582    -1.430483472076     1.007825032230
         H            4.708123233405     0.829064629582     0.222016527924     1.007825032230
         H            5.185650233405    -0.827182370418    -0.184100472076     1.007825032230

  Basis Set: AUG-CC-PVTZ
    Blend: AUG-CC-PVTZ
  Basis Set: (AUG-CC-PVTZ AUX)
    Blend: AUG-CC-PVTZ-JKFIT
	 Reference Energy          =    -819.4933285966168341 [Eh]
	 Singles Energy            =      -0.0000000000000000 [Eh]
	 Same-Spin Energy          =      -0.4845454976046749 [Eh]
	 Opposite-Spin Energy      =      -1.5717019898502744 [Eh]
	 Correlation Energy        =      -2.0562474874549492 [Eh]
	 Total Energy              =    -821.5495760840717594 [Eh]

	 ================> DF-SCS-MP2 Energies <==================
	-----------------------------------------------------------
	 SCS Same-Spin Scale       =       0.3333333333333333 [-]
	 SCS Opposite-Spin Scale   =       1.2000000000000000 [-]
	 SCS Same-Spin Energy      =      -0.1615151658682250 [Eh]
	 SCS Opposite-Spin Energy  =      -1.8860423878203292 [Eh]
	 SCS Correlation Energy    =      -2.0475575536885540 [Eh]
	 SCS Total Energy          =    -821.5408861503053686 [Eh]
	-----------------------------------------------------------

  Dipole Moment: [D]
     X:     0.0963      Y:     2.8806      Z:     0.6277     Total:     2.9498

*** Psi4 exiting successfully. Buy a developer a beer!
