                               Psi4 1.3.2 release

  ==> Input File <==

--------------------------------------------------------------------------
#psi4
#
memory 32 gb

molecule  {
0 1
  S        1.8142300     0.7226310    -0.3411240
  O       -1.8009848    -0.9296740    -0.7960171
  O        0.4941690    -1.0618130     1.1146640
  C       -0.7942865     0.7993257     0.4514781
  C       -3.3832440     0.5955310     0.2374230
  C       -2.0096370     0.0521440    -0.0950140
  C        0.4326040    -0.0039200     0.5084100
  C       -4.5116740    -0.2794210    -0.2844450
  C        3.0576300    -0.5565920    -0.0082180
  C        4.4432860    -0.0468870    -0.3740170
  H       -0.6942050     1.7459430    -0.1201930
  H       -1.0474180     1.1506300     1.5016930
  H       -3.4528060     0.7235440     1.3254800
  H       -3.4442640     1.6111560    -0.1826160
  H       -5.4818800     0.1657790    -0.0500790
  H       -4.4326880    -0.4035450    -1.3660960
  H       -4.4661600    -1.2732880     0.1669010
  H        2.9964590    -0.8086780     1.0500210
  H        2.8025100    -1.4530070    -0.5759610
  H        4.5013120     0.2245390    -1.4310650
  H        4.7086350     0.8297180     0.2214350
  H        5.1861620    -0.8265290    -0.1846820
units angstrom
no_reorient  #important for SAPT in psi4, default
symmetry c1  #important for SAPT in psi4, default
}

set PROPERTIES_ORIGIN ["COM"]
properties('MP2/aug-cc-pvtz', properties = ['dipole'])
--------------------------------------------------------------------------

    Molecular point group: c1
  Charge       = 0
  Multiplicity = 1
  Basis Set: AUG-CC-PVTZ
    Blend: AUG-CC-PVTZ
  Basis Set: (AUG-CC-PVTZ AUX)
    Blend: AUG-CC-PVTZ-JKFIT

    Orbital Energies [Eh]
    ---------------------

    Doubly Occupied:

       1A    -91.970848     2A    -20.554466     3A    -20.553203
       4A    -11.364396     5A    -11.346566     6A    -11.266644
       7A    -11.261624     8A    -11.253675     9A    -11.230885
      10A    -11.224748    11A     -8.972509    12A     -6.653664
      13A     -6.652528    14A     -6.651916    15A     -1.397859
      16A     -1.383382    17A     -1.094748    18A     -1.077140
      19A     -1.046588    20A     -0.970654    21A     -0.899426
      22A     -0.837154    23A     -0.764847    24A     -0.724654
      25A     -0.679579    26A     -0.666353    27A     -0.650047
      28A     -0.638147    29A     -0.633735    30A     -0.607448
      31A     -0.589710    32A     -0.559003    33A     -0.546372
      34A     -0.533957    35A     -0.526711    36A     -0.522254
      37A     -0.510231    38A     -0.503275    39A     -0.487181
      40A     -0.464311    41A     -0.428570    42A     -0.408840
      43A     -0.370060

  @DF-RHF Final Energy:  -819.49064168690393

   => Energetics <=

    Nuclear Repulsion Energy =            604.5727864502754301
    One-Electron Energy =               -2325.1670390035374112
    Two-Electron Energy =                 901.1036108663579398
    Total Energy =                       -819.4906416869039276
  Basis Set: (AUG-CC-PVTZ AUX)
    Blend: AUG-CC-PVTZ-RI
    Molecular point group: c1

    Geometry (in Angstrom), charge = 0, multiplicity = 1:

       Center              X                  Y                   Z               Mass
    ------------   -----------------  -----------------  -----------------  -----------------
         S            1.807532448509     0.724680468435    -0.339720170660    31.972071174400
         O           -1.807682351491    -0.927624531565    -0.794613270660    15.994914619570
         O            0.487471448509    -1.059763531565     1.116067829340    15.994914619570
         C           -0.800984051491     0.801375168435     0.452881929340    12.000000000000
         C           -3.389941551491     0.597580468435     0.238826829340    12.000000000000
         C           -2.016334551491     0.054193468435    -0.093610170660    12.000000000000
         C            0.425906448509    -0.001870531565     0.509813829340    12.000000000000
         C           -4.518371551491    -0.277371531565    -0.283041170660    12.000000000000
         C            3.050932448509    -0.554542531565    -0.006814170660    12.000000000000
         C            4.436588448509    -0.044837531565    -0.372613170660    12.000000000000
         H           -0.700902551491     1.747992468435    -0.118789170660     1.007825032230
         H           -1.054115551491     1.152679468435     1.503096829340     1.007825032230
         H           -3.459503551491     0.725593468435     1.326883829340     1.007825032230
         H           -3.450961551491     1.613205468435    -0.181212170660     1.007825032230
         H           -5.488577551491     0.167828468435    -0.048675170660     1.007825032230
         H           -4.439385551491    -0.401495531565    -1.364692170660     1.007825032230
         H           -4.472857551491    -1.271238531565     0.168304829340     1.007825032230
         H            2.989761448509    -0.806628531565     1.051424829340     1.007825032230
         H            2.795812448509    -1.450957531565    -0.574557170660     1.007825032230
         H            4.494614448509     0.226588468435    -1.429661170660     1.007825032230
         H            4.701937448509     0.831767468435     0.222838829340     1.007825032230
         H            5.179464448509    -0.824479531565    -0.183278170660     1.007825032230

  Basis Set: AUG-CC-PVTZ
    Blend: AUG-CC-PVTZ
  Basis Set: (AUG-CC-PVTZ AUX)
    Blend: AUG-CC-PVTZ-JKFIT
	 Reference Energy          =    -819.4906416869039276 [Eh]
	 Singles Energy            =      -0.0000000000000000 [Eh]
	 Same-Spin Energy          =      -0.4846524958290789 [Eh]
	 Opposite-Spin Energy      =      -1.5716542464921841 [Eh]
	 Correlation Energy        =      -2.0563067423212629 [Eh]
	 Total Energy              =    -821.5469484292251536 [Eh]

	 ================> DF-SCS-MP2 Energies <==================
	-----------------------------------------------------------
	 SCS Same-Spin Scale       =       0.3333333333333333 [-]
	 SCS Opposite-Spin Scale   =       1.2000000000000000 [-]
	 SCS Same-Spin Energy      =      -0.1615508319430263 [Eh]
	 SCS Opposite-Spin Energy  =      -1.8859850957906208 [Eh]
	 SCS Correlation Energy    =      -2.0475359277336471 [Eh]
	 SCS Total Energy          =    -821.5381776146375614 [Eh]
	-----------------------------------------------------------

  Dipole Moment: [D]
     X:    -0.2312      Y:     2.8470      Z:     0.6611     Total:     2.9319

*** Psi4 exiting successfully. Buy a developer a beer!
