                               Psi4 1.4a3.dev225

  ==> Input File <==

--------------------------------------------------------------------------
#psi4
#
memory 32 gb

molecule  {
0 1
  S        1.5586770    -0.2994370    -0.7152220
  O       -1.5255240    -0.4876820     1.0921970
  O        0.7924220     1.7006740     0.8461850
  C       -0.8878030     0.9736540    -0.7120840
  C       -3.2304390    -0.0998550    -0.5631210
  C       -1.8542380     0.0638590     0.0480780
  C        0.4791140     0.9485020    -0.0654040
  C       -4.1634610    -0.9398430     0.2972900
  C        2.9344200    -0.0814315     0.4198637
  C        4.0540790    -1.0751370     0.1033520
  H       -0.8484610     0.6756560    -1.7668750
  H       -1.2645150     2.0025910    -0.6674260
  H       -3.6447290     0.9013370    -0.7419330
  H       -3.1015980    -0.5455960    -1.5588690
  H       -5.1413450    -1.0357370    -0.1813640
  H       -3.7504260    -1.9381500     0.4523140
  H       -4.2995020    -0.4825820     1.2793320
  H        3.3022180     0.9509290     0.3487650
  H        2.5726230    -0.2199470     1.4475820
  H        3.7004310    -2.1050230     0.1947960
  H        4.4320470    -0.9299840    -0.9117720
  H        4.8873260    -0.9394890     0.7982930
units angstrom
no_reorient  #important for SAPT in psi4, default
symmetry c1  #important for SAPT in psi4, default
}

set PROPERTIES_ORIGIN ["COM"]
properties('MP2/aug-cc-pvtz', properties = ['dipole'])
--------------------------------------------------------------------------

    Molecular point group: c1
  Charge       = 0
  Multiplicity = 1
  Basis Set: AUG-CC-PVTZ
    Blend: AUG-CC-PVTZ
  Basis Set: (AUG-CC-PVTZ AUX)
    Blend: AUG-CC-PVTZ-JKFIT

    Orbital Energies [Eh]
    ---------------------

    Doubly Occupied:

       1A    -91.969072     2A    -20.559443     3A    -20.555476
       4A    -11.365733     5A    -11.350106     6A    -11.266719
       7A    -11.261022     8A    -11.252569     9A    -11.230121
      10A    -11.224679    11A     -8.971085    12A     -6.652301
      13A     -6.651164    14A     -6.650499    15A     -1.397103
      16A     -1.385922    17A     -1.094507    18A     -1.077578
      19A     -1.043457    20A     -0.969754    21A     -0.898138
      22A     -0.835052    23A     -0.760983    24A     -0.727000
      25A     -0.678726    26A     -0.670870    27A     -0.649758
      28A     -0.637164    29A     -0.630250    30A     -0.610823
      31A     -0.591322    32A     -0.559264    33A     -0.546246
      34A     -0.531029    35A     -0.524346    36A     -0.522340
      37A     -0.512043    38A     -0.503188    39A     -0.494016
      40A     -0.467041    41A     -0.432574    42A     -0.407027
      43A     -0.367904

  @DF-RHF Final Energy:  -819.49508772539764

   => Energetics <=

    Nuclear Repulsion Energy =            610.5732410678283486
    One-Electron Energy =               -2337.1658294367430244
    Two-Electron Energy =                 907.0975006435170371
    Total Energy =                       -819.4950877253976387
  Basis Set: (AUG-CC-PVTZ AUX)
    Blend: AUG-CC-PVTZ-RI
    Molecular point group: c1

    Geometry (in Angstrom), charge = 0, multiplicity = 1:

       Center              X                  Y                   Z               Mass
    ------------   -----------------  -----------------  -----------------  -----------------
         S            1.540510424292    -0.321994026055    -0.722440962069    31.972071174400
         O           -1.543690575708    -0.510239026055     1.084978037931    15.994914619570
         O            0.774255424292     1.678116973945     0.838966037931    15.994914619570
         C           -0.905969575708     0.951096973945    -0.719302962069    12.000000000000
         C           -3.248605575708    -0.122412026055    -0.570339962069    12.000000000000
         C           -1.872404575708     0.041301973945     0.040859037931    12.000000000000
         C            0.460947424292     0.925944973945    -0.072622962069    12.000000000000
         C           -4.181627575708    -0.962400026055     0.290071037931    12.000000000000
         C            2.916253424292    -0.103988526055     0.412644737931    12.000000000000
         C            4.035912424292    -1.097694026055     0.096133037931    12.000000000000
         H           -0.866627575708     0.653098973945    -1.774093962069     1.007825032230
         H           -1.282681575708     1.980033973945    -0.674644962069     1.007825032230
         H           -3.662895575708     0.878779973945    -0.749151962069     1.007825032230
         H           -3.119764575708    -0.568153026055    -1.566087962069     1.007825032230
         H           -5.159511575708    -1.058294026055    -0.188582962069     1.007825032230
         H           -3.768592575708    -1.960707026055     0.445095037931     1.007825032230
         H           -4.317668575708    -0.505139026055     1.272113037931     1.007825032230
         H            3.284051424292     0.928371973945     0.341546037931     1.007825032230
         H            2.554456424292    -0.242504026055     1.440363037931     1.007825032230
         H            3.682264424292    -2.127580026055     0.187577037931     1.007825032230
         H            4.413880424292    -0.952541026055    -0.918990962069     1.007825032230
         H            4.869159424292    -0.962046026055     0.791074037931     1.007825032230

  Basis Set: AUG-CC-PVTZ
    Blend: AUG-CC-PVTZ
  Basis Set: (AUG-CC-PVTZ AUX)
    Blend: AUG-CC-PVTZ-JKFIT
	 Reference Energy          =    -819.4950877253976387 [Eh]
	 Singles Energy            =      -0.0000000000000000 [Eh]
	 Same-Spin Energy          =      -0.4846671621569420 [Eh]
	 Opposite-Spin Energy      =      -1.5715163419928997 [Eh]
	 Correlation Energy        =      -2.0561835041498417 [Eh]
	 Total Energy              =    -821.5512712295475239 [Eh]

	 ================> DF-SCS-MP2 Energies <==================
	-----------------------------------------------------------
	 SCS Same-Spin Scale       =       0.3333333333333333 [-]
	 SCS Opposite-Spin Scale   =       1.2000000000000000 [-]
	 SCS Same-Spin Energy      =      -0.1615557207189807 [Eh]
	 SCS Opposite-Spin Energy  =      -1.8858196103914795 [Eh]
	 SCS Correlation Energy    =      -2.0473753311104601 [Eh]
	 SCS Total Energy          =    -821.5424630565081543 [Eh]
	-----------------------------------------------------------

  Dipole Moment: [D]
     X:    -0.7877      Y:    -0.2087      Z:    -2.7030     Total:     2.8231

*** Psi4 exiting successfully. Buy a developer a beer!
