                               Psi4 1.3.2 release

  ==> Input File <==

--------------------------------------------------------------------------
#psi4
#
memory 32 gb

molecule  {
0 1
  S        1.8296604     0.7422985    -0.3216752
  O       -1.8432130    -0.9348080    -0.8000930
  O        0.4941690    -1.0618130     1.1146640
  C       -0.8273310     0.8335030     0.4756360
  C       -3.3832440     0.5955310     0.2374230
  C       -2.0096370     0.0521440    -0.0950140
  C        0.4326040    -0.0039200     0.5084100
  C       -4.5116740    -0.2794210    -0.2844450
  C        3.0576300    -0.5565920    -0.0082180
  C        4.4432860    -0.0468870    -0.3740170
  H       -0.6942050     1.7459430    -0.1201930
  H       -1.0474180     1.1506300     1.5016930
  H       -3.4528060     0.7235440     1.3254800
  H       -3.4442640     1.6111560    -0.1826160
  H       -5.4818800     0.1657790    -0.0500790
  H       -4.4326880    -0.4035450    -1.3660960
  H       -4.4661600    -1.2732880     0.1669010
  H        2.9964590    -0.8086780     1.0500210
  H        2.8178615    -1.4617118    -0.5687957
  H        4.5013120     0.2245390    -1.4310650
  H        4.7086350     0.8297180     0.2214350
  H        5.1861620    -0.8265290    -0.1846820
units angstrom
no_reorient  #important for SAPT in psi4, default
symmetry c1  #important for SAPT in psi4, default
}

set PROPERTIES_ORIGIN ["COM"]
properties('MP2/aug-cc-pvtz', properties = ['dipole'])
--------------------------------------------------------------------------

    Molecular point group: c1
  Charge       = 0
  Multiplicity = 1
  Basis Set: AUG-CC-PVTZ
    Blend: AUG-CC-PVTZ
  Basis Set: (AUG-CC-PVTZ AUX)
    Blend: AUG-CC-PVTZ-JKFIT

    Orbital Energies [Eh]
    ---------------------

    Doubly Occupied:

       1A    -91.972606     2A    -20.556408     3A    -20.555796
       4A    -11.368678     5A    -11.346329     6A    -11.267204
       7A    -11.262209     8A    -11.250055     9A    -11.230974
      10A    -11.222434    11A     -8.973953    12A     -6.655093
      13A     -6.653965    14A     -6.653351    15A     -1.397883
      16A     -1.384357    17A     -1.093213    18A     -1.077202
      19A     -1.042712    20A     -0.970623    21A     -0.896206
      22A     -0.836752    23A     -0.760690    24A     -0.727484
      25A     -0.678326    26A     -0.668398    27A     -0.648315
      28A     -0.637140    29A     -0.633770    30A     -0.608727
      31A     -0.595453    32A     -0.559605    33A     -0.545735
      34A     -0.533109    35A     -0.525971    36A     -0.520872
      37A     -0.511841    38A     -0.504604    39A     -0.488915
      40A     -0.466071    41A     -0.430134    42A     -0.406061
      43A     -0.371247

  @DF-RHF Final Energy:  -819.49413490587631

   => Energetics <=

    Nuclear Repulsion Energy =            602.9211966404782288
    One-Electron Energy =               -2321.8497282917810480
    Two-Electron Energy =                 899.4343967454265112
    Total Energy =                       -819.4941349058763080
  Basis Set: (AUG-CC-PVTZ AUX)
    Blend: AUG-CC-PVTZ-RI
    Molecular point group: c1

    Geometry (in Angstrom), charge = 0, multiplicity = 1:

       Center              X                  Y                   Z               Mass
    ------------   -----------------  -----------------  -----------------  -----------------
         S            1.826481352542     0.738424737299    -0.325605391106    31.972071174400
         O           -1.846392047458    -0.938681762701    -0.804023191106    15.994914619570
         O            0.490989952542    -1.065686762701     1.110733808894    15.994914619570
         C           -0.830510047458     0.829629237299     0.471705808894    12.000000000000
         C           -3.386423047458     0.591657237299     0.233492808894    12.000000000000
         C           -2.012816047458     0.048270237299    -0.098944191106    12.000000000000
         C            0.429424952542    -0.007793762701     0.504479808894    12.000000000000
         C           -4.514853047458    -0.283294762701    -0.288375191106    12.000000000000
         C            3.054450952542    -0.560465762701    -0.012148191106    12.000000000000
         C            4.440106952542    -0.050760762701    -0.377947191106    12.000000000000
         H           -0.697384047458     1.742069237299    -0.124123191106     1.007825032230
         H           -1.050597047458     1.146756237299     1.497762808894     1.007825032230
         H           -3.455985047458     0.719670237299     1.321549808894     1.007825032230
         H           -3.447443047458     1.607282237299    -0.186546191106     1.007825032230
         H           -5.485059047458     0.161905237299    -0.054009191106     1.007825032230
         H           -4.435867047458    -0.407418762701    -1.370026191106     1.007825032230
         H           -4.469339047458    -1.277161762701     0.162970808894     1.007825032230
         H            2.993279952542    -0.812551762701     1.046090808894     1.007825032230
         H            2.814682452542    -1.465585562701    -0.572725891106     1.007825032230
         H            4.498132952542     0.220665237299    -1.434995191106     1.007825032230
         H            4.705455952542     0.825844237299     0.217504808894     1.007825032230
         H            5.182982952542    -0.830402762701    -0.188612191106     1.007825032230

  Basis Set: AUG-CC-PVTZ
    Blend: AUG-CC-PVTZ
  Basis Set: (AUG-CC-PVTZ AUX)
    Blend: AUG-CC-PVTZ-JKFIT
	 Reference Energy          =    -819.4941349058763080 [Eh]
	 Singles Energy            =      -0.0000000000000000 [Eh]
	 Same-Spin Energy          =      -0.4841830031248879 [Eh]
	 Opposite-Spin Energy      =      -1.5712168063615743 [Eh]
	 Correlation Energy        =      -2.0553998094864623 [Eh]
	 Total Energy              =    -821.5495347153628245 [Eh]

	 ================> DF-SCS-MP2 Energies <==================
	-----------------------------------------------------------
	 SCS Same-Spin Scale       =       0.3333333333333333 [-]
	 SCS Opposite-Spin Scale   =       1.2000000000000000 [-]
	 SCS Same-Spin Energy      =      -0.1613943343749626 [Eh]
	 SCS Opposite-Spin Energy  =      -1.8854601676338891 [Eh]
	 SCS Correlation Energy    =      -2.0468545020088520 [Eh]
	 SCS Total Energy          =    -821.5409894078851494 [Eh]
	-----------------------------------------------------------

  Dipole Moment: [D]
     X:    -0.0581      Y:     2.8162      Z:     0.6996     Total:     2.9024

*** Psi4 exiting successfully. Buy a developer a beer!
