                               Psi4 1.3.2 release

  ==> Input File <==

--------------------------------------------------------------------------
#psi4
#
memory 32 gb

molecule  {
0 1
  S        1.7845101     0.6821330    -0.3797115
  O       -1.8432130    -0.9348080    -0.8000930
  O        0.4941690    -1.0618130     1.1146640
  C       -0.8273310     0.8335030     0.4756360
  C       -3.3832440     0.5955310     0.2374230
  C       -2.0096370     0.0521440    -0.0950140
  C        0.4326040    -0.0039200     0.5084100
  C       -4.5116740    -0.2794210    -0.2844450
  C        3.0576300    -0.5565920    -0.0082180
  C        4.4432860    -0.0468870    -0.3740170
  H       -0.6942050     1.7459430    -0.1201930
  H       -1.0474180     1.1506300     1.5016930
  H       -3.4528060     0.7235440     1.3254800
  H       -3.4442640     1.6111560    -0.1826160
  H       -5.4818800     0.1657790    -0.0500790
  H       -4.4326880    -0.4035450    -1.3660960
  H       -4.4661600    -1.2732880     0.1669010
  H        2.9964590    -0.8086780     1.0500210
  H        2.7720448    -1.4347809    -0.5897706
  H        4.5013120     0.2245390    -1.4310650
  H        4.7086350     0.8297180     0.2214350
  H        5.1861620    -0.8265290    -0.1846820
units angstrom
no_reorient  #important for SAPT in psi4, default
symmetry c1  #important for SAPT in psi4, default
}

set PROPERTIES_ORIGIN ["COM"]
properties('MP2/aug-cc-pvtz', properties = ['dipole'])
--------------------------------------------------------------------------

    Molecular point group: c1
  Charge       = 0
  Multiplicity = 1
  Basis Set: AUG-CC-PVTZ
    Blend: AUG-CC-PVTZ
  Basis Set: (AUG-CC-PVTZ AUX)
    Blend: AUG-CC-PVTZ-JKFIT

    Orbital Energies [Eh]
    ---------------------

    Doubly Occupied:

       1A    -91.971070     2A    -20.555130     3A    -20.552647
       4A    -11.365152     5A    -11.345670     6A    -11.266152
       7A    -11.263336     8A    -11.249592     9A    -11.232886
      10A    -11.222058    11A     -8.973204    12A     -6.654382
      13A     -6.653251    14A     -6.652630    15A     -1.396499
      16A     -1.383258    17A     -1.095381    18A     -1.077135
      19A     -1.042693    20A     -0.974812    21A     -0.896119
      22A     -0.839559    23A     -0.758844    24A     -0.725841
      25A     -0.677798    26A     -0.668144    27A     -0.647767
      28A     -0.638959    29A     -0.633675    30A     -0.608492
      31A     -0.594379    32A     -0.560167    33A     -0.547012
      34A     -0.533308    35A     -0.529397    36A     -0.520685
      37A     -0.511894    38A     -0.504785    39A     -0.488237
      40A     -0.463441    41A     -0.429062    42A     -0.406962
      43A     -0.370505

  @DF-RHF Final Energy:  -819.49465171897941

   => Energetics <=

    Nuclear Repulsion Energy =            604.4324399591721431
    One-Electron Energy =               -2324.8902472172530906
    Two-Electron Energy =                 900.9631555391015354
    Total Energy =                       -819.4946517189794122
  Basis Set: (AUG-CC-PVTZ AUX)
    Blend: AUG-CC-PVTZ-RI
    Molecular point group: c1

    Geometry (in Angstrom), charge = 0, multiplicity = 1:

       Center              X                  Y                   Z               Mass
    ------------   -----------------  -----------------  -----------------  -----------------
         S            1.790638580384     0.690108067542    -0.371916531917    31.972071174400
         O           -1.837084519616    -0.926832932458    -0.792298031917    15.994914619570
         O            0.500297480384    -1.053837932458     1.122458968083    15.994914619570
         C           -0.821202519616     0.841478067542     0.483430968083    12.000000000000
         C           -3.377115519616     0.603506067542     0.245217968083    12.000000000000
         C           -2.003508519616     0.060119067542    -0.087219031917    12.000000000000
         C            0.438732480384     0.004055067542     0.516204968083    12.000000000000
         C           -4.505545519616    -0.271445932458    -0.276650031917    12.000000000000
         C            3.063758480384    -0.548616932458    -0.000423031917    12.000000000000
         C            4.449414480384    -0.038911932458    -0.366222031917    12.000000000000
         H           -0.688076519616     1.753918067542    -0.112398031917     1.007825032230
         H           -1.041289519616     1.158605067542     1.509487968083     1.007825032230
         H           -3.446677519616     0.731519067542     1.333274968083     1.007825032230
         H           -3.438135519616     1.619131067542    -0.174821031917     1.007825032230
         H           -5.475751519616     0.173754067542    -0.042284031917     1.007825032230
         H           -4.426559519616    -0.395569932458    -1.358301031917     1.007825032230
         H           -4.460031519616    -1.265312932458     0.174695968083     1.007825032230
         H            3.002587480384    -0.800702932458     1.057815968083     1.007825032230
         H            2.778173280384    -1.426805832458    -0.581975631917     1.007825032230
         H            4.507440480384     0.232514067542    -1.423270031917     1.007825032230
         H            4.714763480384     0.837693067542     0.229229968083     1.007825032230
         H            5.192290480384    -0.818553932458    -0.176887031917     1.007825032230

  Basis Set: AUG-CC-PVTZ
    Blend: AUG-CC-PVTZ
  Basis Set: (AUG-CC-PVTZ AUX)
    Blend: AUG-CC-PVTZ-JKFIT
	 Reference Energy          =    -819.4946517189794122 [Eh]
	 Singles Energy            =      -0.0000000000000000 [Eh]
	 Same-Spin Energy          =      -0.4843301300932599 [Eh]
	 Opposite-Spin Energy      =      -1.5708680845174299 [Eh]
	 Correlation Energy        =      -2.0551982146106900 [Eh]
	 Total Energy              =    -821.5498499335900533 [Eh]

	 ================> DF-SCS-MP2 Energies <==================
	-----------------------------------------------------------
	 SCS Same-Spin Scale       =       0.3333333333333333 [-]
	 SCS Opposite-Spin Scale   =       1.2000000000000000 [-]
	 SCS Same-Spin Energy      =      -0.1614433766977533 [Eh]
	 SCS Opposite-Spin Energy  =      -1.8850417014209158 [Eh]
	 SCS Correlation Energy    =      -2.0464850781186690 [Eh]
	 SCS Total Energy          =    -821.5411367970980336 [Eh]
	-----------------------------------------------------------

  Dipole Moment: [D]
     X:     0.1082      Y:     2.8684      Z:     0.6529     Total:     2.9437

*** Psi4 exiting successfully. Buy a developer a beer!
