                               Psi4 1.3.2 release

  ==> Input File <==

--------------------------------------------------------------------------
#psi4
#
memory 32 gb

molecule  {
0 1
  S        1.8142300     0.7226310    -0.3411240
  O       -1.8432130    -0.9348080    -0.8000930
  O        0.4941690    -1.0618130     1.1146640
  C       -0.8273310     0.8335030     0.4756360
  C       -3.3832440     0.5955310     0.2374230
  C       -2.1003564     0.0880318    -0.0730583
  C        0.4326040    -0.0039200     0.5084100
  C       -4.5116740    -0.2794210    -0.2844450
  C        3.0576300    -0.5565920    -0.0082180
  C        4.4432860    -0.0468870    -0.3740170
  H       -0.6942050     1.7459430    -0.1201930
  H       -1.0474180     1.1506300     1.5016930
  H       -3.4528060     0.7235440     1.3254800
  H       -3.4442640     1.6111560    -0.1826160
  H       -5.4818800     0.1657790    -0.0500790
  H       -4.4326880    -0.4035450    -1.3660960
  H       -4.4661600    -1.2732880     0.1669010
  H        2.9964590    -0.8086780     1.0500210
  H        2.8025100    -1.4530070    -0.5759610
  H        4.5013120     0.2245390    -1.4310650
  H        4.7086350     0.8297180     0.2214350
  H        5.1861620    -0.8265290    -0.1846820
units angstrom
no_reorient  #important for SAPT in psi4, default
symmetry c1  #important for SAPT in psi4, default
}

set PROPERTIES_ORIGIN ["COM"]
properties('MP2/aug-cc-pvtz', properties = ['dipole'])
--------------------------------------------------------------------------

    Molecular point group: c1
  Charge       = 0
  Multiplicity = 1
  Basis Set: AUG-CC-PVTZ
    Blend: AUG-CC-PVTZ
  Basis Set: (AUG-CC-PVTZ AUX)
    Blend: AUG-CC-PVTZ-JKFIT

    Orbital Energies [Eh]
    ---------------------

    Doubly Occupied:

       1A    -91.970621     2A    -20.552378     3A    -20.551313
       4A    -11.365918     5A    -11.351635     6A    -11.267775
       7A    -11.261303     8A    -11.252982     9A    -11.230587
      10A    -11.227252    11A     -8.972202    12A     -6.653357
      13A     -6.652237    14A     -6.651614    15A     -1.390722
      16A     -1.351808    17A     -1.099298    18A     -1.086644
      19A     -1.041804    20A     -0.969845    21A     -0.912120
      22A     -0.836894    23A     -0.757936    24A     -0.725681
      25A     -0.674782    26A     -0.667583    27A     -0.646675
      28A     -0.641504    29A     -0.633242    30A     -0.600088
      31A     -0.593738    32A     -0.558023    33A     -0.548570
      34A     -0.531878    35A     -0.526173    36A     -0.520618
      37A     -0.514167    38A     -0.502598    39A     -0.470319
      40A     -0.462764    41A     -0.429350    42A     -0.408967
      43A     -0.369239

  @DF-RHF Final Energy:  -819.47545432397919

   => Energetics <=

    Nuclear Repulsion Energy =            602.5802856932347140
    One-Electron Energy =               -2321.2430719074436638
    Two-Electron Energy =                 899.1873318902298706
    Total Energy =                       -819.4754543239791928
  Basis Set: (AUG-CC-PVTZ AUX)
    Blend: AUG-CC-PVTZ-RI
    Molecular point group: c1

    Geometry (in Angstrom), charge = 0, multiplicity = 1:

       Center              X                  Y                   Z               Mass
    ------------   -----------------  -----------------  -----------------  -----------------
         S            1.821031510978     0.719940475854    -0.342770166505    31.972071174400
         O           -1.836411489022    -0.937498524146    -0.801739166505    15.994914619570
         O            0.500970510978    -1.064503524146     1.113017833495    15.994914619570
         C           -0.820529489022     0.830812475854     0.473989833495    12.000000000000
         C           -3.376442489022     0.592840475854     0.235776833495    12.000000000000
         C           -2.093554889022     0.085341275854    -0.074704466505    12.000000000000
         C            0.439405510978    -0.006610524146     0.506763833495    12.000000000000
         C           -4.504872489022    -0.282111524146    -0.286091166505    12.000000000000
         C            3.064431510978    -0.559282524146    -0.009864166505    12.000000000000
         C            4.450087510978    -0.049577524146    -0.375663166505    12.000000000000
         H           -0.687403489022     1.743252475854    -0.121839166505     1.007825032230
         H           -1.040616489022     1.147939475854     1.500046833495     1.007825032230
         H           -3.446004489022     0.720853475854     1.323833833495     1.007825032230
         H           -3.437462489022     1.608465475854    -0.184262166505     1.007825032230
         H           -5.475078489022     0.163088475854    -0.051725166505     1.007825032230
         H           -4.425886489022    -0.406235524146    -1.367742166505     1.007825032230
         H           -4.459358489022    -1.275978524146     0.165254833495     1.007825032230
         H            3.003260510978    -0.811368524146     1.048374833495     1.007825032230
         H            2.809311510978    -1.455697524146    -0.577607166505     1.007825032230
         H            4.508113510978     0.221848475854    -1.432711166505     1.007825032230
         H            4.715436510978     0.827027475854     0.219788833495     1.007825032230
         H            5.192963510978    -0.829219524146    -0.186328166505     1.007825032230

  Basis Set: AUG-CC-PVTZ
    Blend: AUG-CC-PVTZ
  Basis Set: (AUG-CC-PVTZ AUX)
    Blend: AUG-CC-PVTZ-JKFIT
	 Reference Energy          =    -819.4754543239791928 [Eh]
	 Singles Energy            =      -0.0000000000000000 [Eh]
	 Same-Spin Energy          =      -0.4864297603938783 [Eh]
	 Opposite-Spin Energy      =      -1.5754573853061979 [Eh]
	 Correlation Energy        =      -2.0618871457000760 [Eh]
	 Total Energy              =    -821.5373414696792906 [Eh]

	 ================> DF-SCS-MP2 Energies <==================
	-----------------------------------------------------------
	 SCS Same-Spin Scale       =       0.3333333333333333 [-]
	 SCS Opposite-Spin Scale   =       1.2000000000000000 [-]
	 SCS Same-Spin Energy      =      -0.1621432534646261 [Eh]
	 SCS Opposite-Spin Energy  =      -1.8905488623674374 [Eh]
	 SCS Correlation Energy    =      -2.0526921158320635 [Eh]
	 SCS Total Energy          =    -821.5281464398112803 [Eh]
	-----------------------------------------------------------

  Dipole Moment: [D]
     X:    -0.4823      Y:     2.9555      Z:     0.7560     Total:     3.0886

*** Psi4 exiting successfully. Buy a developer a beer!
