                               Psi4 1.3.2 release

  ==> Input File <==

--------------------------------------------------------------------------
#psi4
#
memory 32 gb

molecule  {
0 1
  S        1.8142300     0.7226310    -0.3411240
  O       -1.8432130    -0.9348080    -0.8000930
  O        0.4941690    -1.0618130     1.1146640
  C       -0.8273310     0.8335030     0.4756360
  C       -3.3832440     0.5955310     0.2374230
  C       -2.0096370     0.0521440    -0.0950140
  C        0.4326040    -0.0039200     0.5084100
  C       -4.5116740    -0.2794210    -0.2844450
  C        3.0576300    -0.5565920    -0.0082180
  C        4.4432860    -0.0468870    -0.3740170
  H       -0.6699529     1.9121656    -0.2287374
  H       -1.0474180     1.1506300     1.5016930
  H       -3.4528060     0.7235440     1.3254800
  H       -3.4442640     1.6111560    -0.1826160
  H       -5.4818800     0.1657790    -0.0500790
  H       -4.4326880    -0.4035450    -1.3660960
  H       -4.4661600    -1.2732880     0.1669010
  H        2.9964590    -0.8086780     1.0500210
  H        2.8025100    -1.4530070    -0.5759610
  H        4.5013120     0.2245390    -1.4310650
  H        4.7086350     0.8297180     0.2214350
  H        5.1861620    -0.8265290    -0.1846820
units angstrom
no_reorient  #important for SAPT in psi4, default
symmetry c1  #important for SAPT in psi4, default
}

set PROPERTIES_ORIGIN ["COM"]
properties('MP2/aug-cc-pvtz', properties = ['dipole'])
--------------------------------------------------------------------------

    Molecular point group: c1
  Charge       = 0
  Multiplicity = 1
  Basis Set: AUG-CC-PVTZ
    Blend: AUG-CC-PVTZ
  Basis Set: (AUG-CC-PVTZ AUX)
    Blend: AUG-CC-PVTZ-JKFIT

    Orbital Energies [Eh]
    ---------------------

    Doubly Occupied:

       1A    -91.972276     2A    -20.557055     3A    -20.556428
       4A    -11.369595     5A    -11.347482     6A    -11.287593
       7A    -11.262182     8A    -11.249827     9A    -11.231531
      10A    -11.222313    11A     -8.973814    12A     -6.654946
      13A     -6.653817    14A     -6.653200    15A     -1.398838
      16A     -1.385093    17A     -1.091561    18A     -1.075252
      19A     -1.037816    20A     -0.971217    21A     -0.895685
      22A     -0.837023    23A     -0.760983    24A     -0.720874
      25A     -0.676818    26A     -0.659642    27A     -0.649616
      28A     -0.637502    29A     -0.633855    30A     -0.608645
      31A     -0.577272    32A     -0.556500    33A     -0.546281
      34A     -0.533575    35A     -0.527225    36A     -0.520884
      37A     -0.507873    38A     -0.503468    39A     -0.486703
      40A     -0.465031    41A     -0.429520    42A     -0.407602
      43A     -0.371151

  @DF-RHF Final Energy:  -819.47417604569523

   => Energetics <=

    Nuclear Repulsion Energy =            602.5122425535994353
    One-Electron Energy =               -2321.0417111074943932
    Two-Electron Energy =                 899.0552925081997273
    Total Energy =                       -819.4741760456952306
  Basis Set: (AUG-CC-PVTZ AUX)
    Blend: AUG-CC-PVTZ-RI
    Molecular point group: c1

    Geometry (in Angstrom), charge = 0, multiplicity = 1:

       Center              X                  Y                   Z               Mass
    ------------   -----------------  -----------------  -----------------  -----------------
         S            1.814077219613     0.721584466897    -0.340440590435    31.972071174400
         O           -1.843365780387    -0.935854533103    -0.799409590435    15.994914619570
         O            0.494016219613    -1.062859533103     1.115347409565    15.994914619570
         C           -0.827483780387     0.832456466897     0.476319409565    12.000000000000
         C           -3.383396780387     0.594484466897     0.238106409565    12.000000000000
         C           -2.009789780387     0.051097466897    -0.094330590435    12.000000000000
         C            0.432451219613    -0.004966533103     0.509093409565    12.000000000000
         C           -4.511826780387    -0.280467533103    -0.283761590435    12.000000000000
         C            3.057477219613    -0.557638533103    -0.007534590435    12.000000000000
         C            4.443133219613    -0.047933533103    -0.373333590435    12.000000000000
         H           -0.670105680387     1.911119066897    -0.228053990435     1.007825032230
         H           -1.047570780387     1.149583466897     1.502376409565     1.007825032230
         H           -3.452958780387     0.722497466897     1.326163409565     1.007825032230
         H           -3.444416780387     1.610109466897    -0.181932590435     1.007825032230
         H           -5.482032780387     0.164732466897    -0.049395590435     1.007825032230
         H           -4.432840780387    -0.404591533103    -1.365412590435     1.007825032230
         H           -4.466312780387    -1.274334533103     0.167584409565     1.007825032230
         H            2.996306219613    -0.809724533103     1.050704409565     1.007825032230
         H            2.802357219613    -1.454053533103    -0.575277590435     1.007825032230
         H            4.501159219613     0.223492466897    -1.430381590435     1.007825032230
         H            4.708482219613     0.828671466897     0.222118409565     1.007825032230
         H            5.186009219613    -0.827575533103    -0.183998590435     1.007825032230

  Basis Set: AUG-CC-PVTZ
    Blend: AUG-CC-PVTZ
  Basis Set: (AUG-CC-PVTZ AUX)
    Blend: AUG-CC-PVTZ-JKFIT
	 Reference Energy          =    -819.4741760456952306 [Eh]
	 Singles Energy            =      -0.0000000000000000 [Eh]
	 Same-Spin Energy          =      -0.4846202071094454 [Eh]
	 Opposite-Spin Energy      =      -1.5730165258455349 [Eh]
	 Correlation Energy        =      -2.0576367329549803 [Eh]
	 Total Energy              =    -821.5318127786501918 [Eh]

	 ================> DF-SCS-MP2 Energies <==================
	-----------------------------------------------------------
	 SCS Same-Spin Scale       =       0.3333333333333333 [-]
	 SCS Opposite-Spin Scale   =       1.2000000000000000 [-]
	 SCS Same-Spin Energy      =      -0.1615400690364818 [Eh]
	 SCS Opposite-Spin Energy  =      -1.8876198310146417 [Eh]
	 SCS Correlation Energy    =      -2.0491599000511234 [Eh]
	 SCS Total Energy          =    -821.5233359457463393 [Eh]
	-----------------------------------------------------------

  Dipole Moment: [D]
     X:     0.0197      Y:     2.7976      Z:     0.6907     Total:     2.8816

*** Psi4 exiting successfully. Buy a developer a beer!
