                               Psi4 1.3.2 release

  ==> Input File <==

--------------------------------------------------------------------------
#psi4
#
memory 32 gb

molecule  {
0 1
  S        1.8142300     0.7226310    -0.3411240
  O       -1.8432130    -0.9348080    -0.8000930
  O        0.4941690    -1.0618130     1.1146640
  C       -0.8273310     0.8335030     0.4756360
  C       -3.3832440     0.5955310     0.2374230
  C       -2.0096370     0.0521440    -0.0950140
  C        0.5158667    -0.0592610     0.5105759
  C       -4.5116740    -0.2794210    -0.2844450
  C        3.0576300    -0.5565920    -0.0082180
  C        4.4432860    -0.0468870    -0.3740170
  H       -0.6942050     1.7459430    -0.1201930
  H       -1.0474180     1.1506300     1.5016930
  H       -3.4528060     0.7235440     1.3254800
  H       -3.4442640     1.6111560    -0.1826160
  H       -5.4818800     0.1657790    -0.0500790
  H       -4.4326880    -0.4035450    -1.3660960
  H       -4.4661600    -1.2732880     0.1669010
  H        2.9964590    -0.8086780     1.0500210
  H        2.8025100    -1.4530070    -0.5759610
  H        4.5013120     0.2245390    -1.4310650
  H        4.7086350     0.8297180     0.2214350
  H        5.1861620    -0.8265290    -0.1846820
units angstrom
no_reorient  #important for SAPT in psi4, default
symmetry c1  #important for SAPT in psi4, default
}

set PROPERTIES_ORIGIN ["COM"]
properties('MP2/aug-cc-pvtz', properties = ['dipole'])
--------------------------------------------------------------------------

    Molecular point group: c1
  Charge       = 0
  Multiplicity = 1
  Basis Set: AUG-CC-PVTZ
    Blend: AUG-CC-PVTZ
  Basis Set: (AUG-CC-PVTZ AUX)
    Blend: AUG-CC-PVTZ-JKFIT

    Orbital Energies [Eh]
    ---------------------

    Doubly Occupied:

       1A    -91.974876     2A    -20.558463     3A    -20.550234
       4A    -11.362380     5A    -11.339919     6A    -11.264726
       7A    -11.260741     8A    -11.245805     9A    -11.232996
      10A    -11.219485    11A     -8.977368    12A     -6.658585
      13A     -6.657242    14A     -6.656617    15A     -1.428667
      16A     -1.382626    17A     -1.096802    18A     -1.070972
      19A     -1.028261    20A     -0.977667    21A     -0.888345
      22A     -0.839868    23A     -0.751546    24A     -0.725153
      25A     -0.674159    26A     -0.664303    27A     -0.649655
      28A     -0.640439    29A     -0.635981    30A     -0.606619
      31A     -0.593519    32A     -0.564031    33A     -0.556566
      34A     -0.535101    35A     -0.529884    36A     -0.518019
      37A     -0.512868    38A     -0.507688    39A     -0.485387
      40A     -0.466246    41A     -0.425274    42A     -0.397871
      43A     -0.377387

  @DF-RHF Final Energy:  -819.49004724143197

   => Energetics <=

    Nuclear Repulsion Energy =            603.8718194167016691
    One-Electron Energy =               -2323.7430463111713834
    Two-Electron Energy =                 900.3811796530376341
    Total Energy =                       -819.4900472414319665
  Basis Set: (AUG-CC-PVTZ AUX)
    Blend: AUG-CC-PVTZ-RI
    Molecular point group: c1

    Geometry (in Angstrom), charge = 0, multiplicity = 1:

       Center              X                  Y                   Z               Mass
    ------------   -----------------  -----------------  -----------------  -----------------
         S            1.807987402677     0.726780250449    -0.341286448959    31.972071174400
         O           -1.849455597323    -0.930658749551    -0.800255448959    15.994914619570
         O            0.487926402677    -1.057663749551     1.114501551041    15.994914619570
         C           -0.833573597323     0.837652250449     0.475473551041    12.000000000000
         C           -3.389486597323     0.599680250449     0.237260551041    12.000000000000
         C           -2.015879597323     0.056293250449    -0.095176448959    12.000000000000
         C            0.509624102677    -0.055111749551     0.510413451041    12.000000000000
         C           -4.517916597323    -0.275271749551    -0.284607448959    12.000000000000
         C            3.051387402677    -0.552442749551    -0.008380448959    12.000000000000
         C            4.437043402677    -0.042737749551    -0.374179448959    12.000000000000
         H           -0.700447597323     1.750092250449    -0.120355448959     1.007825032230
         H           -1.053660597323     1.154779250449     1.501530551041     1.007825032230
         H           -3.459048597323     0.727693250449     1.325317551041     1.007825032230
         H           -3.450506597323     1.615305250449    -0.182778448959     1.007825032230
         H           -5.488122597323     0.169928250449    -0.050241448959     1.007825032230
         H           -4.438930597323    -0.399395749551    -1.366258448959     1.007825032230
         H           -4.472402597323    -1.269138749551     0.166738551041     1.007825032230
         H            2.990216402677    -0.804528749551     1.049858551041     1.007825032230
         H            2.796267402677    -1.448857749551    -0.576123448959     1.007825032230
         H            4.495069402677     0.228688250449    -1.431227448959     1.007825032230
         H            4.702392402677     0.833867250449     0.221272551041     1.007825032230
         H            5.179919402677    -0.822379749551    -0.184844448959     1.007825032230

  Basis Set: AUG-CC-PVTZ
    Blend: AUG-CC-PVTZ
  Basis Set: (AUG-CC-PVTZ AUX)
    Blend: AUG-CC-PVTZ-JKFIT
	 Reference Energy          =    -819.4900472414319665 [Eh]
	 Singles Energy            =      -0.0000000000000000 [Eh]
	 Same-Spin Energy          =      -0.4829404097466735 [Eh]
	 Opposite-Spin Energy      =      -1.5685275711329871 [Eh]
	 Correlation Energy        =      -2.0514679808796608 [Eh]
	 Total Energy              =    -821.5415152223116593 [Eh]

	 ================> DF-SCS-MP2 Energies <==================
	-----------------------------------------------------------
	 SCS Same-Spin Scale       =       0.3333333333333333 [-]
	 SCS Opposite-Spin Scale   =       1.2000000000000000 [-]
	 SCS Same-Spin Energy      =      -0.1609801365822245 [Eh]
	 SCS Opposite-Spin Energy  =      -1.8822330853595846 [Eh]
	 SCS Correlation Energy    =      -2.0432132219418091 [Eh]
	 SCS Total Energy          =    -821.5332604633737219 [Eh]
	-----------------------------------------------------------

  Dipole Moment: [D]
     X:     0.5362      Y:     2.6996      Z:     0.6700     Total:     2.8327

*** Psi4 exiting successfully. Buy a developer a beer!
