                               Psi4 1.3.2 release

  ==> Input File <==

--------------------------------------------------------------------------
#psi4
#
memory 32 gb

molecule  {
0 1
  S        1.8142300     0.7226310    -0.3411240
  O       -1.8432130    -0.9348080    -0.8000930
  O        0.4941690    -1.0618130     1.1146640
  C       -0.8273310     0.8335030     0.4756360
  C       -3.3832440     0.5955310     0.2374230
  C       -1.9937085     0.1206085    -0.1316568
  C        0.4326040    -0.0039200     0.5084100
  C       -4.5116740    -0.2794210    -0.2844450
  C        3.0576300    -0.5565920    -0.0082180
  C        4.4432860    -0.0468870    -0.3740170
  H       -0.6942050     1.7459430    -0.1201930
  H       -1.0474180     1.1506300     1.5016930
  H       -3.4528060     0.7235440     1.3254800
  H       -3.3904327     1.6046795    -0.2021427
  H       -5.4818800     0.1657790    -0.0500790
  H       -4.4326880    -0.4035450    -1.3660960
  H       -4.4661600    -1.2732880     0.1669010
  H        2.9964590    -0.8086780     1.0500210
  H        2.8025100    -1.4530070    -0.5759610
  H        4.5013120     0.2245390    -1.4310650
  H        4.7086350     0.8297180     0.2214350
  H        5.1861620    -0.8265290    -0.1846820
units angstrom
no_reorient  #important for SAPT in psi4, default
symmetry c1  #important for SAPT in psi4, default
}

set PROPERTIES_ORIGIN ["COM"]
properties('MP2/aug-cc-pvtz', properties = ['dipole'])
--------------------------------------------------------------------------

    Molecular point group: c1
  Charge       = 0
  Multiplicity = 1
  Basis Set: AUG-CC-PVTZ
    Blend: AUG-CC-PVTZ
  Basis Set: (AUG-CC-PVTZ AUX)
    Blend: AUG-CC-PVTZ-JKFIT

    Orbital Energies [Eh]
    ---------------------

    Doubly Occupied:

       1A    -91.973295     2A    -20.556417     3A    -20.552101
       4A    -11.369370     5A    -11.347923     6A    -11.269199
       7A    -11.263329     8A    -11.251433     9A    -11.232183
      10A    -11.222867    11A     -8.974878    12A     -6.656029
      13A     -6.654902    14A     -6.654285    15A     -1.395243
      16A     -1.364232    17A     -1.097016    18A     -1.079760
      19A     -1.044818    20A     -0.974435    21A     -0.898965
      22A     -0.839398    23A     -0.763367    24A     -0.725792
      25A     -0.675081    26A     -0.669663    27A     -0.648779
      28A     -0.638901    29A     -0.633914    30A     -0.600425
      31A     -0.595683    32A     -0.560482    33A     -0.547096
      34A     -0.532599    35A     -0.527221    36A     -0.518854
      37A     -0.510333    38A     -0.505890    39A     -0.477364
      40A     -0.465677    41A     -0.430237    42A     -0.409049
      43A     -0.372010

  @DF-RHF Final Energy:  -819.48518864963194

   => Energetics <=

    Nuclear Repulsion Energy =            603.2596770878533334
    One-Electron Energy =               -2322.5287438380792082
    Two-Electron Energy =                 899.7838781005939381
    Total Energy =                       -819.4851886496319366
  Basis Set: (AUG-CC-PVTZ AUX)
    Blend: AUG-CC-PVTZ-RI
    Molecular point group: c1

    Geometry (in Angstrom), charge = 0, multiplicity = 1:

       Center              X                  Y                   Z               Mass
    ------------   -----------------  -----------------  -----------------  -----------------
         S            1.812696746946     0.717538855799    -0.338253857234    31.972071174400
         O           -1.844746253054    -0.939900144201    -0.797222857234    15.994914619570
         O            0.492635746946    -1.066905144201     1.117534142766    15.994914619570
         C           -0.828864253054     0.828410855799     0.478506142766    12.000000000000
         C           -3.384777253054     0.590438855799     0.240293142766    12.000000000000
         C           -1.995241753054     0.115516355799    -0.128786657234    12.000000000000
         C            0.431070746946    -0.009012144201     0.511280142766    12.000000000000
         C           -4.513207253054    -0.284513144201    -0.281574857234    12.000000000000
         C            3.056096746946    -0.561684144201    -0.005347857234    12.000000000000
         C            4.441752746946    -0.051979144201    -0.371146857234    12.000000000000
         H           -0.695738253054     1.740850855799    -0.117322857234     1.007825032230
         H           -1.048951253054     1.145537855799     1.504563142766     1.007825032230
         H           -3.454339253054     0.718451855799     1.328350142766     1.007825032230
         H           -3.391965953054     1.599587355799    -0.199272557234     1.007825032230
         H           -5.483413253054     0.160686855799    -0.047208857234     1.007825032230
         H           -4.434221253054    -0.408637144201    -1.363225857234     1.007825032230
         H           -4.467693253054    -1.278380144201     0.169771142766     1.007825032230
         H            2.994925746946    -0.813770144201     1.052891142766     1.007825032230
         H            2.800976746946    -1.458099144201    -0.573090857234     1.007825032230
         H            4.499778746946     0.219446855799    -1.428194857234     1.007825032230
         H            4.707101746946     0.824625855799     0.224305142766     1.007825032230
         H            5.184628746946    -0.831621144201    -0.181811857234     1.007825032230

  Basis Set: AUG-CC-PVTZ
    Blend: AUG-CC-PVTZ
  Basis Set: (AUG-CC-PVTZ AUX)
    Blend: AUG-CC-PVTZ-JKFIT
	 Reference Energy          =    -819.4851886496319366 [Eh]
	 Singles Energy            =      -0.0000000000000000 [Eh]
	 Same-Spin Energy          =      -0.4854677227579026 [Eh]
	 Opposite-Spin Energy      =      -1.5737437234932714 [Eh]
	 Correlation Energy        =      -2.0592114462511741 [Eh]
	 Total Energy              =    -821.5444000958831339 [Eh]

	 ================> DF-SCS-MP2 Energies <==================
	-----------------------------------------------------------
	 SCS Same-Spin Scale       =       0.3333333333333333 [-]
	 SCS Opposite-Spin Scale   =       1.2000000000000000 [-]
	 SCS Same-Spin Energy      =      -0.1618225742526342 [Eh]
	 SCS Opposite-Spin Energy  =      -1.8884924681919255 [Eh]
	 SCS Correlation Energy    =      -2.0503150424445598 [Eh]
	 SCS Total Energy          =    -821.5355036920765315 [Eh]
	-----------------------------------------------------------

  Dipole Moment: [D]
     X:     0.1379      Y:     2.9256      Z:     0.7379     Total:     3.0204

*** Psi4 exiting successfully. Buy a developer a beer!
