                               Psi4 1.3.2 release

  ==> Input File <==

--------------------------------------------------------------------------
#psi4
#
memory 32 gb

molecule  {
0 1
  S        1.8142300     0.7226310    -0.3411240
  O       -1.8432130    -0.9348080    -0.8000930
  O        0.4941690    -1.0618130     1.1146640
  C       -0.8273310     0.8335030     0.4756360
  C       -3.3832440     0.5955310     0.2374230
  C       -2.0870259     0.0009995    -0.1323664
  C        0.4326040    -0.0039200     0.5084100
  C       -4.5116740    -0.2794210    -0.2844450
  C        3.0576300    -0.5565920    -0.0082180
  C        4.4432860    -0.0468870    -0.3740170
  H       -0.6942050     1.7459430    -0.1201930
  H       -1.0474180     1.1506300     1.5016930
  H       -3.4528060     0.7235440     1.3254800
  H       -3.4442640     1.6111560    -0.1826160
  H       -5.4818800     0.1657790    -0.0500790
  H       -4.4326880    -0.4035450    -1.3660960
  H       -4.4661600    -1.2732880     0.1669010
  H        2.9964590    -0.8086780     1.0500210
  H        2.8025100    -1.4530070    -0.5759610
  H        4.5013120     0.2245390    -1.4310650
  H        4.7086350     0.8297180     0.2214350
  H        5.1861620    -0.8265290    -0.1846820
units angstrom
no_reorient  #important for SAPT in psi4, default
symmetry c1  #important for SAPT in psi4, default
}

set PROPERTIES_ORIGIN ["COM"]
properties('MP2/aug-cc-pvtz', properties = ['dipole'])
--------------------------------------------------------------------------

    Molecular point group: c1
  Charge       = 0
  Multiplicity = 1
  Basis Set: AUG-CC-PVTZ
    Blend: AUG-CC-PVTZ
  Basis Set: (AUG-CC-PVTZ AUX)
    Blend: AUG-CC-PVTZ-JKFIT

    Orbital Energies [Eh]
    ---------------------

    Doubly Occupied:

       1A    -91.968163     2A    -20.562126     3A    -20.550342
       4A    -11.361848     5A    -11.345580     6A    -11.259736
       7A    -11.258402     8A    -11.251379     9A    -11.229490
      10A    -11.225404    11A     -8.969805    12A     -6.650958
      13A     -6.649830    14A     -6.649215    15A     -1.426576
      16A     -1.387193    17A     -1.089111    18A     -1.080747
      19A     -1.033785    20A     -0.964580    21A     -0.899994
      22A     -0.833366    23A     -0.754559    24A     -0.726024
      25A     -0.683647    26A     -0.665142    27A     -0.645182
      28A     -0.642069    29A     -0.633665    30A     -0.618823
      31A     -0.589143    32A     -0.556945    33A     -0.547537
      34A     -0.537437    35A     -0.529929    36A     -0.526025
      37A     -0.514708    38A     -0.504970    39A     -0.500913
      40A     -0.462117    41A     -0.420539    42A     -0.398371
      43A     -0.367411

  @DF-RHF Final Energy:  -819.48959414470994

   => Energetics <=

    Nuclear Repulsion Energy =            603.3450356623667403
    One-Electron Energy =               -2322.7236912501753068
    Two-Electron Energy =                 899.8890614430987398
    Total Energy =                       -819.4895941447099403
  Basis Set: (AUG-CC-PVTZ AUX)
    Blend: AUG-CC-PVTZ-RI
    Molecular point group: c1

    Geometry (in Angstrom), charge = 0, multiplicity = 1:

       Center              X                  Y                   Z               Mass
    ------------   -----------------  -----------------  -----------------  -----------------
         S            1.820032072038     0.726465622677    -0.338323609764    31.972071174400
         O           -1.837410927962    -0.930973377323    -0.797292609764    15.994914619570
         O            0.499971072038    -1.057978377323     1.117464390236    15.994914619570
         C           -0.821528927962     0.837337622677     0.478436390236    12.000000000000
         C           -3.377441927962     0.599365622677     0.240223390236    12.000000000000
         C           -2.081223827962     0.004834122677    -0.129566009764    12.000000000000
         C            0.438406072038    -0.000085377323     0.511210390236    12.000000000000
         C           -4.505871927962    -0.275586377323    -0.281644609764    12.000000000000
         C            3.063432072038    -0.552757377323    -0.005417609764    12.000000000000
         C            4.449088072038    -0.043052377323    -0.371216609764    12.000000000000
         H           -0.688402927962     1.749777622677    -0.117392609764     1.007825032230
         H           -1.041615927962     1.154464622677     1.504493390236     1.007825032230
         H           -3.447003927962     0.727378622677     1.328280390236     1.007825032230
         H           -3.438461927962     1.614990622677    -0.179815609764     1.007825032230
         H           -5.476077927962     0.169613622677    -0.047278609764     1.007825032230
         H           -4.426885927962    -0.399710377323    -1.363295609764     1.007825032230
         H           -4.460357927962    -1.269453377323     0.169701390236     1.007825032230
         H            3.002261072038    -0.804843377323     1.052821390236     1.007825032230
         H            2.808312072038    -1.449172377323    -0.573160609764     1.007825032230
         H            4.507114072038     0.228373622677    -1.428264609764     1.007825032230
         H            4.714437072038     0.833552622677     0.224235390236     1.007825032230
         H            5.191964072038    -0.822694377323    -0.181881609764     1.007825032230

  Basis Set: AUG-CC-PVTZ
    Blend: AUG-CC-PVTZ
  Basis Set: (AUG-CC-PVTZ AUX)
    Blend: AUG-CC-PVTZ-JKFIT
	 Reference Energy          =    -819.4895941447099403 [Eh]
	 Singles Energy            =      -0.0000000000000000 [Eh]
	 Same-Spin Energy          =      -0.4833312392091825 [Eh]
	 Opposite-Spin Energy      =      -1.5687794355550946 [Eh]
	 Correlation Energy        =      -2.0521106747642772 [Eh]
	 Total Energy              =    -821.5417048194742620 [Eh]

	 ================> DF-SCS-MP2 Energies <==================
	-----------------------------------------------------------
	 SCS Same-Spin Scale       =       0.3333333333333333 [-]
	 SCS Opposite-Spin Scale   =       1.2000000000000000 [-]
	 SCS Same-Spin Energy      =      -0.1611104130697275 [Eh]
	 SCS Opposite-Spin Energy  =      -1.8825353226661135 [Eh]
	 SCS Correlation Energy    =      -2.0436457357358409 [Eh]
	 SCS Total Energy          =    -821.5332398804457625 [Eh]
	-----------------------------------------------------------

  Dipole Moment: [D]
     X:    -0.6333      Y:     2.6272      Z:     0.5034     Total:     2.7489

*** Psi4 exiting successfully. Buy a developer a beer!
