                               Psi4 1.3.2 release

  ==> Input File <==

--------------------------------------------------------------------------
#psi4
#
memory 32 gb

molecule  {
0 1
  S        1.8142300     0.7226310    -0.3411240
  O       -1.8432130    -0.9348080    -0.8000930
  O        0.4941690    -1.0618130     1.1146640
  C       -0.8273310     0.8335030     0.4756360
  C       -3.3832440     0.5955310     0.2374230
  C       -2.0293304    -0.0148312    -0.0574600
  C        0.4326040    -0.0039200     0.5084100
  C       -4.5116740    -0.2794210    -0.2844450
  C        3.0576300    -0.5565920    -0.0082180
  C        4.4432860    -0.0468870    -0.3740170
  H       -0.6942050     1.7459430    -0.1201930
  H       -1.0474180     1.1506300     1.5016930
  H       -3.4528060     0.7235440     1.3254800
  H       -3.4979281     1.6148488    -0.1619380
  H       -5.4818800     0.1657790    -0.0500790
  H       -4.4326880    -0.4035450    -1.3660960
  H       -4.4661600    -1.2732880     0.1669010
  H        2.9964590    -0.8086780     1.0500210
  H        2.8025100    -1.4530070    -0.5759610
  H        4.5013120     0.2245390    -1.4310650
  H        4.7086350     0.8297180     0.2214350
  H        5.1861620    -0.8265290    -0.1846820
units angstrom
no_reorient  #important for SAPT in psi4, default
symmetry c1  #important for SAPT in psi4, default
}

set PROPERTIES_ORIGIN ["COM"]
properties('MP2/aug-cc-pvtz', properties = ['dipole'])
--------------------------------------------------------------------------

    Molecular point group: c1
  Charge       = 0
  Multiplicity = 1
  Basis Set: AUG-CC-PVTZ
    Blend: AUG-CC-PVTZ
  Basis Set: (AUG-CC-PVTZ AUX)
    Blend: AUG-CC-PVTZ-JKFIT

    Orbital Energies [Eh]
    ---------------------

    Doubly Occupied:

       1A    -91.970767     2A    -20.559934     3A    -20.553526
       4A    -11.365382     5A    -11.346153     6A    -11.264377
       7A    -11.261769     8A    -11.249241     9A    -11.230979
      10A    -11.222040    11A     -8.972406    12A     -6.653561
      13A     -6.652431    14A     -6.651820    15A     -1.411209
      16A     -1.389575    17A     -1.091331    18A     -1.074962
      19A     -1.039947    20A     -0.969453    21A     -0.893883
      22A     -0.835993    23A     -0.757936    24A     -0.727798
      25A     -0.682032    26A     -0.666324    27A     -0.647470
      28A     -0.636647    29A     -0.634120    30A     -0.614768
      31A     -0.593695    32A     -0.558934    33A     -0.546080
      34A     -0.534597    35A     -0.528085    36A     -0.521667
      37A     -0.514341    38A     -0.503590    39A     -0.494678
      40A     -0.464490    41A     -0.427480    42A     -0.402802
      43A     -0.370057

  @DF-RHF Final Energy:  -819.49282421006819

   => Energetics <=

    Nuclear Repulsion Energy =            603.4680367344864180
    One-Electron Energy =               -2322.9450555572184385
    Two-Electron Energy =                 899.9841946126639414
    Total Energy =                       -819.4928242100681928
  Basis Set: (AUG-CC-PVTZ AUX)
    Blend: AUG-CC-PVTZ-RI
    Molecular point group: c1

    Geometry (in Angstrom), charge = 0, multiplicity = 1:

       Center              X                  Y                   Z               Mass
    ------------   -----------------  -----------------  -----------------  -----------------
         S            1.816044325430     0.727629258751    -0.344069834527    31.972071174400
         O           -1.841398674570    -0.929809741249    -0.803038834527    15.994914619570
         O            0.495983325430    -1.056814741249     1.111718165473    15.994914619570
         C           -0.825516674570     0.838501258751     0.472690165473    12.000000000000
         C           -3.381429674570     0.600529258751     0.234477165473    12.000000000000
         C           -2.027516074570    -0.009832941249    -0.060405834527    12.000000000000
         C            0.434418325430     0.001078258751     0.505464165473    12.000000000000
         C           -4.509859674570    -0.274422741249    -0.287390834527    12.000000000000
         C            3.059444325430    -0.551593741249    -0.011163834527    12.000000000000
         C            4.445100325430    -0.041888741249    -0.376962834527    12.000000000000
         H           -0.692390674570     1.750941258751    -0.123138834527     1.007825032230
         H           -1.045603674570     1.155628258751     1.498747165473     1.007825032230
         H           -3.450991674570     0.728542258751     1.322534165473     1.007825032230
         H           -3.496113774570     1.619847058751    -0.164883834527     1.007825032230
         H           -5.480065674570     0.170777258751    -0.053024834527     1.007825032230
         H           -4.430873674570    -0.398546741249    -1.369041834527     1.007825032230
         H           -4.464345674570    -1.268289741249     0.163955165473     1.007825032230
         H            2.998273325430    -0.803679741249     1.047075165473     1.007825032230
         H            2.804324325430    -1.448008741249    -0.578906834527     1.007825032230
         H            4.503126325430     0.229537258751    -1.434010834527     1.007825032230
         H            4.710449325430     0.834716258751     0.218489165473     1.007825032230
         H            5.187976325430    -0.821530741249    -0.187627834527     1.007825032230

  Basis Set: AUG-CC-PVTZ
    Blend: AUG-CC-PVTZ
  Basis Set: (AUG-CC-PVTZ AUX)
    Blend: AUG-CC-PVTZ-JKFIT
	 Reference Energy          =    -819.4928242100681928 [Eh]
	 Singles Energy            =      -0.0000000000000000 [Eh]
	 Same-Spin Energy          =      -0.4835718472139209 [Eh]
	 Opposite-Spin Energy      =      -1.5697836089077652 [Eh]
	 Correlation Energy        =      -2.0533554561216860 [Eh]
	 Total Energy              =    -821.5461796661899143 [Eh]

	 ================> DF-SCS-MP2 Energies <==================
	-----------------------------------------------------------
	 SCS Same-Spin Scale       =       0.3333333333333333 [-]
	 SCS Opposite-Spin Scale   =       1.2000000000000000 [-]
	 SCS Same-Spin Energy      =      -0.1611906157379736 [Eh]
	 SCS Opposite-Spin Energy  =      -1.8837403306893181 [Eh]
	 SCS Correlation Energy    =      -2.0449309464272916 [Eh]
	 SCS Total Energy          =    -821.5377551564954501 [Eh]
	-----------------------------------------------------------

  Dipole Moment: [D]
     X:    -0.1688      Y:     2.7190      Z:     0.6229     Total:     2.7945

*** Psi4 exiting successfully. Buy a developer a beer!
