                               Psi4 1.3.2 release

  ==> Input File <==

--------------------------------------------------------------------------
#psi4
#
memory 32 gb

molecule  {
0 1
  S        1.8142300     0.7226310    -0.3411240
  O       -1.8432130    -0.9348080    -0.8000930
  O        0.5144400    -1.0639717     1.1084641
  C       -0.8148865     0.8512178     0.4605094
  C       -3.3832440     0.5955310     0.2374230
  C       -2.0096370     0.0521440    -0.0950140
  C        0.4326040    -0.0039200     0.5084100
  C       -4.5116740    -0.2794210    -0.2844450
  C        3.0576300    -0.5565920    -0.0082180
  C        4.4432860    -0.0468870    -0.3740170
  H       -0.6942050     1.7459430    -0.1201930
  H       -1.0474180     1.1506300     1.5016930
  H       -3.4528060     0.7235440     1.3254800
  H       -3.4442640     1.6111560    -0.1826160
  H       -5.4818800     0.1657790    -0.0500790
  H       -4.4326880    -0.4035450    -1.3660960
  H       -4.4661600    -1.2732880     0.1669010
  H        2.9964590    -0.8086780     1.0500210
  H        2.8025100    -1.4530070    -0.5759610
  H        4.5013120     0.2245390    -1.4310650
  H        4.7086350     0.8297180     0.2214350
  H        5.1861620    -0.8265290    -0.1846820
units angstrom
no_reorient  #important for SAPT in psi4, default
symmetry c1  #important for SAPT in psi4, default
}

set PROPERTIES_ORIGIN ["COM"]
properties('MP2/aug-cc-pvtz', properties = ['dipole'])
--------------------------------------------------------------------------

    Molecular point group: c1
  Charge       = 0
  Multiplicity = 1
  Basis Set: AUG-CC-PVTZ
    Blend: AUG-CC-PVTZ
  Basis Set: (AUG-CC-PVTZ AUX)
    Blend: AUG-CC-PVTZ-JKFIT

    Orbital Energies [Eh]
    ---------------------

    Doubly Occupied:

       1A    -91.970318     2A    -20.556652     3A    -20.555557
       4A    -11.368147     5A    -11.347519     6A    -11.267554
       7A    -11.261521     8A    -11.250690     9A    -11.230816
      10A    -11.222822    11A     -8.972050    12A     -6.653202
      13A     -6.652077    14A     -6.651466    15A     -1.397515
      16A     -1.384657    17A     -1.093689    18A     -1.076653
      19A     -1.043606    20A     -0.970808    21A     -0.896557
      22A     -0.837050    23A     -0.758935    24A     -0.728530
      25A     -0.678479    26A     -0.668316    27A     -0.648153
      28A     -0.637640    29A     -0.633409    30A     -0.609229
      31A     -0.597447    32A     -0.560200    33A     -0.546138
      34A     -0.533597    35A     -0.526216    36A     -0.521017
      37A     -0.512894    38A     -0.504382    39A     -0.489641
      40A     -0.464454    41A     -0.429617    42A     -0.405360
      43A     -0.370060

  @DF-RHF Final Energy:  -819.49385855416551

   => Energetics <=

    Nuclear Repulsion Energy =            603.3670137062590584
    One-Electron Energy =               -2322.7524676168645783
    Two-Electron Energy =                 899.8915953564400070
    Total Energy =                       -819.4938585541655129
  Basis Set: (AUG-CC-PVTZ AUX)
    Blend: AUG-CC-PVTZ-RI
    Molecular point group: c1

    Geometry (in Angstrom), charge = 0, multiplicity = 1:

       Center              X                  Y                   Z               Mass
    ------------   -----------------  -----------------  -----------------  -----------------
         S            1.811271166733     0.721518701829    -0.339370386751    31.972071174400
         O           -1.846171833267    -0.935920298171    -0.798339386751    15.994914619570
         O            0.511481166733    -1.065083998171     1.110217713249    15.994914619570
         C           -0.817845333267     0.850105501829     0.462263013249    12.000000000000
         C           -3.386202833267     0.594418701829     0.239176613249    12.000000000000
         C           -2.012595833267     0.051031701829    -0.093260386751    12.000000000000
         C            0.429645166733    -0.005032298171     0.510163613249    12.000000000000
         C           -4.514632833267    -0.280533298171    -0.282691386751    12.000000000000
         C            3.054671166733    -0.557704298171    -0.006464386751    12.000000000000
         C            4.440327166733    -0.047999298171    -0.372263386751    12.000000000000
         H           -0.697163833267     1.744830701829    -0.118439386751     1.007825032230
         H           -1.050376833267     1.149517701829     1.503446613249     1.007825032230
         H           -3.455764833267     0.722431701829     1.327233613249     1.007825032230
         H           -3.447222833267     1.610043701829    -0.180862386751     1.007825032230
         H           -5.484838833267     0.164666701829    -0.048325386751     1.007825032230
         H           -4.435646833267    -0.404657298171    -1.364342386751     1.007825032230
         H           -4.469118833267    -1.274400298171     0.168654613249     1.007825032230
         H            2.993500166733    -0.809790298171     1.051774613249     1.007825032230
         H            2.799551166733    -1.454119298171    -0.574207386751     1.007825032230
         H            4.498353166733     0.223426701829    -1.429311386751     1.007825032230
         H            4.705676166733     0.828605701829     0.223188613249     1.007825032230
         H            5.183203166733    -0.827641298171    -0.182928386751     1.007825032230

  Basis Set: AUG-CC-PVTZ
    Blend: AUG-CC-PVTZ
  Basis Set: (AUG-CC-PVTZ AUX)
    Blend: AUG-CC-PVTZ-JKFIT
	 Reference Energy          =    -819.4938585541655129 [Eh]
	 Singles Energy            =      -0.0000000000000000 [Eh]
	 Same-Spin Energy          =      -0.4842812492381143 [Eh]
	 Opposite-Spin Energy      =      -1.5711079826392180 [Eh]
	 Correlation Energy        =      -2.0553892318773324 [Eh]
	 Total Energy              =    -821.5492477860428835 [Eh]

	 ================> DF-SCS-MP2 Energies <==================
	-----------------------------------------------------------
	 SCS Same-Spin Scale       =       0.3333333333333333 [-]
	 SCS Opposite-Spin Scale   =       1.2000000000000000 [-]
	 SCS Same-Spin Energy      =      -0.1614270830793714 [Eh]
	 SCS Opposite-Spin Energy  =      -1.8853295791670615 [Eh]
	 SCS Correlation Energy    =      -2.0467566622464330 [Eh]
	 SCS Total Energy          =    -821.5406152164119931 [Eh]
	-----------------------------------------------------------

  Dipole Moment: [D]
     X:    -0.1210      Y:     2.8306      Z:     0.6850     Total:     2.9148

*** Psi4 exiting successfully. Buy a developer a beer!
