                               Psi4 1.3.2 release

  ==> Input File <==

--------------------------------------------------------------------------
#psi4
#
memory 32 gb

molecule  {
0 1
  S        1.8142300     0.7226310    -0.3411240
  O       -1.8432130    -0.9348080    -0.8000930
  O        0.4941690    -1.0618130     1.1146640
  C       -0.8273310     0.8335030     0.4756360
  C       -3.3832440     0.5955310     0.2374230
  C       -2.0096370     0.0521440    -0.0950140
  C        0.4326040    -0.0039200     0.5084100
  C       -4.5116740    -0.2794210    -0.2844450
  C        3.1261467    -0.6270827     0.0101266
  C        4.4432860    -0.0468870    -0.3740170
  H       -0.6942050     1.7459430    -0.1201930
  H       -1.0474180     1.1506300     1.5016930
  H       -3.4528060     0.7235440     1.3254800
  H       -3.4442640     1.6111560    -0.1826160
  H       -5.4818800     0.1657790    -0.0500790
  H       -4.4326880    -0.4035450    -1.3660960
  H       -4.4661600    -1.2732880     0.1669010
  H        2.9964590    -0.8086780     1.0500210
  H        2.8025100    -1.4530070    -0.5759610
  H        4.5013120     0.2245390    -1.4310650
  H        4.7086350     0.8297180     0.2214350
  H        5.1861620    -0.8265290    -0.1846820
units angstrom
no_reorient  #important for SAPT in psi4, default
symmetry c1  #important for SAPT in psi4, default
}

set PROPERTIES_ORIGIN ["COM"]
properties('MP2/aug-cc-pvtz', properties = ['dipole'])
--------------------------------------------------------------------------

    Molecular point group: c1
  Charge       = 0
  Multiplicity = 1
  Basis Set: AUG-CC-PVTZ
    Blend: AUG-CC-PVTZ
  Basis Set: (AUG-CC-PVTZ AUX)
    Blend: AUG-CC-PVTZ-JKFIT

    Orbital Energies [Eh]
    ---------------------

    Doubly Occupied:

       1A    -91.967303     2A    -20.554264     3A    -20.552405
       4A    -11.365362     5A    -11.344753     6A    -11.267431
       7A    -11.264748     8A    -11.248867     9A    -11.232618
      10A    -11.221525    11A     -8.968173    12A     -6.649228
      13A     -6.648066    14A     -6.647552    15A     -1.395442
      16A     -1.382316    17A     -1.089253    18A     -1.075933
      19A     -1.042865    20A     -0.970870    21A     -0.894311
      22A     -0.843519    23A     -0.759287    24A     -0.724822
      25A     -0.675901    26A     -0.664161    27A     -0.648970
      28A     -0.644692    29A     -0.633080    30A     -0.607623
      31A     -0.593477    32A     -0.567014    33A     -0.546566
      34A     -0.537420    35A     -0.532756    36A     -0.521135
      37A     -0.515158    38A     -0.506745    39A     -0.487697
      40A     -0.444348    41A     -0.425148    42A     -0.403904
      43A     -0.370260

  @DF-RHF Final Energy:  -819.48985784446586

   => Energetics <=

    Nuclear Repulsion Energy =            601.8016309072029344
    One-Electron Energy =               -2319.7090346808809045
    Two-Electron Energy =                 898.4175459292121104
    Total Energy =                       -819.4898578444658597
  Basis Set: (AUG-CC-PVTZ AUX)
    Blend: AUG-CC-PVTZ-RI
    Molecular point group: c1

    Geometry (in Angstrom), charge = 0, multiplicity = 1:

       Center              X                  Y                   Z               Mass
    ------------   -----------------  -----------------  -----------------  -----------------
         S            1.809092967105     0.727916081822    -0.342499428427    31.972071174400
         O           -1.848350032895    -0.929522918178    -0.801468428427    15.994914619570
         O            0.489031967105    -1.056527918178     1.113288571573    15.994914619570
         C           -0.832468032895     0.838788081822     0.474260571573    12.000000000000
         C           -3.388381032895     0.600816081822     0.236047571573    12.000000000000
         C           -2.014774032895     0.057429081822    -0.096389428427    12.000000000000
         C            0.427466967105     0.001365081822     0.507034571573    12.000000000000
         C           -4.516811032895    -0.274135918178    -0.285820428427    12.000000000000
         C            3.121009667105    -0.621797618178     0.008751171573    12.000000000000
         C            4.438148967105    -0.041601918178    -0.375392428427    12.000000000000
         H           -0.699342032895     1.751228081822    -0.121568428427     1.007825032230
         H           -1.052555032895     1.155915081822     1.500317571573     1.007825032230
         H           -3.457943032895     0.728829081822     1.324104571573     1.007825032230
         H           -3.449401032895     1.616441081822    -0.183991428427     1.007825032230
         H           -5.487017032895     0.171064081822    -0.051454428427     1.007825032230
         H           -4.437825032895    -0.398259918178    -1.367471428427     1.007825032230
         H           -4.471297032895    -1.268002918178     0.165525571573     1.007825032230
         H            2.991321967105    -0.803392918178     1.048645571573     1.007825032230
         H            2.797372967105    -1.447721918178    -0.577336428427     1.007825032230
         H            4.496174967105     0.229824081822    -1.432440428427     1.007825032230
         H            4.703497967105     0.835003081822     0.220059571573     1.007825032230
         H            5.181024967105    -0.821243918178    -0.186057428427     1.007825032230

  Basis Set: AUG-CC-PVTZ
    Blend: AUG-CC-PVTZ
  Basis Set: (AUG-CC-PVTZ AUX)
    Blend: AUG-CC-PVTZ-JKFIT
	 Reference Energy          =    -819.4898578444658597 [Eh]
	 Singles Energy            =      -0.0000000000000000 [Eh]
	 Same-Spin Energy          =      -0.4839411298560065 [Eh]
	 Opposite-Spin Energy      =      -1.5709008530258473 [Eh]
	 Correlation Energy        =      -2.0548419828818538 [Eh]
	 Total Energy              =    -821.5446998273476993 [Eh]

	 ================> DF-SCS-MP2 Energies <==================
	-----------------------------------------------------------
	 SCS Same-Spin Scale       =       0.3333333333333333 [-]
	 SCS Opposite-Spin Scale   =       1.2000000000000000 [-]
	 SCS Same-Spin Energy      =      -0.1613137099520021 [Eh]
	 SCS Opposite-Spin Energy  =      -1.8850810236310167 [Eh]
	 SCS Correlation Energy    =      -2.0463947335830190 [Eh]
	 SCS Total Energy          =    -821.5362525780489023 [Eh]
	-----------------------------------------------------------

  Dipole Moment: [D]
     X:     0.2106      Y:     2.7535      Z:     0.6768     Total:     2.8432

*** Psi4 exiting successfully. Buy a developer a beer!
