                               Psi4 1.4a3.dev225

  ==> Input File <==

--------------------------------------------------------------------------
#psi4
#
memory 32 gb

molecule  {
0 1
  S        1.5586770    -0.2994370    -0.7152220
  O       -1.5255240    -0.4876820     1.0921970
  O        0.7924220     1.7006740     0.8461850
  C       -0.8878030     0.9736540    -0.7120840
  C       -3.2304390    -0.0998550    -0.5631210
  C       -1.8088096     0.0692632     0.0682537
  C        0.4791140     0.9485020    -0.0654040
  C       -4.1634610    -0.9398430     0.2972900
  C        2.9497330    -0.0790050     0.4324980
  C        4.0540790    -1.0751370     0.1033520
  H       -0.8484610     0.6756560    -1.7668750
  H       -1.2645150     2.0025910    -0.6674260
  H       -3.6447290     0.9013370    -0.7419330
  H       -3.1015980    -0.5455960    -1.5588690
  H       -5.1413450    -1.0357370    -0.1813640
  H       -3.7504260    -1.9381500     0.4523140
  H       -4.2995020    -0.4825820     1.2793320
  H        3.3022180     0.9509290     0.3487650
  H        2.5726230    -0.2199470     1.4475820
  H        3.7004310    -2.1050230     0.1947960
  H        4.4320470    -0.9299840    -0.9117720
  H        4.8873260    -0.9394890     0.7982930
units angstrom
no_reorient  #important for SAPT in psi4, default
symmetry c1  #important for SAPT in psi4, default
}

set PROPERTIES_ORIGIN ["COM"]
properties('MP2/aug-cc-pvtz', properties = ['dipole'])
--------------------------------------------------------------------------

    Molecular point group: c1
  Charge       = 0
  Multiplicity = 1
  Basis Set: AUG-CC-PVTZ
    Blend: AUG-CC-PVTZ
  Basis Set: (AUG-CC-PVTZ AUX)
    Blend: AUG-CC-PVTZ-JKFIT

    Orbital Energies [Eh]
    ---------------------

    Doubly Occupied:

       1A    -91.969473     2A    -20.561297     3A    -20.556045
       4A    -11.366133     5A    -11.347446     6A    -11.266503
       7A    -11.262473     8A    -11.249713     9A    -11.230740
      10A    -11.222082    11A     -8.971272    12A     -6.652465
      13A     -6.651319    14A     -6.650684    15A     -1.411522
      16A     -1.390211    17A     -1.094673    18A     -1.073963
      19A     -1.041192    20A     -0.970963    21A     -0.889894
      22A     -0.836413    23A     -0.761886    24A     -0.728911
      25A     -0.680704    26A     -0.671165    27A     -0.651626
      28A     -0.634421    29A     -0.632705    30A     -0.614282
      31A     -0.592416    32A     -0.560506    33A     -0.544738
      34A     -0.532053    35A     -0.528284    36A     -0.521513
      37A     -0.514574    38A     -0.505544    39A     -0.498412
      40A     -0.463862    41A     -0.430042    42A     -0.403337
      43A     -0.369338

  @DF-RHF Final Energy:  -819.49577020823972

   => Energetics <=

    Nuclear Repulsion Energy =            610.7352399983977875
    One-Electron Energy =               -2337.4484277595179265
    Two-Electron Energy =                 907.2174175528803062
    Total Energy =                       -819.4957702082397191
  Basis Set: (AUG-CC-PVTZ AUX)
    Blend: AUG-CC-PVTZ-RI
    Molecular point group: c1

    Geometry (in Angstrom), charge = 0, multiplicity = 1:

       Center              X                  Y                   Z               Mass
    ------------   -----------------  -----------------  -----------------  -----------------
         S            1.535956407529    -0.322581123802    -0.724900854170    31.972071174400
         O           -1.548244592471    -0.510826123802     1.082518145830    15.994914619570
         O            0.769701407529     1.677529876198     0.836506145830    15.994914619570
         C           -0.910523592471     0.950509876198    -0.721762854170    12.000000000000
         C           -3.253159592471    -0.122999123802    -0.572799854170    12.000000000000
         C           -1.831530192471     0.046119076198     0.058574845830    12.000000000000
         C            0.456393407529     0.925357876198    -0.075082854170    12.000000000000
         C           -4.186181592471    -0.962987123802     0.287611145830    12.000000000000
         C            2.927012407529    -0.102149123802     0.422819145830    12.000000000000
         C            4.031358407529    -1.098281123802     0.093673145830    12.000000000000
         H           -0.871181592471     0.652511876198    -1.776553854170     1.007825032230
         H           -1.287235592471     1.979446876198    -0.677104854170     1.007825032230
         H           -3.667449592471     0.878192876198    -0.751611854170     1.007825032230
         H           -3.124318592471    -0.568740123802    -1.568547854170     1.007825032230
         H           -5.164065592471    -1.058881123802    -0.191042854170     1.007825032230
         H           -3.773146592471    -1.961294123802     0.442635145830     1.007825032230
         H           -4.322222592471    -0.505726123802     1.269653145830     1.007825032230
         H            3.279497407529     0.927784876198     0.339086145830     1.007825032230
         H            2.549902407529    -0.243091123802     1.437903145830     1.007825032230
         H            3.677710407529    -2.128167123802     0.185117145830     1.007825032230
         H            4.409326407529    -0.953128123802    -0.921450854170     1.007825032230
         H            4.864605407529    -0.962633123802     0.788614145830     1.007825032230

  Basis Set: AUG-CC-PVTZ
    Blend: AUG-CC-PVTZ
  Basis Set: (AUG-CC-PVTZ AUX)
    Blend: AUG-CC-PVTZ-JKFIT
	 Reference Energy          =    -819.4957702082397191 [Eh]
	 Singles Energy            =      -0.0000000000000000 [Eh]
	 Same-Spin Energy          =      -0.4839052357600069 [Eh]
	 Opposite-Spin Energy      =      -1.5700355296785435 [Eh]
	 Correlation Energy        =      -2.0539407654385506 [Eh]
	 Total Energy              =    -821.5497109736783159 [Eh]

	 ================> DF-SCS-MP2 Energies <==================
	-----------------------------------------------------------
	 SCS Same-Spin Scale       =       0.3333333333333333 [-]
	 SCS Opposite-Spin Scale   =       1.2000000000000000 [-]
	 SCS Same-Spin Energy      =      -0.1613017452533356 [Eh]
	 SCS Opposite-Spin Energy  =      -1.8840426356142521 [Eh]
	 SCS Correlation Energy    =      -2.0453443808675877 [Eh]
	 SCS Total Energy          =    -821.5411145891073375 [Eh]
	-----------------------------------------------------------

  Dipole Moment: [D]
     X:    -0.4966      Y:    -0.1727      Z:    -2.6137     Total:     2.6661

*** Psi4 exiting successfully. Buy a developer a beer!
