                               Psi4 1.3.2 release

  ==> Input File <==

--------------------------------------------------------------------------
#psi4
#
memory 32 gb

molecule  {
0 1
  S        1.8142300     0.7226310    -0.3411240
  O       -1.8432130    -0.9348080    -0.8000930
  O        0.4941690    -1.0618130     1.1146640
  C       -0.8273310     0.8335030     0.4756360
  C       -3.3832440     0.5955310     0.2374230
  C       -2.0096370     0.0521440    -0.0950140
  C        0.4326040    -0.0039200     0.5084100
  C       -4.5163358    -0.2806784    -0.2720880
  C        3.0576300    -0.5565920    -0.0082180
  C        4.4432860    -0.0468870    -0.3740170
  H       -0.6942050     1.7459430    -0.1201930
  H       -1.0474180     1.1506300     1.5016930
  H       -3.4606604     0.7180603     1.3255809
  H       -3.4442640     1.6111560    -0.1826160
  H       -5.4818800     0.1657790    -0.0500790
  H       -4.4326880    -0.4035450    -1.3660960
  H       -4.4661600    -1.2732880     0.1669010
  H        2.9964590    -0.8086780     1.0500210
  H        2.8025100    -1.4530070    -0.5759610
  H        4.5013120     0.2245390    -1.4310650
  H        4.7086350     0.8297180     0.2214350
  H        5.1861620    -0.8265290    -0.1846820
units angstrom
no_reorient  #important for SAPT in psi4, default
symmetry c1  #important for SAPT in psi4, default
}

set PROPERTIES_ORIGIN ["COM"]
properties('MP2/aug-cc-pvtz', properties = ['dipole'])
--------------------------------------------------------------------------

    Molecular point group: c1
  Charge       = 0
  Multiplicity = 1
  Basis Set: AUG-CC-PVTZ
    Blend: AUG-CC-PVTZ
  Basis Set: (AUG-CC-PVTZ AUX)
    Blend: AUG-CC-PVTZ-JKFIT

    Orbital Energies [Eh]
    ---------------------

    Doubly Occupied:

       1A    -91.972140     2A    -20.555685     3A    -20.555128
       4A    -11.367496     5A    -11.346289     6A    -11.266883
       7A    -11.262631     8A    -11.249823     9A    -11.231644
      10A    -11.222177    11A     -8.973750    12A     -6.654903
      13A     -6.653775    14A     -6.653161    15A     -1.397426
      16A     -1.384026    17A     -1.093941    18A     -1.077156
      19A     -1.042738    20A     -0.972129    21A     -0.896071
      22A     -0.837708    23A     -0.760070    24A     -0.726960
      25A     -0.678212    26A     -0.668399    27A     -0.648138
      28A     -0.637479    29A     -0.633978    30A     -0.608762
      31A     -0.595198    32A     -0.559764    33A     -0.546651
      34A     -0.534645    35A     -0.526960    36A     -0.520799
      37A     -0.510151    38A     -0.504245    39A     -0.488481
      40A     -0.465322    41A     -0.429899    42A     -0.406543
      43A     -0.371160

  @DF-RHF Final Energy:  -819.49451330410670

   => Energetics <=

    Nuclear Repulsion Energy =            603.3840092770108186
    One-Electron Energy =               -2322.7800611929410479
    Two-Electron Energy =                 899.9015386118235256
    Total Energy =                       -819.4945133041067038
  Basis Set: (AUG-CC-PVTZ AUX)
    Blend: AUG-CC-PVTZ-RI
    Molecular point group: c1

    Geometry (in Angstrom), charge = 0, multiplicity = 1:

       Center              X                  Y                   Z               Mass
    ------------   -----------------  -----------------  -----------------  -----------------
         S            1.814628898053     0.722759923871    -0.342051150326    31.972071174400
         O           -1.842814101947    -0.934679076129    -0.801020150326    15.994914619570
         O            0.494567898053    -1.061684076129     1.113736849674    15.994914619570
         C           -0.826932101947     0.833631923871     0.474708849674    12.000000000000
         C           -3.382845101947     0.595659923871     0.236495849674    12.000000000000
         C           -2.009238101947     0.052272923871    -0.095941150326    12.000000000000
         C            0.433002898053    -0.003791076129     0.507482849674    12.000000000000
         C           -4.515936901947    -0.280549476129    -0.273015150326    12.000000000000
         C            3.058028898053    -0.556463076129    -0.009145150326    12.000000000000
         C            4.443684898053    -0.046758076129    -0.374944150326    12.000000000000
         H           -0.693806101947     1.746071923871    -0.121120150326     1.007825032230
         H           -1.047019101947     1.150758923871     1.500765849674     1.007825032230
         H           -3.460261501947     0.718189223871     1.324653749674     1.007825032230
         H           -3.443865101947     1.611284923871    -0.183543150326     1.007825032230
         H           -5.481481101947     0.165907923871    -0.051006150326     1.007825032230
         H           -4.432289101947    -0.403416076129    -1.367023150326     1.007825032230
         H           -4.465761101947    -1.273159076129     0.165973849674     1.007825032230
         H            2.996857898053    -0.808549076129     1.049093849674     1.007825032230
         H            2.802908898053    -1.452878076129    -0.576888150326     1.007825032230
         H            4.501710898053     0.224667923871    -1.431992150326     1.007825032230
         H            4.709033898053     0.829846923871     0.220507849674     1.007825032230
         H            5.186560898053    -0.826400076129    -0.185609150326     1.007825032230

  Basis Set: AUG-CC-PVTZ
    Blend: AUG-CC-PVTZ
  Basis Set: (AUG-CC-PVTZ AUX)
    Blend: AUG-CC-PVTZ-JKFIT
	 Reference Energy          =    -819.4945133041067038 [Eh]
	 Singles Energy            =      -0.0000000000000000 [Eh]
	 Same-Spin Energy          =      -0.4842103918095918 [Eh]
	 Opposite-Spin Energy      =      -1.5710745446359273 [Eh]
	 Correlation Energy        =      -2.0552849364455192 [Eh]
	 Total Energy              =    -821.5497982405522635 [Eh]

	 ================> DF-SCS-MP2 Energies <==================
	-----------------------------------------------------------
	 SCS Same-Spin Scale       =       0.3333333333333333 [-]
	 SCS Opposite-Spin Scale   =       1.2000000000000000 [-]
	 SCS Same-Spin Energy      =      -0.1614034639365306 [Eh]
	 SCS Opposite-Spin Energy  =      -1.8852894535631126 [Eh]
	 SCS Correlation Energy    =      -2.0466929174996431 [Eh]
	 SCS Total Energy          =    -821.5412062216063305 [Eh]
	-----------------------------------------------------------

  Dipole Moment: [D]
     X:     0.0028      Y:     2.8326      Z:     0.6876     Total:     2.9149

*** Psi4 exiting successfully. Buy a developer a beer!
