                               Psi4 1.3.2 release

  ==> Input File <==

--------------------------------------------------------------------------
#psi4
#
memory 32 gb

molecule  {
0 1
  S        1.8142300     0.7226310    -0.3411240
  O       -1.8432130    -0.9348080    -0.8000930
  O        0.4535769    -1.0565296     1.1265079
  C       -0.8510649     0.7973137     0.5059145
  C       -3.3832440     0.5955310     0.2374230
  C       -2.0096370     0.0521440    -0.0950140
  C        0.4326040    -0.0039200     0.5084100
  C       -4.5116740    -0.2794210    -0.2844450
  C        3.0576300    -0.5565920    -0.0082180
  C        4.4432860    -0.0468870    -0.3740170
  H       -0.6942050     1.7459430    -0.1201930
  H       -1.0474180     1.1506300     1.5016930
  H       -3.4528060     0.7235440     1.3254800
  H       -3.4442640     1.6111560    -0.1826160
  H       -5.4818800     0.1657790    -0.0500790
  H       -4.4326880    -0.4035450    -1.3660960
  H       -4.4661600    -1.2732880     0.1669010
  H        2.9964590    -0.8086780     1.0500210
  H        2.8025100    -1.4530070    -0.5759610
  H        4.5013120     0.2245390    -1.4310650
  H        4.7086350     0.8297180     0.2214350
  H        5.1861620    -0.8265290    -0.1846820
units angstrom
no_reorient  #important for SAPT in psi4, default
symmetry c1  #important for SAPT in psi4, default
}

set PROPERTIES_ORIGIN ["COM"]
properties('MP2/aug-cc-pvtz', properties = ['dipole'])
--------------------------------------------------------------------------

    Molecular point group: c1
  Charge       = 0
  Multiplicity = 1
  Basis Set: AUG-CC-PVTZ
    Blend: AUG-CC-PVTZ
  Basis Set: (AUG-CC-PVTZ AUX)
    Blend: AUG-CC-PVTZ-JKFIT

    Orbital Energies [Eh]
    ---------------------

    Doubly Occupied:

       1A    -91.975674     2A    -20.554282     3A    -20.553371
       4A    -11.366395     5A    -11.343428     6A    -11.265940
       7A    -11.264789     8A    -11.248345     9A    -11.233251
      10A    -11.221286    11A     -8.977056    12A     -6.658210
      13A     -6.657073    14A     -6.656451    15A     -1.397417
      16A     -1.382700    17A     -1.094640    18A     -1.078203
      19A     -1.040940    20A     -0.974703    21A     -0.895398
      22A     -0.839122    23A     -0.762447    24A     -0.725448
      25A     -0.679349    26A     -0.666612    27A     -0.648266
      28A     -0.637701    29A     -0.634796    30A     -0.608743
      31A     -0.588975    32A     -0.558538    33A     -0.545941
      34A     -0.532498    35A     -0.528986    36A     -0.520396
      37A     -0.509891    38A     -0.504432    39A     -0.486202
      40A     -0.466936    41A     -0.429526    42A     -0.408046
      43A     -0.373276

  @DF-RHF Final Energy:  -819.49134861857829

   => Energetics <=

    Nuclear Repulsion Energy =            603.6143651689008038
    One-Electron Energy =               -2323.2200640752744221
    Two-Electron Energy =                 900.1143502877953324
    Total Energy =                       -819.4913486185782858
  Basis Set: (AUG-CC-PVTZ AUX)
    Blend: AUG-CC-PVTZ-RI
    Molecular point group: c1

    Geometry (in Angstrom), charge = 0, multiplicity = 1:

       Center              X                  Y                   Z               Mass
    ------------   -----------------  -----------------  -----------------  -----------------
         S            1.820065855092     0.724816385782    -0.344577759656    31.972071174400
         O           -1.837377144908    -0.932622614218    -0.803546759656    15.994914619570
         O            0.459412755092    -1.054344214218     1.123054140344    15.994914619570
         C           -0.845229044908     0.799499085782     0.502460740344    12.000000000000
         C           -3.377408144908     0.597716385782     0.233969240344    12.000000000000
         C           -2.003801144908     0.054329385782    -0.098467759656    12.000000000000
         C            0.438439855092    -0.001734614218     0.504956240344    12.000000000000
         C           -4.505838144908    -0.277235614218    -0.287898759656    12.000000000000
         C            3.063465855092    -0.554406614218    -0.011671759656    12.000000000000
         C            4.449121855092    -0.044701614218    -0.377470759656    12.000000000000
         H           -0.688369144908     1.748128385782    -0.123646759656     1.007825032230
         H           -1.041582144908     1.152815385782     1.498239240344     1.007825032230
         H           -3.446970144908     0.725729385782     1.322026240344     1.007825032230
         H           -3.438428144908     1.613341385782    -0.186069759656     1.007825032230
         H           -5.476044144908     0.167964385782    -0.053532759656     1.007825032230
         H           -4.426852144908    -0.401359614218    -1.369549759656     1.007825032230
         H           -4.460324144908    -1.271102614218     0.163447240344     1.007825032230
         H            3.002294855092    -0.806492614218     1.046567240344     1.007825032230
         H            2.808345855092    -1.450821614218    -0.579414759656     1.007825032230
         H            4.507147855092     0.226724385782    -1.434518759656     1.007825032230
         H            4.714470855092     0.831903385782     0.217981240344     1.007825032230
         H            5.191997855092    -0.824343614218    -0.188135759656     1.007825032230

  Basis Set: AUG-CC-PVTZ
    Blend: AUG-CC-PVTZ
  Basis Set: (AUG-CC-PVTZ AUX)
    Blend: AUG-CC-PVTZ-JKFIT
	 Reference Energy          =    -819.4913486185782858 [Eh]
	 Singles Energy            =      -0.0000000000000000 [Eh]
	 Same-Spin Energy          =      -0.4842448691099439 [Eh]
	 Opposite-Spin Energy      =      -1.5713126959294781 [Eh]
	 Correlation Energy        =      -2.0555575650394218 [Eh]
	 Total Energy              =    -821.5469061836176934 [Eh]

	 ================> DF-SCS-MP2 Energies <==================
	-----------------------------------------------------------
	 SCS Same-Spin Scale       =       0.3333333333333333 [-]
	 SCS Opposite-Spin Scale   =       1.2000000000000000 [-]
	 SCS Same-Spin Energy      =      -0.1614149563699813 [Eh]
	 SCS Opposite-Spin Energy  =      -1.8855752351153736 [Eh]
	 SCS Correlation Energy    =      -2.0469901914853548 [Eh]
	 SCS Total Energy          =    -821.5383388100636921 [Eh]
	-----------------------------------------------------------

  Dipole Moment: [D]
     X:     0.2449      Y:     2.8324      Z:     0.6827     Total:     2.9238

*** Psi4 exiting successfully. Buy a developer a beer!
