                               Psi4 1.3.2 release

  ==> Input File <==

--------------------------------------------------------------------------
#psi4
#
memory 32 gb

molecule  {
0 1
  S        1.8142300     0.7226310    -0.3411240
  O       -1.8432130    -0.9348080    -0.8000930
  O        0.4941690    -1.0618130     1.1146640
  C       -0.8273310     0.8335030     0.4756360
  C       -3.3832440     0.5955310     0.2374230
  C       -2.1644147    -0.0501451    -0.1697188
  C        0.4326040    -0.0039200     0.5084100
  C       -4.5116740    -0.2794210    -0.2844450
  C        3.0576300    -0.5565920    -0.0082180
  C        4.4432860    -0.0468870    -0.3740170
  H       -0.6942050     1.7459430    -0.1201930
  H       -1.0474180     1.1506300     1.5016930
  H       -3.4528060     0.7235440     1.3254800
  H       -3.4442640     1.6111560    -0.1826160
  H       -5.4818800     0.1657790    -0.0500790
  H       -4.4326880    -0.4035450    -1.3660960
  H       -4.4661600    -1.2732880     0.1669010
  H        2.9964590    -0.8086780     1.0500210
  H        2.8025100    -1.4530070    -0.5759610
  H        4.5013120     0.2245390    -1.4310650
  H        4.7086350     0.8297180     0.2214350
  H        5.1861620    -0.8265290    -0.1846820
units angstrom
no_reorient  #important for SAPT in psi4, default
symmetry c1  #important for SAPT in psi4, default
}

set PROPERTIES_ORIGIN ["COM"]
properties('MP2/aug-cc-pvtz', properties = ['dipole'])
--------------------------------------------------------------------------

    Molecular point group: c1
  Charge       = 0
  Multiplicity = 1
  Basis Set: AUG-CC-PVTZ
    Blend: AUG-CC-PVTZ
  Basis Set: (AUG-CC-PVTZ AUX)
    Blend: AUG-CC-PVTZ-JKFIT

    Orbital Energies [Eh]
    ---------------------

    Doubly Occupied:

       1A    -91.963126     2A    -20.572305     3A    -20.544322
       4A    -11.354976     5A    -11.349740     6A    -11.256247
       7A    -11.256049     8A    -11.244619     9A    -11.230284
      10A    -11.226747    11A     -8.964808    12A     -6.645961
      13A     -6.644832    14A     -6.644216    15A     -1.464174
      16A     -1.381806    17A     -1.096118    18A     -1.081367
      19A     -1.021156    20A     -0.956461    21A     -0.904286
      22A     -0.828362    23A     -0.757110    24A     -0.722917
      25A     -0.694377    26A     -0.668027    27A     -0.651058
      28A     -0.642802    29A     -0.631001    30A     -0.619189
      31A     -0.583455    32A     -0.559316    33A     -0.550590
      34A     -0.544732    35A     -0.536743    36A     -0.529242
      37A     -0.515001    38A     -0.510463    39A     -0.500174
      40A     -0.457580    41A     -0.408865    42A     -0.382016
      43A     -0.362075

  @DF-RHF Final Energy:  -819.46495013726314

   => Energetics <=

    Nuclear Repulsion Energy =            603.2945242910856223
    One-Electron Energy =               -2322.6015516594979999
    Two-Electron Energy =                 899.8420772311493465
    Total Energy =                       -819.4649501372631448
  Basis Set: (AUG-CC-PVTZ AUX)
    Blend: AUG-CC-PVTZ-RI
    Molecular point group: c1

    Geometry (in Angstrom), charge = 0, multiplicity = 1:

       Center              X                  Y                   Z               Mass
    ------------   -----------------  -----------------  -----------------  -----------------
         S            1.825834208514     0.730300130373    -0.335523156436    31.972071174400
         O           -1.831608791486    -0.927138869627    -0.794492156436    15.994914619570
         O            0.505773208514    -1.054143869627     1.120264843564    15.994914619570
         C           -0.815726791486     0.841172130373     0.481236843564    12.000000000000
         C           -3.371639791486     0.603200130373     0.243023843564    12.000000000000
         C           -2.152810491486    -0.042475969627    -0.164117956436    12.000000000000
         C            0.444208208514     0.003749130373     0.514010843564    12.000000000000
         C           -4.500069791486    -0.271751869627    -0.278844156436    12.000000000000
         C            3.069234208514    -0.548922869627    -0.002617156436    12.000000000000
         C            4.454890208514    -0.039217869627    -0.368416156436    12.000000000000
         H           -0.682600791486     1.753612130373    -0.114592156436     1.007825032230
         H           -1.035813791486     1.158299130373     1.507293843564     1.007825032230
         H           -3.441201791486     0.731213130373     1.331080843564     1.007825032230
         H           -3.432659791486     1.618825130373    -0.177015156436     1.007825032230
         H           -5.470275791486     0.173448130373    -0.044478156436     1.007825032230
         H           -4.421083791486    -0.395875869627    -1.360495156436     1.007825032230
         H           -4.454555791486    -1.265618869627     0.172501843564     1.007825032230
         H            3.008063208514    -0.801008869627     1.055621843564     1.007825032230
         H            2.814114208514    -1.445337869627    -0.570360156436     1.007825032230
         H            4.512916208514     0.232208130373    -1.425464156436     1.007825032230
         H            4.720239208514     0.837387130373     0.227035843564     1.007825032230
         H            5.197766208514    -0.818859869627    -0.179081156436     1.007825032230

  Basis Set: AUG-CC-PVTZ
    Blend: AUG-CC-PVTZ
  Basis Set: (AUG-CC-PVTZ AUX)
    Blend: AUG-CC-PVTZ-JKFIT
	 Reference Energy          =    -819.4649501372631448 [Eh]
	 Singles Energy            =      -0.0000000000000000 [Eh]
	 Same-Spin Energy          =      -0.4835530620571343 [Eh]
	 Opposite-Spin Energy      =      -1.5683960041871516 [Eh]
	 Correlation Energy        =      -2.0519490662442861 [Eh]
	 Total Energy              =    -821.5168992035074780 [Eh]

	 ================> DF-SCS-MP2 Energies <==================
	-----------------------------------------------------------
	 SCS Same-Spin Scale       =       0.3333333333333333 [-]
	 SCS Opposite-Spin Scale   =       1.2000000000000000 [-]
	 SCS Same-Spin Energy      =      -0.1611843540190447 [Eh]
	 SCS Opposite-Spin Energy  =      -1.8820752050245819 [Eh]
	 SCS Correlation Energy    =      -2.0432595590436264 [Eh]
	 SCS Total Energy          =    -821.5082096963067215 [Eh]
	-----------------------------------------------------------

  Dipole Moment: [D]
     X:    -1.4430      Y:     2.3578      Z:     0.2678     Total:     2.7772

*** Psi4 exiting successfully. Buy a developer a beer!
