                               Psi4 1.3.2 release

  ==> Input File <==

--------------------------------------------------------------------------
#psi4
#
memory 32 gb

molecule  {
0 1
  S        1.8142300     0.7226310    -0.3411240
  O       -1.8220831    -0.9327377    -0.7976798
  O        0.4941690    -1.0618130     1.1146640
  C       -0.8273310     0.8335030     0.4756360
  C       -3.3719565     0.6146704     0.2517275
  C       -2.0096370     0.0521440    -0.0950140
  C        0.4326040    -0.0039200     0.5084100
  C       -4.5116740    -0.2794210    -0.2844450
  C        3.0576300    -0.5565920    -0.0082180
  C        4.4432860    -0.0468870    -0.3740170
  H       -0.6942050     1.7459430    -0.1201930
  H       -1.0474180     1.1506300     1.5016930
  H       -3.4528060     0.7235440     1.3254800
  H       -3.4442640     1.6111560    -0.1826160
  H       -5.4818800     0.1657790    -0.0500790
  H       -4.4326880    -0.4035450    -1.3660960
  H       -4.4661600    -1.2732880     0.1669010
  H        2.9964590    -0.8086780     1.0500210
  H        2.8025100    -1.4530070    -0.5759610
  H        4.5013120     0.2245390    -1.4310650
  H        4.7086350     0.8297180     0.2214350
  H        5.1861620    -0.8265290    -0.1846820
units angstrom
no_reorient  #important for SAPT in psi4, default
symmetry c1  #important for SAPT in psi4, default
}

set PROPERTIES_ORIGIN ["COM"]
properties('MP2/aug-cc-pvtz', properties = ['dipole'])
--------------------------------------------------------------------------

    Molecular point group: c1
  Charge       = 0
  Multiplicity = 1
  Basis Set: AUG-CC-PVTZ
    Blend: AUG-CC-PVTZ
  Basis Set: (AUG-CC-PVTZ AUX)
    Blend: AUG-CC-PVTZ-JKFIT

    Orbital Energies [Eh]
    ---------------------

    Doubly Occupied:

       1A    -91.971480     2A    -20.556554     3A    -20.554267
       4A    -11.366587     5A    -11.346577     6A    -11.265117
       7A    -11.262147     8A    -11.249778     9A    -11.231280
      10A    -11.224066    11A     -8.973098    12A     -6.654252
      13A     -6.653124    14A     -6.652510    15A     -1.397195
      16A     -1.383758    17A     -1.093442    18A     -1.076841
      19A     -1.040423    20A     -0.971309    21A     -0.896564
      22A     -0.837541    23A     -0.761310    24A     -0.726701
      25A     -0.677890    26A     -0.668304    27A     -0.647355
      28A     -0.638990    29A     -0.634102    30A     -0.608959
      31A     -0.594526    32A     -0.559323    33A     -0.543587
      34A     -0.532299    35A     -0.527039    36A     -0.519403
      37A     -0.513005    38A     -0.505425    39A     -0.491077
      40A     -0.464774    41A     -0.429664    42A     -0.405641
      43A     -0.370557

  @DF-RHF Final Energy:  -819.49410731482658

   => Energetics <=

    Nuclear Repulsion Energy =            603.4979847989020527
    One-Electron Energy =               -2323.0285069628116617
    Two-Electron Energy =                 900.0364148490830303
    Total Energy =                       -819.4941073148265787
  Basis Set: (AUG-CC-PVTZ AUX)
    Blend: AUG-CC-PVTZ-RI
    Molecular point group: c1

    Geometry (in Angstrom), charge = 0, multiplicity = 1:

       Center              X                  Y                   Z               Mass
    ------------   -----------------  -----------------  -----------------  -----------------
         S            1.811272078714     0.720989275882    -0.342437685760    31.972071174400
         O           -1.825041021286    -0.934379424118    -0.798993485760    15.994914619570
         O            0.491211078714    -1.063454724118     1.113350314240    15.994914619570
         C           -0.830288921286     0.831861275882     0.474322314240    12.000000000000
         C           -3.374914421286     0.613028675882     0.250413814240    12.000000000000
         C           -2.012594921286     0.050502275882    -0.096327685760    12.000000000000
         C            0.429646078714    -0.005561724118     0.507096314240    12.000000000000
         C           -4.514631921286    -0.281062724118    -0.285758685760    12.000000000000
         C            3.054672078714    -0.558233724118    -0.009531685760    12.000000000000
         C            4.440328078714    -0.048528724118    -0.375330685760    12.000000000000
         H           -0.697162921286     1.744301275882    -0.121506685760     1.007825032230
         H           -1.050375921286     1.148988275882     1.500379314240     1.007825032230
         H           -3.455763921286     0.721902275882     1.324166314240     1.007825032230
         H           -3.447221921286     1.609514275882    -0.183929685760     1.007825032230
         H           -5.484837921286     0.164137275882    -0.051392685760     1.007825032230
         H           -4.435645921286    -0.405186724118    -1.367409685760     1.007825032230
         H           -4.469117921286    -1.274929724118     0.165587314240     1.007825032230
         H            2.993501078714    -0.810319724118     1.048707314240     1.007825032230
         H            2.799552078714    -1.454648724118    -0.577274685760     1.007825032230
         H            4.498354078714     0.222897275882    -1.432378685760     1.007825032230
         H            4.705677078714     0.828076275882     0.220121314240     1.007825032230
         H            5.183204078714    -0.828170724118    -0.185995685760     1.007825032230

  Basis Set: AUG-CC-PVTZ
    Blend: AUG-CC-PVTZ
  Basis Set: (AUG-CC-PVTZ AUX)
    Blend: AUG-CC-PVTZ-JKFIT
	 Reference Energy          =    -819.4941073148265787 [Eh]
	 Singles Energy            =      -0.0000000000000000 [Eh]
	 Same-Spin Energy          =      -0.4840977799234665 [Eh]
	 Opposite-Spin Energy      =      -1.5710327369914374 [Eh]
	 Correlation Energy        =      -2.0551305169149039 [Eh]
	 Total Energy              =    -821.5492378317414932 [Eh]

	 ================> DF-SCS-MP2 Energies <==================
	-----------------------------------------------------------
	 SCS Same-Spin Scale       =       0.3333333333333333 [-]
	 SCS Opposite-Spin Scale   =       1.2000000000000000 [-]
	 SCS Same-Spin Energy      =      -0.1613659266411555 [Eh]
	 SCS Opposite-Spin Energy  =      -1.8852392843897248 [Eh]
	 SCS Correlation Energy    =      -2.0466052110308803 [Eh]
	 SCS Total Energy          =    -821.5407125258574297 [Eh]
	-----------------------------------------------------------

  Dipole Moment: [D]
     X:    -0.0725      Y:     2.8301      Z:     0.6765     Total:     2.9108

*** Psi4 exiting successfully. Buy a developer a beer!
