                               Psi4 1.3.2 release

  ==> Input File <==

--------------------------------------------------------------------------
#psi4
#
memory 32 gb

molecule  {
0 1
  S        1.8142300     0.7226310    -0.3411240
  O       -1.8432130    -0.9348080    -0.8000930
  O        0.4941690    -1.0618130     1.1146640
  C       -0.8358133     0.8420994     0.4812838
  C       -3.3776420     0.6053221     0.2443035
  C       -2.0096370     0.0521440    -0.0950140
  C        0.4326040    -0.0039200     0.5084100
  C       -4.5116740    -0.2794210    -0.2844450
  C        3.0576300    -0.5565920    -0.0082180
  C        4.4432860    -0.0468870    -0.3740170
  H       -0.6942050     1.7459430    -0.1201930
  H       -1.0474180     1.1506300     1.5016930
  H       -3.4528060     0.7235440     1.3254800
  H       -3.4442640     1.6111560    -0.1826160
  H       -5.4818800     0.1657790    -0.0500790
  H       -4.4326880    -0.4035450    -1.3660960
  H       -4.4661600    -1.2732880     0.1669010
  H        2.9964590    -0.8086780     1.0500210
  H        2.8025100    -1.4530070    -0.5759610
  H        4.5013120     0.2245390    -1.4310650
  H        4.7086350     0.8297180     0.2214350
  H        5.1861620    -0.8265290    -0.1846820
units angstrom
no_reorient  #important for SAPT in psi4, default
symmetry c1  #important for SAPT in psi4, default
}

set PROPERTIES_ORIGIN ["COM"]
properties('MP2/aug-cc-pvtz', properties = ['dipole'])
--------------------------------------------------------------------------

    Molecular point group: c1
  Charge       = 0
  Multiplicity = 1
  Basis Set: AUG-CC-PVTZ
    Blend: AUG-CC-PVTZ
  Basis Set: (AUG-CC-PVTZ AUX)
    Blend: AUG-CC-PVTZ-JKFIT

    Orbital Energies [Eh]
    ---------------------

    Doubly Occupied:

       1A    -91.972100     2A    -20.556345     3A    -20.555141
       4A    -11.367739     5A    -11.346267     6A    -11.266130
       7A    -11.262616     8A    -11.248869     9A    -11.231634
      10A    -11.222577    11A     -8.973703    12A     -6.654856
      13A     -6.653729    14A     -6.653114    15A     -1.397188
      16A     -1.384037    17A     -1.093545    18A     -1.077054
      19A     -1.040601    20A     -0.972054    21A     -0.895588
      22A     -0.837766    23A     -0.759604    24A     -0.727360
      25A     -0.677657    26A     -0.669007    27A     -0.647124
      28A     -0.638122    29A     -0.634112    30A     -0.609091
      31A     -0.596204    32A     -0.559711    33A     -0.544863
      34A     -0.532232    35A     -0.527155    36A     -0.519990
      37A     -0.512630    38A     -0.505362    39A     -0.490330
      40A     -0.465183    41A     -0.429964    42A     -0.405287
      43A     -0.371103

  @DF-RHF Final Energy:  -819.49459845076194

   => Energetics <=

    Nuclear Repulsion Energy =            603.1875998025140007
    One-Electron Energy =               -2322.3949100964478021
    Two-Electron Energy =                 899.7127118431719737
    Total Energy =                       -819.4945984507619414
  Basis Set: (AUG-CC-PVTZ AUX)
    Blend: AUG-CC-PVTZ-RI
    Molecular point group: c1

    Geometry (in Angstrom), charge = 0, multiplicity = 1:

       Center              X                  Y                   Z               Mass
    ------------   -----------------  -----------------  -----------------  -----------------
         S            1.814445875252     0.721252540765    -0.342063358008    31.972071174400
         O           -1.842997124748    -0.936186459235    -0.801032358008    15.994914619570
         O            0.494384875252    -1.063191459235     1.113724641992    15.994914619570
         C           -0.835597424748     0.840720940765     0.480344441992    12.000000000000
         C           -3.377426124748     0.603943640765     0.243364141992    12.000000000000
         C           -2.009421124748     0.050765540765    -0.095953358008    12.000000000000
         C            0.432819875252    -0.005298459235     0.507470641992    12.000000000000
         C           -4.511458124748    -0.280799459235    -0.285384358008    12.000000000000
         C            3.057845875252    -0.557970459235    -0.009157358008    12.000000000000
         C            4.443501875252    -0.048265459235    -0.374956358008    12.000000000000
         H           -0.693989124748     1.744564540765    -0.121132358008     1.007825032230
         H           -1.047202124748     1.149251540765     1.500753641992     1.007825032230
         H           -3.452590124748     0.722165540765     1.324540641992     1.007825032230
         H           -3.444048124748     1.609777540765    -0.183555358008     1.007825032230
         H           -5.481664124748     0.164400540765    -0.051018358008     1.007825032230
         H           -4.432472124748    -0.404923459235    -1.367035358008     1.007825032230
         H           -4.465944124748    -1.274666459235     0.165961641992     1.007825032230
         H            2.996674875252    -0.810056459235     1.049081641992     1.007825032230
         H            2.802725875252    -1.454385459235    -0.576900358008     1.007825032230
         H            4.501527875252     0.223160540765    -1.432004358008     1.007825032230
         H            4.708850875252     0.828339540765     0.220495641992     1.007825032230
         H            5.186377875252    -0.827907459235    -0.185621358008     1.007825032230

  Basis Set: AUG-CC-PVTZ
    Blend: AUG-CC-PVTZ
  Basis Set: (AUG-CC-PVTZ AUX)
    Blend: AUG-CC-PVTZ-JKFIT
	 Reference Energy          =    -819.4945984507619414 [Eh]
	 Singles Energy            =      -0.0000000000000000 [Eh]
	 Same-Spin Energy          =      -0.4840842729518466 [Eh]
	 Opposite-Spin Energy      =      -1.5709681747492947 [Eh]
	 Correlation Energy        =      -2.0550524477011414 [Eh]
	 Total Energy              =    -821.5496508984630282 [Eh]

	 ================> DF-SCS-MP2 Energies <==================
	-----------------------------------------------------------
	 SCS Same-Spin Scale       =       0.3333333333333333 [-]
	 SCS Opposite-Spin Scale   =       1.2000000000000000 [-]
	 SCS Same-Spin Energy      =      -0.1613614243172822 [Eh]
	 SCS Opposite-Spin Energy  =      -1.8851618096991536 [Eh]
	 SCS Correlation Energy    =      -2.0465232340164357 [Eh]
	 SCS Total Energy          =    -821.5411216847784317 [Eh]
	-----------------------------------------------------------

  Dipole Moment: [D]
     X:     0.0217      Y:     2.8287      Z:     0.6847     Total:     2.9105

*** Psi4 exiting successfully. Buy a developer a beer!
