                               Psi4 1.3.2 release

  ==> Input File <==

--------------------------------------------------------------------------
#psi4
#
memory 32 gb

molecule  {
0 1
  S        1.7694355     0.6829036    -0.3204470
  O       -1.8432130    -0.9348080    -0.8000930
  O        0.4941690    -1.0618130     1.1146640
  C       -0.8273310     0.8335030     0.4756360
  C       -3.3832440     0.5955310     0.2374230
  C       -2.0096370     0.0521440    -0.0950140
  C        0.4326040    -0.0039200     0.5084100
  C       -4.5116740    -0.2794210    -0.2844450
  C        3.0576300    -0.5565920    -0.0082180
  C        4.4634679    -0.0935604    -0.3587492
  H       -0.6942050     1.7459430    -0.1201930
  H       -1.0474180     1.1506300     1.5016930
  H       -3.4528060     0.7235440     1.3254800
  H       -3.4442640     1.6111560    -0.1826160
  H       -5.4818800     0.1657790    -0.0500790
  H       -4.4326880    -0.4035450    -1.3660960
  H       -4.4661600    -1.2732880     0.1669010
  H        2.9964590    -0.8086780     1.0500210
  H        2.8025100    -1.4530070    -0.5759610
  H        4.5013120     0.2245390    -1.4310650
  H        4.7086350     0.8297180     0.2214350
  H        5.1861620    -0.8265290    -0.1846820
units angstrom
no_reorient  #important for SAPT in psi4, default
symmetry c1  #important for SAPT in psi4, default
}

set PROPERTIES_ORIGIN ["COM"]
properties('MP2/aug-cc-pvtz', properties = ['dipole'])
--------------------------------------------------------------------------

    Molecular point group: c1
  Charge       = 0
  Multiplicity = 1
  Basis Set: AUG-CC-PVTZ
    Blend: AUG-CC-PVTZ
  Basis Set: (AUG-CC-PVTZ AUX)
    Blend: AUG-CC-PVTZ-JKFIT

    Orbital Energies [Eh]
    ---------------------

    Doubly Occupied:

       1A    -91.972656     2A    -20.554791     3A    -20.548370
       4A    -11.361611     5A    -11.345297     6A    -11.265852
       7A    -11.263825     8A    -11.249313     9A    -11.234045
      10A    -11.221833    11A     -8.975607    12A     -6.656864
      13A     -6.655695    14A     -6.655070    15A     -1.395425
      16A     -1.382375    17A     -1.098914    18A     -1.077020
      19A     -1.043443    20A     -0.981614    21A     -0.896170
      22A     -0.842627    23A     -0.757772    24A     -0.724995
      25A     -0.678044    26A     -0.668946    27A     -0.647975
      28A     -0.637749    29A     -0.632589    30A     -0.607910
      31A     -0.599228    32A     -0.566810    33A     -0.546944
      34A     -0.532225    35A     -0.527852    36A     -0.519680
      37A     -0.510290    38A     -0.499644    39A     -0.487853
      40A     -0.465864    41A     -0.428440    42A     -0.408436
      43A     -0.372493

  @DF-RHF Final Energy:  -819.49068979938602

   => Energetics <=

    Nuclear Repulsion Energy =            605.4998876195434150
    One-Electron Energy =               -2326.9808483274446189
    Two-Electron Energy =                 901.9902709085151855
    Total Energy =                       -819.4906897993860184
  Basis Set: (AUG-CC-PVTZ AUX)
    Blend: AUG-CC-PVTZ-RI
    Molecular point group: c1

    Geometry (in Angstrom), charge = 0, multiplicity = 1:

       Center              X                  Y                   Z               Mass
    ------------   -----------------  -----------------  -----------------  -----------------
         S            1.776870273514     0.694338784820    -0.325722099120    31.972071174400
         O           -1.835778226486    -0.923372815180    -0.805368099120    15.994914619570
         O            0.501603773514    -1.050377815180     1.109388900880    15.994914619570
         C           -0.819896226486     0.844938184820     0.470360900880    12.000000000000
         C           -3.375809226486     0.606966184820     0.232147900880    12.000000000000
         C           -2.002202226486     0.063579184820    -0.100289099120    12.000000000000
         C            0.440038773514     0.007515184820     0.503134900880    12.000000000000
         C           -4.504239226486    -0.267985815180    -0.289720099120    12.000000000000
         C            3.065064773514    -0.545156815180    -0.013493099120    12.000000000000
         C            4.470902673514    -0.082125215180    -0.364024299120    12.000000000000
         H           -0.686770226486     1.757378184820    -0.125468099120     1.007825032230
         H           -1.039983226486     1.162065184820     1.496417900880     1.007825032230
         H           -3.445371226486     0.734979184820     1.320204900880     1.007825032230
         H           -3.436829226486     1.622591184820    -0.187891099120     1.007825032230
         H           -5.474445226486     0.177214184820    -0.055354099120     1.007825032230
         H           -4.425253226486    -0.392109815180    -1.371371099120     1.007825032230
         H           -4.458725226486    -1.261852815180     0.161625900880     1.007825032230
         H            3.003893773514    -0.797242815180     1.044745900880     1.007825032230
         H            2.809944773514    -1.441571815180    -0.581236099120     1.007825032230
         H            4.508746773514     0.235974184820    -1.436340099120     1.007825032230
         H            4.716069773514     0.841153184820     0.216159900880     1.007825032230
         H            5.193596773514    -0.815093815180    -0.189957099120     1.007825032230

  Basis Set: AUG-CC-PVTZ
    Blend: AUG-CC-PVTZ
  Basis Set: (AUG-CC-PVTZ AUX)
    Blend: AUG-CC-PVTZ-JKFIT
	 Reference Energy          =    -819.4906897993860184 [Eh]
	 Singles Energy            =      -0.0000000000000000 [Eh]
	 Same-Spin Energy          =      -0.4843904176665357 [Eh]
	 Opposite-Spin Energy      =      -1.5705453032519556 [Eh]
	 Correlation Energy        =      -2.0549357209184915 [Eh]
	 Total Energy              =    -821.5456255203044975 [Eh]

	 ================> DF-SCS-MP2 Energies <==================
	-----------------------------------------------------------
	 SCS Same-Spin Scale       =       0.3333333333333333 [-]
	 SCS Opposite-Spin Scale   =       1.2000000000000000 [-]
	 SCS Same-Spin Energy      =      -0.1614634725555119 [Eh]
	 SCS Opposite-Spin Energy  =      -1.8846543639023468 [Eh]
	 SCS Correlation Energy    =      -2.0461178364578587 [Eh]
	 SCS Total Energy          =    -821.5368076358438429 [Eh]
	-----------------------------------------------------------

  Dipole Moment: [D]
     X:     0.2107      Y:     2.9017      Z:     0.5903     Total:     2.9686

*** Psi4 exiting successfully. Buy a developer a beer!
