                               Psi4 1.3.2 release

  ==> Input File <==

--------------------------------------------------------------------------
#psi4
#
memory 32 gb

molecule  {
0 1
  S        1.8142300     0.7226310    -0.3411240
  O       -1.8432130    -0.9348080    -0.8000930
  O        0.4941690    -1.0618130     1.1146640
  C       -0.8273310     0.8335030     0.4756360
  C       -3.3832440     0.5955310     0.2374230
  C       -2.0078573     0.0427668    -0.0857057
  C        0.4326040    -0.0039200     0.5084100
  C       -4.5116740    -0.2794210    -0.2844450
  C        3.0576300    -0.5565920    -0.0082180
  C        4.4432860    -0.0468870    -0.3740170
  H       -0.6867821     1.7484193    -0.1146653
  H       -1.0474180     1.1506300     1.5016930
  H       -3.4528060     0.7235440     1.3254800
  H       -3.4442640     1.6111560    -0.1826160
  H       -5.4818800     0.1657790    -0.0500790
  H       -4.4326880    -0.4035450    -1.3660960
  H       -4.4661600    -1.2732880     0.1669010
  H        2.9964590    -0.8086780     1.0500210
  H        2.8025100    -1.4530070    -0.5759610
  H        4.5013120     0.2245390    -1.4310650
  H        4.7086350     0.8297180     0.2214350
  H        5.1861620    -0.8265290    -0.1846820
units angstrom
no_reorient  #important for SAPT in psi4, default
symmetry c1  #important for SAPT in psi4, default
}

set PROPERTIES_ORIGIN ["COM"]
properties('MP2/aug-cc-pvtz', properties = ['dipole'])
--------------------------------------------------------------------------

    Molecular point group: c1
  Charge       = 0
  Multiplicity = 1
  Basis Set: AUG-CC-PVTZ
    Blend: AUG-CC-PVTZ
  Basis Set: (AUG-CC-PVTZ AUX)
    Blend: AUG-CC-PVTZ-JKFIT

    Orbital Energies [Eh]
    ---------------------

    Doubly Occupied:

       1A    -91.972112     2A    -20.555924     3A    -20.555025
       4A    -11.367324     5A    -11.346042     6A    -11.266731
       7A    -11.262639     8A    -11.249742     9A    -11.231646
      10A    -11.222153    11A     -8.973728    12A     -6.654881
      13A     -6.653753    14A     -6.653139    15A     -1.398049
      16A     -1.385028    17A     -1.093873    18A     -1.076816
      19A     -1.042548    20A     -0.972068    21A     -0.895659
      22A     -0.837632    23A     -0.759822    24A     -0.727244
      25A     -0.678587    26A     -0.667929    27A     -0.648215
      28A     -0.637408    29A     -0.633936    30A     -0.609130
      31A     -0.595064    32A     -0.559796    33A     -0.546018
      34A     -0.533283    35A     -0.527165    36A     -0.520819
      37A     -0.512077    38A     -0.504549    39A     -0.489301
      40A     -0.465352    41A     -0.429833    42A     -0.406088
      43A     -0.371166

  @DF-RHF Final Energy:  -819.49492770439474

   => Energetics <=

    Nuclear Repulsion Energy =            603.4810881765556587
    One-Electron Energy =               -2322.9734449104266787
    Two-Electron Energy =                 899.9974290294762795
    Total Energy =                       -819.4949277043947404
  Basis Set: (AUG-CC-PVTZ AUX)
    Blend: AUG-CC-PVTZ-RI
    Molecular point group: c1

    Geometry (in Angstrom), charge = 0, multiplicity = 1:

       Center              X                  Y                   Z               Mass
    ------------   -----------------  -----------------  -----------------  -----------------
         S            1.814049757247     0.723318574744    -0.341856748530    31.972071174400
         O           -1.843393242753    -0.934120425256    -0.800825748530    15.994914619570
         O            0.493988757247    -1.061125425256     1.113931251470    15.994914619570
         C           -0.827511242753     0.834190574744     0.474903251470    12.000000000000
         C           -3.383424242753     0.596218574744     0.236690251470    12.000000000000
         C           -2.008037542753     0.043454374744    -0.086438448530    12.000000000000
         C            0.432423757247    -0.003232425256     0.507677251470    12.000000000000
         C           -4.511854242753    -0.278733425256    -0.285177748530    12.000000000000
         C            3.057449757247    -0.555904425256    -0.008950748530    12.000000000000
         C            4.443105757247    -0.046199425256    -0.374749748530    12.000000000000
         H           -0.686962342753     1.749106874744    -0.115398048530     1.007825032230
         H           -1.047598242753     1.151317574744     1.500960251470     1.007825032230
         H           -3.452986242753     0.724231574744     1.324747251470     1.007825032230
         H           -3.444444242753     1.611843574744    -0.183348748530     1.007825032230
         H           -5.482060242753     0.166466574744    -0.050811748530     1.007825032230
         H           -4.432868242753    -0.402857425256    -1.366828748530     1.007825032230
         H           -4.466340242753    -1.272600425256     0.166168251470     1.007825032230
         H            2.996278757247    -0.807990425256     1.049288251470     1.007825032230
         H            2.802329757247    -1.452319425256    -0.576693748530     1.007825032230
         H            4.501131757247     0.225226574744    -1.431797748530     1.007825032230
         H            4.708454757247     0.830405574744     0.220702251470     1.007825032230
         H            5.185981757247    -0.825841425256    -0.185414748530     1.007825032230

  Basis Set: AUG-CC-PVTZ
    Blend: AUG-CC-PVTZ
  Basis Set: (AUG-CC-PVTZ AUX)
    Blend: AUG-CC-PVTZ-JKFIT
	 Reference Energy          =    -819.4949277043947404 [Eh]
	 Singles Energy            =      -0.0000000000000000 [Eh]
	 Same-Spin Energy          =      -0.4841433914105144 [Eh]
	 Opposite-Spin Energy      =      -1.5709228862536335 [Eh]
	 Correlation Energy        =      -2.0550662776641477 [Eh]
	 Total Energy              =    -821.5499939820589361 [Eh]

	 ================> DF-SCS-MP2 Energies <==================
	-----------------------------------------------------------
	 SCS Same-Spin Scale       =       0.3333333333333333 [-]
	 SCS Opposite-Spin Scale   =       1.2000000000000000 [-]
	 SCS Same-Spin Energy      =      -0.1613811304701715 [Eh]
	 SCS Opposite-Spin Energy  =      -1.8851074635043601 [Eh]
	 SCS Correlation Energy    =      -2.0464885939745314 [Eh]
	 SCS Total Energy          =    -821.5414162983693132 [Eh]
	-----------------------------------------------------------

  Dipole Moment: [D]
     X:     0.0112      Y:     2.8247      Z:     0.6827     Total:     2.9060

*** Psi4 exiting successfully. Buy a developer a beer!
