                               Psi4 1.3.2 release

  ==> Input File <==

--------------------------------------------------------------------------
#psi4
#
memory 32 gb

molecule  {
0 1
  S        1.8142300     0.7226310    -0.3411240
  O       -1.8644063    -0.9369244    -0.8018091
  O        0.4941690    -1.0618130     1.1146640
  C       -0.8443960     0.8502372     0.4874560
  C       -3.3832440     0.5955310     0.2374230
  C       -2.0096370     0.0521440    -0.0950140
  C        0.4326040    -0.0039200     0.5084100
  C       -4.5116740    -0.2794210    -0.2844450
  C        3.0576300    -0.5565920    -0.0082180
  C        4.4432860    -0.0468870    -0.3740170
  H       -0.6942050     1.7459430    -0.1201930
  H       -1.0474180     1.1506300     1.5016930
  H       -3.4528060     0.7235440     1.3254800
  H       -3.4442640     1.6111560    -0.1826160
  H       -5.4818800     0.1657790    -0.0500790
  H       -4.4326880    -0.4035450    -1.3660960
  H       -4.4661600    -1.2732880     0.1669010
  H        2.9964590    -0.8086780     1.0500210
  H        2.8025100    -1.4530070    -0.5759610
  H        4.5013120     0.2245390    -1.4310650
  H        4.7086350     0.8297180     0.2214350
  H        5.1861620    -0.8265290    -0.1846820
units angstrom
no_reorient  #important for SAPT in psi4, default
symmetry c1  #important for SAPT in psi4, default
}

set PROPERTIES_ORIGIN ["COM"]
properties('MP2/aug-cc-pvtz', properties = ['dipole'])
--------------------------------------------------------------------------

    Molecular point group: c1
  Charge       = 0
  Multiplicity = 1
  Basis Set: AUG-CC-PVTZ
    Blend: AUG-CC-PVTZ
  Basis Set: (AUG-CC-PVTZ AUX)
    Blend: AUG-CC-PVTZ-JKFIT

    Orbital Energies [Eh]
    ---------------------

    Doubly Occupied:

       1A    -91.972732     2A    -20.556120     3A    -20.555991
       4A    -11.368848     5A    -11.346014     6A    -11.267178
       7A    -11.263089     8A    -11.248016     9A    -11.231991
      10A    -11.221093    11A     -8.974319    12A     -6.655470
      13A     -6.654344    14A     -6.653729    15A     -1.397248
      16A     -1.384320    17A     -1.093667    18A     -1.077289
      19A     -1.040877    20A     -0.972800    21A     -0.894633
      22A     -0.838007    23A     -0.757962    24A     -0.727994
      25A     -0.677502    26A     -0.669814    27A     -0.646910
      28A     -0.637584    29A     -0.633900    30A     -0.609333
      31A     -0.597727    32A     -0.560068    33A     -0.546241
      34A     -0.532597    35A     -0.527411    36A     -0.520085
      37A     -0.512448    38A     -0.505279    39A     -0.488997
      40A     -0.465566    41A     -0.430079    42A     -0.404859
      43A     -0.371648

  @DF-RHF Final Energy:  -819.49407110138736

   => Energetics <=

    Nuclear Repulsion Energy =            602.8947563325023111
    One-Electron Energy =               -2321.7940965702523499
    Two-Electron Energy =                 899.4052691363626764
    Total Energy =                       -819.4940711013873624
  Basis Set: (AUG-CC-PVTZ AUX)
    Blend: AUG-CC-PVTZ-RI
    Molecular point group: c1

    Geometry (in Angstrom), charge = 0, multiplicity = 1:

       Center              X                  Y                   Z               Mass
    ------------   -----------------  -----------------  -----------------  -----------------
         S            1.817627274623     0.721587994007    -0.341838758383    31.972071174400
         O           -1.861009025377    -0.937967405993    -0.802523858383    15.994914619570
         O            0.497566274623    -1.062856005993     1.113949241617    15.994914619570
         C           -0.840998725377     0.849194194007     0.486741241617    12.000000000000
         C           -3.379846725377     0.594487994007     0.236708241617    12.000000000000
         C           -2.006239725377     0.051100994007    -0.095728758383    12.000000000000
         C            0.436001274623    -0.004963005993     0.507695241617    12.000000000000
         C           -4.508276725377    -0.280464005993    -0.285159758383    12.000000000000
         C            3.061027274623    -0.557635005993    -0.008932758383    12.000000000000
         C            4.446683274623    -0.047930005993    -0.374731758383    12.000000000000
         H           -0.690807725377     1.744899994007    -0.120907758383     1.007825032230
         H           -1.044020725377     1.149586994007     1.500978241617     1.007825032230
         H           -3.449408725377     0.722500994007     1.324765241617     1.007825032230
         H           -3.440866725377     1.610112994007    -0.183330758383     1.007825032230
         H           -5.478482725377     0.164735994007    -0.050793758383     1.007825032230
         H           -4.429290725377    -0.404588005993    -1.366810758383     1.007825032230
         H           -4.462762725377    -1.274331005993     0.166186241617     1.007825032230
         H            2.999856274623    -0.809721005993     1.049306241617     1.007825032230
         H            2.805907274623    -1.454050005993    -0.576675758383     1.007825032230
         H            4.504709274623     0.223495994007    -1.431779758383     1.007825032230
         H            4.712032274623     0.828674994007     0.220720241617     1.007825032230
         H            5.189559274623    -0.827572005993    -0.185396758383     1.007825032230

  Basis Set: AUG-CC-PVTZ
    Blend: AUG-CC-PVTZ
  Basis Set: (AUG-CC-PVTZ AUX)
    Blend: AUG-CC-PVTZ-JKFIT
	 Reference Energy          =    -819.4940711013873624 [Eh]
	 Singles Energy            =      -0.0000000000000000 [Eh]
	 Same-Spin Energy          =      -0.4841113550343953 [Eh]
	 Opposite-Spin Energy      =      -1.5709861840688184 [Eh]
	 Correlation Energy        =      -2.0550975391032136 [Eh]
	 Total Energy              =    -821.5491686404906204 [Eh]

	 ================> DF-SCS-MP2 Energies <==================
	-----------------------------------------------------------
	 SCS Same-Spin Scale       =       0.3333333333333333 [-]
	 SCS Opposite-Spin Scale   =       1.2000000000000000 [-]
	 SCS Same-Spin Energy      =      -0.1613704516781318 [Eh]
	 SCS Opposite-Spin Energy  =      -1.8851834208825820 [Eh]
	 SCS Correlation Energy    =      -2.0465538725607137 [Eh]
	 SCS Total Energy          =    -821.5406249739480700 [Eh]
	-----------------------------------------------------------

  Dipole Moment: [D]
     X:     0.1158      Y:     2.8257      Z:     0.6916     Total:     2.9114

*** Psi4 exiting successfully. Buy a developer a beer!
