                               Psi4 1.3.2 release

  ==> Input File <==

--------------------------------------------------------------------------
#psi4
#
memory 32 gb

molecule  {
0 1
  S        1.8142300     0.7226310    -0.3411240
  O       -1.9069193    -0.9402529    -0.8045949
  O        0.4941690    -1.0618130     1.1146640
  C       -0.8795855     0.8829714     0.5105603
  C       -3.3832440     0.5955310     0.2374230
  C       -2.0096370     0.0521440    -0.0950140
  C        0.4326040    -0.0039200     0.5084100
  C       -4.5116740    -0.2794210    -0.2844450
  C        3.0576300    -0.5565920    -0.0082180
  C        4.4432860    -0.0468870    -0.3740170
  H       -0.6942050     1.7459430    -0.1201930
  H       -1.0474180     1.1506300     1.5016930
  H       -3.4528060     0.7235440     1.3254800
  H       -3.4442640     1.6111560    -0.1826160
  H       -5.4818800     0.1657790    -0.0500790
  H       -4.4326880    -0.4035450    -1.3660960
  H       -4.4661600    -1.2732880     0.1669010
  H        2.9964590    -0.8086780     1.0500210
  H        2.8025100    -1.4530070    -0.5759610
  H        4.5013120     0.2245390    -1.4310650
  H        4.7086350     0.8297180     0.2214350
  H        5.1861620    -0.8265290    -0.1846820
units angstrom
no_reorient  #important for SAPT in psi4, default
symmetry c1  #important for SAPT in psi4, default
}

set PROPERTIES_ORIGIN ["COM"]
properties('MP2/aug-cc-pvtz', properties = ['dipole'])
--------------------------------------------------------------------------

    Molecular point group: c1
  Charge       = 0
  Multiplicity = 1
  Basis Set: AUG-CC-PVTZ
    Blend: AUG-CC-PVTZ
  Basis Set: (AUG-CC-PVTZ AUX)
    Blend: AUG-CC-PVTZ-JKFIT

    Orbital Energies [Eh]
    ---------------------

    Doubly Occupied:

       1A    -91.973940     2A    -20.557712     3A    -20.557251
       4A    -11.371357     5A    -11.346148     6A    -11.268412
       7A    -11.264003     8A    -11.244317     9A    -11.232688
      10A    -11.218717    11A     -8.975478    12A     -6.656626
      13A     -6.655503    14A     -6.654885    15A     -1.397166
      16A     -1.385146    17A     -1.093383    18A     -1.077697
      19A     -1.037486    20A     -0.974134    21A     -0.891833
      22A     -0.838661    23A     -0.754669    24A     -0.729937
      25A     -0.677226    26A     -0.673087    27A     -0.644441
      28A     -0.637803    29A     -0.633703    30A     -0.611070
      31A     -0.602051    32A     -0.560398    33A     -0.546943
      34A     -0.531397    35A     -0.527883    36A     -0.518724
      37A     -0.512922    38A     -0.506317    39A     -0.489186
      40A     -0.465767    41A     -0.430200    42A     -0.401053
      43A     -0.372627

  @DF-RHF Final Energy:  -819.48747291884308

   => Energetics <=

    Nuclear Repulsion Energy =            601.8564530932327443
    One-Electron Energy =               -2319.6879636055914489
    Two-Electron Energy =                 898.3440375935157363
    Total Energy =                       -819.4874729188430820
  Basis Set: (AUG-CC-PVTZ AUX)
    Blend: AUG-CC-PVTZ-RI
    Molecular point group: c1

    Geometry (in Angstrom), charge = 0, multiplicity = 1:

       Center              X                  Y                   Z               Mass
    ------------   -----------------  -----------------  -----------------  -----------------
         S            1.824514034114     0.719466413128    -0.343292582397    31.972071174400
         O           -1.896635265886    -0.943417486872    -0.806763482397    15.994914619570
         O            0.504453034114    -1.064977586872     1.112495417603    15.994914619570
         C           -0.869301465886     0.879806813128     0.508391717603    12.000000000000
         C           -3.372959965886     0.592366413128     0.235254417603    12.000000000000
         C           -1.999352965886     0.048979413128    -0.097182582397    12.000000000000
         C            0.442888034114    -0.007084586872     0.506241417603    12.000000000000
         C           -4.501389965886    -0.282585586872    -0.286613582397    12.000000000000
         C            3.067914034114    -0.559756586872    -0.010386582397    12.000000000000
         C            4.453570034114    -0.050051586872    -0.376185582397    12.000000000000
         H           -0.683920965886     1.742778413128    -0.122361582397     1.007825032230
         H           -1.037133965886     1.147465413128     1.499524417603     1.007825032230
         H           -3.442521965886     0.720379413128     1.323311417603     1.007825032230
         H           -3.433979965886     1.607991413128    -0.184784582397     1.007825032230
         H           -5.471595965886     0.162614413128    -0.052247582397     1.007825032230
         H           -4.422403965886    -0.406709586872    -1.368264582397     1.007825032230
         H           -4.455875965886    -1.276452586872     0.164732417603     1.007825032230
         H            3.006743034114    -0.811842586872     1.047852417603     1.007825032230
         H            2.812794034114    -1.456171586872    -0.578129582397     1.007825032230
         H            4.511596034114     0.221374413128    -1.433233582397     1.007825032230
         H            4.718919034114     0.826553413128     0.219266417603     1.007825032230
         H            5.196446034114    -0.829693586872    -0.186850582397     1.007825032230

  Basis Set: AUG-CC-PVTZ
    Blend: AUG-CC-PVTZ
  Basis Set: (AUG-CC-PVTZ AUX)
    Blend: AUG-CC-PVTZ-JKFIT
	 Reference Energy          =    -819.4874729188430820 [Eh]
	 Singles Energy            =      -0.0000000000000000 [Eh]
	 Same-Spin Energy          =      -0.4841302103479014 [Eh]
	 Opposite-Spin Energy      =      -1.5712894684350356 [Eh]
	 Correlation Energy        =      -2.0554196787829371 [Eh]
	 Total Energy              =    -821.5428925976260643 [Eh]

	 ================> DF-SCS-MP2 Energies <==================
	-----------------------------------------------------------
	 SCS Same-Spin Scale       =       0.3333333333333333 [-]
	 SCS Opposite-Spin Scale   =       1.2000000000000000 [-]
	 SCS Same-Spin Energy      =      -0.1613767367826338 [Eh]
	 SCS Opposite-Spin Energy  =      -1.8855473621220427 [Eh]
	 SCS Correlation Energy    =      -2.0469240989046766 [Eh]
	 SCS Total Energy          =    -821.5343970177477786 [Eh]
	-----------------------------------------------------------

  Dipole Moment: [D]
     X:     0.3430      Y:     2.8025      Z:     0.7049     Total:     2.9101

*** Psi4 exiting successfully. Buy a developer a beer!
