                               Psi4 1.3.2 release

  ==> Input File <==

--------------------------------------------------------------------------
#psi4
#
memory 32 gb

molecule  {
0 1
  S        1.8142300     0.7226310    -0.3411240
  O       -1.8432130    -0.9348080    -0.8000930
  O        0.4941690    -1.0618130     1.1146640
  C       -0.8273310     0.8335030     0.4756360
  C       -3.3832440     0.5955310     0.2374230
  C       -2.0096370     0.0521440    -0.0950140
  C        0.3980717     0.0448165     0.4916652
  C       -4.5116740    -0.2794210    -0.2844450
  C        3.0998364    -0.5225093    -0.0409188
  C        4.4432860    -0.0468870    -0.3740170
  H       -0.6942050     1.7459430    -0.1201930
  H       -1.0474180     1.1506300     1.5016930
  H       -3.4528060     0.7235440     1.3254800
  H       -3.4442640     1.6111560    -0.1826160
  H       -5.4818800     0.1657790    -0.0500790
  H       -4.4326880    -0.4035450    -1.3660960
  H       -4.4661600    -1.2732880     0.1669010
  H        2.9964590    -0.8086780     1.0500210
  H        2.8025100    -1.4530070    -0.5759610
  H        4.5013120     0.2245390    -1.4310650
  H        4.7086350     0.8297180     0.2214350
  H        5.1861620    -0.8265290    -0.1846820
units angstrom
no_reorient  #important for SAPT in psi4, default
symmetry c1  #important for SAPT in psi4, default
}

set PROPERTIES_ORIGIN ["COM"]
properties('MP2/aug-cc-pvtz', properties = ['dipole'])
--------------------------------------------------------------------------

    Molecular point group: c1
  Charge       = 0
  Multiplicity = 1
  Basis Set: AUG-CC-PVTZ
    Blend: AUG-CC-PVTZ
  Basis Set: (AUG-CC-PVTZ AUX)
    Blend: AUG-CC-PVTZ-JKFIT

    Orbital Energies [Eh]
    ---------------------

    Doubly Occupied:

       1A    -91.974707     2A    -20.557678     3A    -20.549322
       4A    -11.371886     5A    -11.349164     6A    -11.268718
       7A    -11.266573     8A    -11.251805     9A    -11.230262
      10A    -11.223488    11A     -8.976026    12A     -6.657165
      13A     -6.656185    14A     -6.655564    15A     -1.392265
      16A     -1.355911    17A     -1.101394    18A     -1.083898
      19A     -1.051894    20A     -0.978053    21A     -0.900628
      22A     -0.834024    23A     -0.764138    24A     -0.727435
      25A     -0.680609    26A     -0.671153    27A     -0.645246
      28A     -0.634753    29A     -0.632692    30A     -0.608948
      31A     -0.596319    32A     -0.557622    33A     -0.549334
      34A     -0.535931    35A     -0.527110    36A     -0.520304
      37A     -0.509722    38A     -0.494740    39A     -0.484261
      40A     -0.461413    41A     -0.429890    42A     -0.410115
      43A     -0.367688

  @DF-RHF Final Energy:  -819.47820787356750

   => Energetics <=

    Nuclear Repulsion Energy =            603.2385655874585382
    One-Electron Energy =               -2322.4414775591444595
    Two-Electron Energy =                 899.7247040981183090
    Total Energy =                       -819.4782078735674986
  Basis Set: (AUG-CC-PVTZ AUX)
    Blend: AUG-CC-PVTZ-RI
    Molecular point group: c1

    Geometry (in Angstrom), charge = 0, multiplicity = 1:

       Center              X                  Y                   Z               Mass
    ------------   -----------------  -----------------  -----------------  -----------------
         S            1.813654571223     0.716421847994    -0.337416935971    31.972071174400
         O           -1.843788428777    -0.941017152006    -0.796385935971    15.994914619570
         O            0.493593571223    -1.068022152006     1.118371064029    15.994914619570
         C           -0.827906428777     0.827293847994     0.479343064029    12.000000000000
         C           -3.383819428777     0.589321847994     0.241130064029    12.000000000000
         C           -2.010212428777     0.045934847994    -0.091306935971    12.000000000000
         C            0.397496271223     0.038607347994     0.495372264029    12.000000000000
         C           -4.512249428777    -0.285630152006    -0.280737935971    12.000000000000
         C            3.099260971223    -0.528718452006    -0.037211735971    12.000000000000
         C            4.442710571223    -0.053096152006    -0.370309935971    12.000000000000
         H           -0.694780428777     1.739733847994    -0.116485935971     1.007825032230
         H           -1.047993428777     1.144420847994     1.505400064029     1.007825032230
         H           -3.453381428777     0.717334847994     1.329187064029     1.007825032230
         H           -3.444839428777     1.604946847994    -0.178908935971     1.007825032230
         H           -5.482455428777     0.159569847994    -0.046371935971     1.007825032230
         H           -4.433263428777    -0.409754152006    -1.362388935971     1.007825032230
         H           -4.466735428777    -1.279497152006     0.170608064029     1.007825032230
         H            2.995883571223    -0.814887152006     1.053728064029     1.007825032230
         H            2.801934571223    -1.459216152006    -0.572253935971     1.007825032230
         H            4.500736571223     0.218329847994    -1.427357935971     1.007825032230
         H            4.708059571223     0.823508847994     0.225142064029     1.007825032230
         H            5.185586571223    -0.832738152006    -0.180974935971     1.007825032230

  Basis Set: AUG-CC-PVTZ
    Blend: AUG-CC-PVTZ
  Basis Set: (AUG-CC-PVTZ AUX)
    Blend: AUG-CC-PVTZ-JKFIT
	 Reference Energy          =    -819.4782078735674986 [Eh]
	 Singles Energy            =      -0.0000000000000000 [Eh]
	 Same-Spin Energy          =      -0.4865687148650398 [Eh]
	 Opposite-Spin Energy      =      -1.5750975130565796 [Eh]
	 Correlation Energy        =      -2.0616662279216196 [Eh]
	 Total Energy              =    -821.5398741014890902 [Eh]

	 ================> DF-SCS-MP2 Energies <==================
	-----------------------------------------------------------
	 SCS Same-Spin Scale       =       0.3333333333333333 [-]
	 SCS Opposite-Spin Scale   =       1.2000000000000000 [-]
	 SCS Same-Spin Energy      =      -0.1621895716216799 [Eh]
	 SCS Opposite-Spin Energy  =      -1.8901170156678955 [Eh]
	 SCS Correlation Energy    =      -2.0523065872895754 [Eh]
	 SCS Total Energy          =    -821.5305144608570345 [Eh]
	-----------------------------------------------------------

  Dipole Moment: [D]
     X:    -0.0539      Y:     2.9695      Z:     0.5886     Total:     3.0278

*** Psi4 exiting successfully. Buy a developer a beer!
