                               Psi4 1.4a3.dev225

  ==> Input File <==

--------------------------------------------------------------------------
#psi4
#
memory 32 gb

molecule  {
0 1
  S        1.5586770    -0.2994370    -0.7152220
  O       -1.5255240    -0.4876820     1.0921970
  O        0.7924220     1.7006740     0.8461850
  C       -0.8878030     0.9736540    -0.7120840
  C       -3.2304390    -0.0998550    -0.5631210
  C       -1.8542380     0.0638590     0.0480780
  C        0.4919265     0.9792614    -0.0281253
  C       -4.1634610    -0.9398430     0.2972900
  C        2.9497330    -0.0790050     0.4324980
  C        4.0540790    -1.0751370     0.1033520
  H       -0.8484610     0.6756560    -1.7668750
  H       -1.2645150     2.0025910    -0.6674260
  H       -3.6447290     0.9013370    -0.7419330
  H       -3.1015980    -0.5455960    -1.5588690
  H       -5.1413450    -1.0357370    -0.1813640
  H       -3.7504260    -1.9381500     0.4523140
  H       -4.2995020    -0.4825820     1.2793320
  H        3.3022180     0.9509290     0.3487650
  H        2.5726230    -0.2199470     1.4475820
  H        3.7004310    -2.1050230     0.1947960
  H        4.4320470    -0.9299840    -0.9117720
  H        4.8873260    -0.9394890     0.7982930
units angstrom
no_reorient  #important for SAPT in psi4, default
symmetry c1  #important for SAPT in psi4, default
}

set PROPERTIES_ORIGIN ["COM"]
properties('MP2/aug-cc-pvtz', properties = ['dipole'])
--------------------------------------------------------------------------

    Molecular point group: c1
  Charge       = 0
  Multiplicity = 1
  Basis Set: AUG-CC-PVTZ
    Blend: AUG-CC-PVTZ
  Basis Set: (AUG-CC-PVTZ AUX)
    Blend: AUG-CC-PVTZ-JKFIT

    Orbital Energies [Eh]
    ---------------------

    Doubly Occupied:

       1A    -91.962711     2A    -20.562626     3A    -20.558542
       4A    -11.363396     5A    -11.348938     6A    -11.265690
       7A    -11.259368     8A    -11.251738     9A    -11.228144
      10A    -11.224150    11A     -8.964384    12A     -6.645530
      13A     -6.644412    14A     -6.643736    15A     -1.429826
      16A     -1.390602    17A     -1.088686    18A     -1.074910
      19A     -1.039376    20A     -0.964278    21A     -0.895953
      22A     -0.832361    23A     -0.759550    24A     -0.728479
      25A     -0.678186    26A     -0.671912    27A     -0.657335
      28A     -0.639848    29A     -0.631249    30A     -0.612682
      31A     -0.591147    32A     -0.564005    33A     -0.555569
      34A     -0.535519    35A     -0.526412    36A     -0.522281
      37A     -0.513763    38A     -0.508899    39A     -0.493531
      40A     -0.459388    41A     -0.431290    42A     -0.399400
      43A     -0.365441

  @DF-RHF Final Energy:  -819.49718003150019

   => Energetics <=

    Nuclear Repulsion Energy =            610.2694562813760513
    One-Electron Energy =               -2336.5627816148312377
    Two-Electron Energy =                 906.7961453019549936
    Total Energy =                       -819.4971800315001929
  Basis Set: (AUG-CC-PVTZ AUX)
    Blend: AUG-CC-PVTZ-RI
    Molecular point group: c1

    Geometry (in Angstrom), charge = 0, multiplicity = 1:

       Center              X                  Y                   Z               Mass
    ------------   -----------------  -----------------  -----------------  -----------------
         S            1.538401747204    -0.324482100827    -0.726183131969    31.972071174400
         O           -1.545799252796    -0.512727100827     1.081235868031    15.994914619570
         O            0.772146747204     1.675628899173     0.835223868031    15.994914619570
         C           -0.908078252796     0.948608899173    -0.723045131969    12.000000000000
         C           -3.250714252796    -0.124900100827    -0.574082131969    12.000000000000
         C           -1.874513252796     0.038813899173     0.037116868031    12.000000000000
         C            0.471651247204     0.954216299173    -0.039086431969    12.000000000000
         C           -4.183736252796    -0.964888100827     0.286328868031    12.000000000000
         C            2.929457747204    -0.104050100827     0.421536868031    12.000000000000
         C            4.033803747204    -1.100182100827     0.092390868031    12.000000000000
         H           -0.868736252796     0.650610899173    -1.777836131969     1.007825032230
         H           -1.284790252796     1.977545899173    -0.678387131969     1.007825032230
         H           -3.665004252796     0.876291899173    -0.752894131969     1.007825032230
         H           -3.121873252796    -0.570641100827    -1.569830131969     1.007825032230
         H           -5.161620252796    -1.060782100827    -0.192325131969     1.007825032230
         H           -3.770701252796    -1.963195100827     0.441352868031     1.007825032230
         H           -4.319777252796    -0.507627100827     1.268370868031     1.007825032230
         H            3.281942747204     0.925883899173     0.337803868031     1.007825032230
         H            2.552347747204    -0.244992100827     1.436620868031     1.007825032230
         H            3.680155747204    -2.130068100827     0.183834868031     1.007825032230
         H            4.411771747204    -0.955029100827    -0.922733131969     1.007825032230
         H            4.867050747204    -0.964534100827     0.787331868031     1.007825032230

  Basis Set: AUG-CC-PVTZ
    Blend: AUG-CC-PVTZ
  Basis Set: (AUG-CC-PVTZ AUX)
    Blend: AUG-CC-PVTZ-JKFIT
	 Reference Energy          =    -819.4971800315001929 [Eh]
	 Singles Energy            =      -0.0000000000000000 [Eh]
	 Same-Spin Energy          =      -0.4831214522430735 [Eh]
	 Opposite-Spin Energy      =      -1.5685897324299427 [Eh]
	 Correlation Energy        =      -2.0517111846730161 [Eh]
	 Total Energy              =    -821.5488912161731605 [Eh]

	 ================> DF-SCS-MP2 Energies <==================
	-----------------------------------------------------------
	 SCS Same-Spin Scale       =       0.3333333333333333 [-]
	 SCS Opposite-Spin Scale   =       1.2000000000000000 [-]
	 SCS Same-Spin Energy      =      -0.1610404840810245 [Eh]
	 SCS Opposite-Spin Energy  =      -1.8823076789159312 [Eh]
	 SCS Correlation Energy    =      -2.0433481629969559 [Eh]
	 SCS Total Energy          =    -821.5405281944971421 [Eh]
	-----------------------------------------------------------

  Dipole Moment: [D]
     X:    -0.8460      Y:     0.0484      Z:    -2.5125     Total:     2.6515

*** Psi4 exiting successfully. Buy a developer a beer!
