                               Psi4 1.3.2 release

  ==> Input File <==

--------------------------------------------------------------------------
#psi4
#
memory 32 gb

molecule  {
0 1
  S        1.8142300     0.7226310    -0.3411240
  O       -1.8432130    -0.9348080    -0.8000930
  O        0.4941690    -1.0618130     1.1146640
  C       -0.8273310     0.8335030     0.4756360
  C       -3.3832440     0.5955310     0.2374230
  C       -2.0129261     0.0710763    -0.1134995
  C        0.4326040    -0.0039200     0.5084100
  C       -4.5116740    -0.2794210    -0.2844450
  C        3.0576300    -0.5565920    -0.0082180
  C        4.4432860    -0.0468870    -0.3740170
  H       -0.7090806     1.7407821    -0.1311118
  H       -1.0474180     1.1506300     1.5016930
  H       -3.4528060     0.7235440     1.3254800
  H       -3.4442640     1.6111560    -0.1826160
  H       -5.4818800     0.1657790    -0.0500790
  H       -4.4326880    -0.4035450    -1.3660960
  H       -4.4661600    -1.2732880     0.1669010
  H        2.9964590    -0.8086780     1.0500210
  H        2.8025100    -1.4530070    -0.5759610
  H        4.5013120     0.2245390    -1.4310650
  H        4.7086350     0.8297180     0.2214350
  H        5.1861620    -0.8265290    -0.1846820
units angstrom
no_reorient  #important for SAPT in psi4, default
symmetry c1  #important for SAPT in psi4, default
}

set PROPERTIES_ORIGIN ["COM"]
properties('MP2/aug-cc-pvtz', properties = ['dipole'])
--------------------------------------------------------------------------

    Molecular point group: c1
  Charge       = 0
  Multiplicity = 1
  Basis Set: AUG-CC-PVTZ
    Blend: AUG-CC-PVTZ
  Basis Set: (AUG-CC-PVTZ AUX)
    Blend: AUG-CC-PVTZ-JKFIT

    Orbital Energies [Eh]
    ---------------------

    Doubly Occupied:

       1A    -91.972127     2A    -20.555242     3A    -20.554922
       4A    -11.367736     5A    -11.346361     6A    -11.267074
       7A    -11.262568     8A    -11.250227     9A    -11.231606
      10A    -11.222586    11A     -8.973728    12A     -6.654880
      13A     -6.653752    14A     -6.653137    15A     -1.396270
      16A     -1.381337    17A     -1.094058    18A     -1.077878
      19A     -1.042984    20A     -0.972189    21A     -0.897122
      22A     -0.837859    23A     -0.760558    24A     -0.726315
      25A     -0.677126    26A     -0.669045    27A     -0.647864
      28A     -0.638084    29A     -0.633894    30A     -0.607507
      31A     -0.595082    32A     -0.559784    33A     -0.546259
      34A     -0.532910    35A     -0.527028    36A     -0.520770
      37A     -0.511485    38A     -0.504849    39A     -0.487094
      40A     -0.465214    41A     -0.429567    42A     -0.407027
      43A     -0.371081

  @DF-RHF Final Energy:  -819.49358453105344

   => Energetics <=

    Nuclear Repulsion Energy =            603.3394258230127889
    One-Electron Energy =               -2322.6976499659858746
    Two-Electron Energy =                 899.8646396119196424
    Total Energy =                       -819.4935845310534432
  Basis Set: (AUG-CC-PVTZ AUX)
    Blend: AUG-CC-PVTZ-RI
    Molecular point group: c1

    Geometry (in Angstrom), charge = 0, multiplicity = 1:

       Center              X                  Y                   Z               Mass
    ------------   -----------------  -----------------  -----------------  -----------------
         S            1.814570191909     0.721244191703    -0.339669381420    31.972071174400
         O           -1.842872808091    -0.936194808297    -0.798638381420    15.994914619570
         O            0.494509191909    -1.063199808297     1.116118618580    15.994914619570
         C           -0.826990808091     0.832116191703     0.477090618580    12.000000000000
         C           -3.382903808091     0.594144191703     0.238877618580    12.000000000000
         C           -2.012585908091     0.069689491703    -0.112044881420    12.000000000000
         C            0.432944191909    -0.005306808297     0.509864618580    12.000000000000
         C           -4.511333808091    -0.280807808297    -0.282990381420    12.000000000000
         C            3.057970191909    -0.557978808297    -0.006763381420    12.000000000000
         C            4.443626191909    -0.048273808297    -0.372562381420    12.000000000000
         H           -0.708740408091     1.739395291703    -0.129657181420     1.007825032230
         H           -1.047077808091     1.149243191703     1.503147618580     1.007825032230
         H           -3.452465808091     0.722157191703     1.326934618580     1.007825032230
         H           -3.443923808091     1.609769191703    -0.181161381420     1.007825032230
         H           -5.481539808091     0.164392191703    -0.048624381420     1.007825032230
         H           -4.432347808091    -0.404931808297    -1.364641381420     1.007825032230
         H           -4.465819808091    -1.274674808297     0.168355618580     1.007825032230
         H            2.996799191909    -0.810064808297     1.051475618580     1.007825032230
         H            2.802850191909    -1.454393808297    -0.574506381420     1.007825032230
         H            4.501652191909     0.223152191703    -1.429610381420     1.007825032230
         H            4.708975191909     0.828331191703     0.222889618580     1.007825032230
         H            5.186502191909    -0.827915808297    -0.183227381420     1.007825032230

  Basis Set: AUG-CC-PVTZ
    Blend: AUG-CC-PVTZ
  Basis Set: (AUG-CC-PVTZ AUX)
    Blend: AUG-CC-PVTZ-JKFIT
	 Reference Energy          =    -819.4935845310534432 [Eh]
	 Singles Energy            =      -0.0000000000000000 [Eh]
	 Same-Spin Energy          =      -0.4844058274618206 [Eh]
	 Opposite-Spin Energy      =      -1.5714530250630689 [Eh]
	 Correlation Energy        =      -2.0558588525248895 [Eh]
	 Total Energy              =    -821.5494433835783639 [Eh]

	 ================> DF-SCS-MP2 Energies <==================
	-----------------------------------------------------------
	 SCS Same-Spin Scale       =       0.3333333333333333 [-]
	 SCS Opposite-Spin Scale   =       1.2000000000000000 [-]
	 SCS Same-Spin Energy      =      -0.1614686091539402 [Eh]
	 SCS Opposite-Spin Energy  =      -1.8857436300756827 [Eh]
	 SCS Correlation Energy    =      -2.0472122392296228 [Eh]
	 SCS Total Energy          =    -821.5407967702831229 [Eh]
	-----------------------------------------------------------

  Dipole Moment: [D]
     X:    -0.0171      Y:     2.8529      Z:     0.6831     Total:     2.9336

*** Psi4 exiting successfully. Buy a developer a beer!
