                               Psi4 1.3.2 release

  ==> Input File <==

--------------------------------------------------------------------------
#psi4
#
memory 32 gb

molecule  {
0 1
  S        1.8142300     0.7226310    -0.3411240
  O       -1.8432130    -0.9348080    -0.8000930
  O        0.4941690    -1.0618130     1.1146640
  C       -0.8273310     0.8335030     0.4756360
  C       -3.3832440     0.5955310     0.2374230
  C       -2.0157856     0.0296443    -0.0825922
  C        0.4326040    -0.0039200     0.5084100
  C       -4.5116740    -0.2794210    -0.2844450
  C        3.0576300    -0.5565920    -0.0082180
  C        4.4432860    -0.0468870    -0.3740170
  H       -0.6942050     1.7459430    -0.1201930
  H       -1.0474180     1.1506300     1.5016930
  H       -3.4528060     0.7235440     1.3254800
  H       -3.4621779     1.6126969    -0.1758485
  H       -5.4818800     0.1657790    -0.0500790
  H       -4.4326880    -0.4035450    -1.3660960
  H       -4.4661600    -1.2732880     0.1669010
  H        2.9964590    -0.8086780     1.0500210
  H        2.8025100    -1.4530070    -0.5759610
  H        4.5013120     0.2245390    -1.4310650
  H        4.7086350     0.8297180     0.2214350
  H        5.1861620    -0.8265290    -0.1846820
units angstrom
no_reorient  #important for SAPT in psi4, default
symmetry c1  #important for SAPT in psi4, default
}

set PROPERTIES_ORIGIN ["COM"]
properties('MP2/aug-cc-pvtz', properties = ['dipole'])
--------------------------------------------------------------------------

    Molecular point group: c1
  Charge       = 0
  Multiplicity = 1
  Basis Set: AUG-CC-PVTZ
    Blend: AUG-CC-PVTZ
  Basis Set: (AUG-CC-PVTZ AUX)
    Blend: AUG-CC-PVTZ-JKFIT

    Orbital Energies [Eh]
    ---------------------

    Doubly Occupied:

       1A    -91.971683     2A    -20.556915     3A    -20.554600
       4A    -11.366783     5A    -11.345898     6A    -11.266019
       7A    -11.262346     8A    -11.249567     9A    -11.231425
      10A    -11.222177    11A     -8.973304    12A     -6.654457
      13A     -6.653328    14A     -6.652715    15A     -1.400603
      16A     -1.387554    17A     -1.093011    18A     -1.076366
      19A     -1.041865    20A     -0.971255    21A     -0.895341
      22A     -0.837137    23A     -0.759170    24A     -0.727267
      25A     -0.679419    26A     -0.667607    27A     -0.647895
      28A     -0.637271    29A     -0.633975    30A     -0.610983
      31A     -0.594675    32A     -0.559523    33A     -0.545950
      34A     -0.533560    35A     -0.527289    36A     -0.521173
      37A     -0.512670    38A     -0.504266    39A     -0.491315
      40A     -0.465073    41A     -0.429199    42A     -0.405329
      43A     -0.370800

  @DF-RHF Final Energy:  -819.49534646731217

   => Energetics <=

    Nuclear Repulsion Energy =            603.4653063856583231
    One-Electron Energy =               -2322.9437865302866157
    Two-Electron Energy =                 899.9831336773161183
    Total Energy =                       -819.4953464673121744
  Basis Set: (AUG-CC-PVTZ AUX)
    Blend: AUG-CC-PVTZ-RI
    Molecular point group: c1

    Geometry (in Angstrom), charge = 0, multiplicity = 1:

       Center              X                  Y                   Z               Mass
    ------------   -----------------  -----------------  -----------------  -----------------
         S            1.814803710935     0.724308309066    -0.342097986281    31.972071174400
         O           -1.842639289065    -0.933130690934    -0.801066986281    15.994914619570
         O            0.494742710935    -1.060135690934     1.113690013719    15.994914619570
         C           -0.826757289065     0.835180309066     0.474662013719    12.000000000000
         C           -3.382670289065     0.597208309066     0.236449013719    12.000000000000
         C           -2.015211889065     0.031321609066    -0.083566186281    12.000000000000
         C            0.433177710935    -0.002242690934     0.507436013719    12.000000000000
         C           -4.511100289065    -0.277743690934    -0.285418986281    12.000000000000
         C            3.058203710935    -0.554914690934    -0.009191986281    12.000000000000
         C            4.443859710935    -0.045209690934    -0.374990986281    12.000000000000
         H           -0.693631289065     1.747620309066    -0.121166986281     1.007825032230
         H           -1.046844289065     1.152307309066     1.500719013719     1.007825032230
         H           -3.452232289065     0.725221309066     1.324506013719     1.007825032230
         H           -3.461604189065     1.614374209066    -0.176822486281     1.007825032230
         H           -5.481306289065     0.167456309066    -0.051052986281     1.007825032230
         H           -4.432114289065    -0.401867690934    -1.367069986281     1.007825032230
         H           -4.465586289065    -1.271610690934     0.165927013719     1.007825032230
         H            2.997032710935    -0.807000690934     1.049047013719     1.007825032230
         H            2.803083710935    -1.451329690934    -0.576934986281     1.007825032230
         H            4.501885710935     0.226216309066    -1.432038986281     1.007825032230
         H            4.709208710935     0.831395309066     0.220461013719     1.007825032230
         H            5.186735710935    -0.824851690934    -0.185655986281     1.007825032230

  Basis Set: AUG-CC-PVTZ
    Blend: AUG-CC-PVTZ
  Basis Set: (AUG-CC-PVTZ AUX)
    Blend: AUG-CC-PVTZ-JKFIT
	 Reference Energy          =    -819.4953464673121744 [Eh]
	 Singles Energy            =      -0.0000000000000000 [Eh]
	 Same-Spin Energy          =      -0.4839331852890163 [Eh]
	 Opposite-Spin Energy      =      -1.5704789409725144 [Eh]
	 Correlation Energy        =      -2.0544121262615307 [Eh]
	 Total Energy              =    -821.5497585935737561 [Eh]

	 ================> DF-SCS-MP2 Energies <==================
	-----------------------------------------------------------
	 SCS Same-Spin Scale       =       0.3333333333333333 [-]
	 SCS Opposite-Spin Scale   =       1.2000000000000000 [-]
	 SCS Same-Spin Energy      =      -0.1613110617630054 [Eh]
	 SCS Opposite-Spin Energy  =      -1.8845747291670172 [Eh]
	 SCS Correlation Energy    =      -2.0458857909300225 [Eh]
	 SCS Total Energy          =    -821.5412322582421893 [Eh]
	-----------------------------------------------------------

  Dipole Moment: [D]
     X:    -0.0517      Y:     2.7984      Z:     0.6632     Total:     2.8763

*** Psi4 exiting successfully. Buy a developer a beer!
