                               Psi4 1.4a3.dev225

  ==> Input File <==

--------------------------------------------------------------------------
#psi4
#
memory 32 gb

molecule  {
0 1
  S        1.5586770    -0.2994370    -0.7152220
  O       -1.5255240    -0.4876820     1.0921970
  O        0.7924220     1.7006740     0.8461850
  C       -0.8878030     0.9736540    -0.7120840
  C       -3.2304390    -0.0998550    -0.5631210
  C       -1.8542380     0.0638590     0.0480780
  C        0.4791140     0.9485020    -0.0654040
  C       -4.1634610    -0.9398430     0.2972900
  C        2.9114506    -0.0850714     0.4009123
  C        4.0540790    -1.0751370     0.1033520
  H       -0.8484610     0.6756560    -1.7668750
  H       -1.2645150     2.0025910    -0.6674260
  H       -3.6447290     0.9013370    -0.7419330
  H       -3.1015980    -0.5455960    -1.5588690
  H       -5.1413450    -1.0357370    -0.1813640
  H       -3.7504260    -1.9381500     0.4523140
  H       -4.2995020    -0.4825820     1.2793320
  H        3.3022180     0.9509290     0.3487650
  H        2.5726230    -0.2199470     1.4475820
  H        3.7004310    -2.1050230     0.1947960
  H        4.4320470    -0.9299840    -0.9117720
  H        4.8873260    -0.9394890     0.7982930
units angstrom
no_reorient  #important for SAPT in psi4, default
symmetry c1  #important for SAPT in psi4, default
}

set PROPERTIES_ORIGIN ["COM"]
properties('MP2/aug-cc-pvtz', properties = ['dipole'])
--------------------------------------------------------------------------

    Molecular point group: c1
  Charge       = 0
  Multiplicity = 1
  Basis Set: AUG-CC-PVTZ
    Blend: AUG-CC-PVTZ
  Basis Set: (AUG-CC-PVTZ AUX)
    Blend: AUG-CC-PVTZ-JKFIT

    Orbital Energies [Eh]
    ---------------------

    Doubly Occupied:

       1A    -91.969860     2A    -20.559738     3A    -20.556152
       4A    -11.366132     5A    -11.350394     6A    -11.267159
       7A    -11.260448     8A    -11.252798     9A    -11.230390
      10A    -11.224853    11A     -8.972272    12A     -6.653524
      13A     -6.652390    14A     -6.651680    15A     -1.397518
      16A     -1.386359    17A     -1.096691    18A     -1.078562
      19A     -1.043427    20A     -0.969624    21A     -0.898652
      22A     -0.833646    23A     -0.760886    24A     -0.727564
      25A     -0.679110    26A     -0.672288    27A     -0.650372
      28A     -0.637867    29A     -0.627180    30A     -0.610906
      31A     -0.591768    32A     -0.558581    33A     -0.546561
      34A     -0.531209    35A     -0.522653    36A     -0.521924
      37A     -0.510236    38A     -0.501314    39A     -0.494096
      40A     -0.472937    41A     -0.433009    42A     -0.407541
      43A     -0.367365

  @DF-RHF Final Energy:  -819.49300591476140

   => Energetics <=

    Nuclear Repulsion Energy =            611.1036569454990968
    One-Electron Energy =               -2338.1980550475632299
    Two-Electron Energy =                 907.6013921873027357
    Total Energy =                       -819.4930059147613974
  Basis Set: (AUG-CC-PVTZ AUX)
    Blend: AUG-CC-PVTZ-RI
    Molecular point group: c1

    Geometry (in Angstrom), charge = 0, multiplicity = 1:

       Center              X                  Y                   Z               Mass
    ------------   -----------------  -----------------  -----------------  -----------------
         S            1.542232528700    -0.321721128730    -0.721020102601    31.972071174400
         O           -1.541968471300    -0.509966128730     1.086398897399    15.994914619570
         O            0.775977528700     1.678389871270     0.840386897399    15.994914619570
         C           -0.904247471300     0.951369871270    -0.717882102601    12.000000000000
         C           -3.246883471300    -0.122139128730    -0.568919102601    12.000000000000
         C           -1.870682471300     0.041574871270     0.042279897399    12.000000000000
         C            0.462669528700     0.926217871270    -0.071202102601    12.000000000000
         C           -4.179905471300    -0.962127128730     0.291491897399    12.000000000000
         C            2.895006128700    -0.107355528730     0.395114197399    12.000000000000
         C            4.037634528700    -1.097421128730     0.097553897399    12.000000000000
         H           -0.864905471300     0.653371871270    -1.772673102601     1.007825032230
         H           -1.280959471300     1.980306871270    -0.673224102601     1.007825032230
         H           -3.661173471300     0.879052871270    -0.747731102601     1.007825032230
         H           -3.118042471300    -0.567880128730    -1.564667102601     1.007825032230
         H           -5.157789471300    -1.058021128730    -0.187162102601     1.007825032230
         H           -3.766870471300    -1.960434128730     0.446515897399     1.007825032230
         H           -4.315946471300    -0.504866128730     1.273533897399     1.007825032230
         H            3.285773528700     0.928644871270     0.342966897399     1.007825032230
         H            2.556178528700    -0.242231128730     1.441783897399     1.007825032230
         H            3.683986528700    -2.127307128730     0.188997897399     1.007825032230
         H            4.415602528700    -0.952268128730    -0.917570102601     1.007825032230
         H            4.870881528700    -0.961773128730     0.792494897399     1.007825032230

  Basis Set: AUG-CC-PVTZ
    Blend: AUG-CC-PVTZ
  Basis Set: (AUG-CC-PVTZ AUX)
    Blend: AUG-CC-PVTZ-JKFIT
	 Reference Energy          =    -819.4930059147613974 [Eh]
	 Singles Energy            =      -0.0000000000000000 [Eh]
	 Same-Spin Energy          =      -0.4849055022707379 [Eh]
	 Opposite-Spin Energy      =      -1.5717910514035918 [Eh]
	 Correlation Energy        =      -2.0566965536743296 [Eh]
	 Total Energy              =    -821.5497024684357257 [Eh]

	 ================> DF-SCS-MP2 Energies <==================
	-----------------------------------------------------------
	 SCS Same-Spin Scale       =       0.3333333333333333 [-]
	 SCS Opposite-Spin Scale   =       1.2000000000000000 [-]
	 SCS Same-Spin Energy      =      -0.1616351674235793 [Eh]
	 SCS Opposite-Spin Energy  =      -1.8861492616843101 [Eh]
	 SCS Correlation Energy    =      -2.0477844291078893 [Eh]
	 SCS Total Energy          =    -821.5407903438692756 [Eh]
	-----------------------------------------------------------

  Dipole Moment: [D]
     X:    -0.8349      Y:    -0.2013      Z:    -2.7217     Total:     2.8540

*** Psi4 exiting successfully. Buy a developer a beer!
