                               Psi4 1.3.2 release

  ==> Input File <==

--------------------------------------------------------------------------
#psi4
#
memory 32 gb

molecule  {
0 1
  S        1.8142300     0.7226310    -0.3411240
  O       -1.8432130    -0.9348080    -0.8000930
  O        0.4941690    -1.0618130     1.1146640
  C       -0.7943087     0.7985291     0.4526146
  C       -3.4046019     0.5559603     0.2096533
  C       -2.0096370     0.0521440    -0.0950140
  C        0.4326040    -0.0039200     0.5084100
  C       -4.5116740    -0.2794210    -0.2844450
  C        3.0576300    -0.5565920    -0.0082180
  C        4.4432860    -0.0468870    -0.3740170
  H       -0.6942050     1.7459430    -0.1201930
  H       -1.0474180     1.1506300     1.5016930
  H       -3.4528060     0.7235440     1.3254800
  H       -3.4442640     1.6111560    -0.1826160
  H       -5.4818800     0.1657790    -0.0500790
  H       -4.4326880    -0.4035450    -1.3660960
  H       -4.4661600    -1.2732880     0.1669010
  H        2.9964590    -0.8086780     1.0500210
  H        2.8025100    -1.4530070    -0.5759610
  H        4.5013120     0.2245390    -1.4310650
  H        4.7086350     0.8297180     0.2214350
  H        5.1861620    -0.8265290    -0.1846820
units angstrom
no_reorient  #important for SAPT in psi4, default
symmetry c1  #important for SAPT in psi4, default
}

set PROPERTIES_ORIGIN ["COM"]
properties('MP2/aug-cc-pvtz', properties = ['dipole'])
--------------------------------------------------------------------------

    Molecular point group: c1
  Charge       = 0
  Multiplicity = 1
  Basis Set: AUG-CC-PVTZ
    Blend: AUG-CC-PVTZ
  Basis Set: (AUG-CC-PVTZ AUX)
    Blend: AUG-CC-PVTZ-JKFIT

    Orbital Energies [Eh]
    ---------------------

    Doubly Occupied:

       1A    -91.972125     2A    -20.554814     3A    -20.552495
       4A    -11.366054     5A    -11.345801     6A    -11.270084
       7A    -11.262559     8A    -11.254542     9A    -11.231590
      10A    -11.221209    11A     -8.973771    12A     -6.654925
      13A     -6.653789    14A     -6.653177    15A     -1.398280
      16A     -1.383779    17A     -1.095889    18A     -1.078655
      19A     -1.051362    20A     -0.972214    21A     -0.898703
      22A     -0.837445    23A     -0.762886    24A     -0.724653
      25A     -0.680057    26A     -0.666868    27A     -0.651479
      28A     -0.636418    29A     -0.633041    30A     -0.606967
      31A     -0.591380    32A     -0.559936    33A     -0.555963
      34A     -0.535542    35A     -0.526977    36A     -0.520342
      37A     -0.510010    38A     -0.499497    39A     -0.480789
      40A     -0.465444    41A     -0.428690    42A     -0.410040
      43A     -0.371213

  @DF-RHF Final Energy:  -819.48744430195302

   => Energetics <=

    Nuclear Repulsion Energy =            604.4770426410126447
    One-Electron Energy =               -2324.9260665854176295
    Two-Electron Energy =                 900.9615796424518521
    Total Energy =                       -819.4874443019530190
  Basis Set: (AUG-CC-PVTZ AUX)
    Blend: AUG-CC-PVTZ-RI
    Molecular point group: c1

    Geometry (in Angstrom), charge = 0, multiplicity = 1:

       Center              X                  Y                   Z               Mass
    ------------   -----------------  -----------------  -----------------  -----------------
         S            1.813355403060     0.728220018323    -0.337316058653    31.972071174400
         O           -1.844087596940    -0.929218981677    -0.796285058653    15.994914619570
         O            0.493294403060    -1.056223981677     1.118471941347    15.994914619570
         C           -0.795183296940     0.804118118323     0.456422541347    12.000000000000
         C           -3.405476496940     0.561549318323     0.213461241347    12.000000000000
         C           -2.010511596940     0.057733018323    -0.091206058653    12.000000000000
         C            0.431729403060     0.001669018323     0.512217941347    12.000000000000
         C           -4.512548596940    -0.273831981677    -0.280637058653    12.000000000000
         C            3.056755403060    -0.551002981677    -0.004410058653    12.000000000000
         C            4.442411403060    -0.041297981677    -0.370209058653    12.000000000000
         H           -0.695079596940     1.751532018323    -0.116385058653     1.007825032230
         H           -1.048292596940     1.156219018323     1.505500941347     1.007825032230
         H           -3.453680596940     0.729133018323     1.329287941347     1.007825032230
         H           -3.445138596940     1.616745018323    -0.178808058653     1.007825032230
         H           -5.482754596940     0.171368018323    -0.046271058653     1.007825032230
         H           -4.433562596940    -0.397955981677    -1.362288058653     1.007825032230
         H           -4.467034596940    -1.267698981677     0.170708941347     1.007825032230
         H            2.995584403060    -0.803088981677     1.053828941347     1.007825032230
         H            2.801635403060    -1.447417981677    -0.572153058653     1.007825032230
         H            4.500437403060     0.230128018323    -1.427257058653     1.007825032230
         H            4.707760403060     0.835307018323     0.225242941347     1.007825032230
         H            5.185287403060    -0.820939981677    -0.180874058653     1.007825032230

  Basis Set: AUG-CC-PVTZ
    Blend: AUG-CC-PVTZ
  Basis Set: (AUG-CC-PVTZ AUX)
    Blend: AUG-CC-PVTZ-JKFIT
	 Reference Energy          =    -819.4874443019530190 [Eh]
	 Singles Energy            =      -0.0000000000000000 [Eh]
	 Same-Spin Energy          =      -0.4850429153062444 [Eh]
	 Opposite-Spin Energy      =      -1.5720175619174144 [Eh]
	 Correlation Energy        =      -2.0570604772236587 [Eh]
	 Total Energy              =    -821.5445047791766910 [Eh]

	 ================> DF-SCS-MP2 Energies <==================
	-----------------------------------------------------------
	 SCS Same-Spin Scale       =       0.3333333333333333 [-]
	 SCS Opposite-Spin Scale   =       1.2000000000000000 [-]
	 SCS Same-Spin Energy      =      -0.1616809717687481 [Eh]
	 SCS Opposite-Spin Energy  =      -1.8864210743008971 [Eh]
	 SCS Correlation Energy    =      -2.0481020460696451 [Eh]
	 SCS Total Energy          =    -821.5355463480226490 [Eh]
	-----------------------------------------------------------

  Dipole Moment: [D]
     X:    -0.0871      Y:     2.8530      Z:     0.6719     Total:     2.9323

*** Psi4 exiting successfully. Buy a developer a beer!
