                               Psi4 1.3.2 release

  ==> Input File <==

--------------------------------------------------------------------------
#psi4
#
memory 32 gb

molecule  {
0 1
  S        1.8142300     0.7226310    -0.3411240
  O       -1.8432130    -0.9348080    -0.8000930
  O        0.4941690    -1.0618130     1.1146640
  C       -0.8273310     0.8335030     0.4756360
  C       -3.3832440     0.5955310     0.2374230
  C       -2.0096370     0.0521440    -0.0950140
  C        0.4326040    -0.0039200     0.5084100
  C       -4.5069262    -0.2780969    -0.2967623
  C        3.0576300    -0.5565920    -0.0082180
  C        4.4432860    -0.0468870    -0.3740170
  H       -0.6942050     1.7459430    -0.1201930
  H       -1.0474180     1.1506300     1.5016930
  H       -3.4449463     0.7290180     1.3252963
  H       -3.4442640     1.6111560    -0.1826160
  H       -5.4818800     0.1657790    -0.0500790
  H       -4.4326880    -0.4035450    -1.3660960
  H       -4.4661600    -1.2732880     0.1669010
  H        2.9964590    -0.8086780     1.0500210
  H        2.8025100    -1.4530070    -0.5759610
  H        4.5013120     0.2245390    -1.4310650
  H        4.7086350     0.8297180     0.2214350
  H        5.1861620    -0.8265290    -0.1846820
units angstrom
no_reorient  #important for SAPT in psi4, default
symmetry c1  #important for SAPT in psi4, default
}

set PROPERTIES_ORIGIN ["COM"]
properties('MP2/aug-cc-pvtz', properties = ['dipole'])
--------------------------------------------------------------------------

    Molecular point group: c1
  Charge       = 0
  Multiplicity = 1
  Basis Set: AUG-CC-PVTZ
    Blend: AUG-CC-PVTZ
  Basis Set: (AUG-CC-PVTZ AUX)
    Blend: AUG-CC-PVTZ-JKFIT

    Orbital Energies [Eh]
    ---------------------

    Doubly Occupied:

       1A    -91.972091     2A    -20.555440     3A    -20.555064
       4A    -11.367421     5A    -11.345907     6A    -11.266777
       7A    -11.262597     8A    -11.249984     9A    -11.231620
      10A    -11.222490    11A     -8.973702    12A     -6.654855
      13A     -6.653727    14A     -6.653113    15A     -1.397337
      16A     -1.383917    17A     -1.093920    18A     -1.077218
      19A     -1.042679    20A     -0.972084    21A     -0.896297
      22A     -0.837712    23A     -0.760031    24A     -0.726906
      25A     -0.678047    26A     -0.668201    27A     -0.648073
      28A     -0.637815    29A     -0.633900    30A     -0.608570
      31A     -0.595032    32A     -0.559829    33A     -0.545572
      34A     -0.531762    35A     -0.527664    36A     -0.521712
      37A     -0.512700    38A     -0.504560    39A     -0.488653
      40A     -0.465291    41A     -0.429636    42A     -0.406285
      43A     -0.371113

  @DF-RHF Final Energy:  -819.49455210235760

   => Energetics <=

    Nuclear Repulsion Energy =            603.4931305055166604
    One-Electron Energy =               -2323.0007576934663120
    Two-Electron Energy =                 900.0130750855921633
    Total Energy =                       -819.4945521023576021
  Basis Set: (AUG-CC-PVTZ AUX)
    Blend: AUG-CC-PVTZ-RI
    Molecular point group: c1

    Geometry (in Angstrom), charge = 0, multiplicity = 1:

       Center              X                  Y                   Z               Mass
    ------------   -----------------  -----------------  -----------------  -----------------
         S            1.813824476953     0.722497381407    -0.340199430953    31.972071174400
         O           -1.843618523047    -0.934941618593    -0.799168430953    15.994914619570
         O            0.493763476953    -1.061946618593     1.115588569047    15.994914619570
         C           -0.827736523047     0.833369381407     0.476560569047    12.000000000000
         C           -3.383649523047     0.595397381407     0.238347569047    12.000000000000
         C           -2.010042523047     0.052010381407    -0.094089430953    12.000000000000
         C            0.432198476953    -0.004053618593     0.509334569047    12.000000000000
         C           -4.507331723047    -0.278230518593    -0.295837730953    12.000000000000
         C            3.057224476953    -0.556725618593    -0.007293430953    12.000000000000
         C            4.442880476953    -0.047020618593    -0.373092430953    12.000000000000
         H           -0.694610523047     1.745809381407    -0.119268430953     1.007825032230
         H           -1.047823523047     1.150496381407     1.502617569047     1.007825032230
         H           -3.445351823047     0.728884381407     1.326220869047     1.007825032230
         H           -3.444669523047     1.611022381407    -0.181691430953     1.007825032230
         H           -5.482285523047     0.165645381407    -0.049154430953     1.007825032230
         H           -4.433093523047    -0.403678618593    -1.365171430953     1.007825032230
         H           -4.466565523047    -1.273421618593     0.167825569047     1.007825032230
         H            2.996053476953    -0.808811618593     1.050945569047     1.007825032230
         H            2.802104476953    -1.453140618593    -0.575036430953     1.007825032230
         H            4.500906476953     0.224405381407    -1.430140430953     1.007825032230
         H            4.708229476953     0.829584381407     0.222359569047     1.007825032230
         H            5.185756476953    -0.826662618593    -0.183757430953     1.007825032230

  Basis Set: AUG-CC-PVTZ
    Blend: AUG-CC-PVTZ
  Basis Set: (AUG-CC-PVTZ AUX)
    Blend: AUG-CC-PVTZ-JKFIT
	 Reference Energy          =    -819.4945521023576021 [Eh]
	 Singles Energy            =      -0.0000000000000000 [Eh]
	 Same-Spin Energy          =      -0.4842287152009979 [Eh]
	 Opposite-Spin Energy      =      -1.5710660920594091 [Eh]
	 Correlation Energy        =      -2.0552948072604069 [Eh]
	 Total Energy              =    -821.5498469096180543 [Eh]

	 ================> DF-SCS-MP2 Energies <==================
	-----------------------------------------------------------
	 SCS Same-Spin Scale       =       0.3333333333333333 [-]
	 SCS Opposite-Spin Scale   =       1.2000000000000000 [-]
	 SCS Same-Spin Energy      =      -0.1614095717336659 [Eh]
	 SCS Opposite-Spin Energy  =      -1.8852793104712908 [Eh]
	 SCS Correlation Energy    =      -2.0466888822049567 [Eh]
	 SCS Total Energy          =    -821.5412409845625916 [Eh]
	-----------------------------------------------------------

  Dipole Moment: [D]
     X:     0.0000      Y:     2.8366      Z:     0.6785     Total:     2.9167

*** Psi4 exiting successfully. Buy a developer a beer!
