                               Psi4 1.3.2 release

  ==> Input File <==

--------------------------------------------------------------------------
#psi4
#
memory 32 gb

molecule  {
0 1
  S        1.8028872     0.7128434    -0.3359918
  O       -1.8432130    -0.9348080    -0.8000930
  O        0.4941690    -1.0618130     1.1146640
  C       -0.8273310     0.8335030     0.4756360
  C       -3.3832440     0.5955310     0.2374230
  C       -2.0096370     0.0521440    -0.0950140
  C        0.4326040    -0.0039200     0.5084100
  C       -4.5116740    -0.2794210    -0.2844450
  C        3.0576300    -0.5565920    -0.0082180
  C        4.4484908    -0.0584993    -0.3702411
  H       -0.6942050     1.7459430    -0.1201930
  H       -1.0474180     1.1506300     1.5016930
  H       -3.4528060     0.7235440     1.3254800
  H       -3.4442640     1.6111560    -0.1826160
  H       -5.4818800     0.1657790    -0.0500790
  H       -4.4326880    -0.4035450    -1.3660960
  H       -4.4661600    -1.2732880     0.1669010
  H        2.9964590    -0.8086780     1.0500210
  H        2.8025100    -1.4530070    -0.5759610
  H        4.5013120     0.2245390    -1.4310650
  H        4.7086350     0.8297180     0.2214350
  H        5.1861620    -0.8265290    -0.1846820
units angstrom
no_reorient  #important for SAPT in psi4, default
symmetry c1  #important for SAPT in psi4, default
}

set PROPERTIES_ORIGIN ["COM"]
properties('MP2/aug-cc-pvtz', properties = ['dipole'])
--------------------------------------------------------------------------

    Molecular point group: c1
  Charge       = 0
  Multiplicity = 1
  Basis Set: AUG-CC-PVTZ
    Blend: AUG-CC-PVTZ
  Basis Set: (AUG-CC-PVTZ AUX)
    Blend: AUG-CC-PVTZ-JKFIT

    Orbital Energies [Eh]
    ---------------------

    Doubly Occupied:

       1A    -91.972256     2A    -20.555361     3A    -20.553445
       4A    -11.366041     5A    -11.345888     6A    -11.266563
       7A    -11.262867     8A    -11.249738     9A    -11.232131
      10A    -11.222179    11A     -8.974174    12A     -6.655350
      13A     -6.654219    14A     -6.653602    15A     -1.396856
      16A     -1.383569    17A     -1.095000    18A     -1.077127
      19A     -1.042838    20A     -0.974492    21A     -0.896135
      22A     -0.838807    23A     -0.759445    24A     -0.726454
      25A     -0.678078    26A     -0.668430    27A     -0.648002
      28A     -0.637521    29A     -0.633611    30A     -0.608450
      31A     -0.595947    32A     -0.561471    33A     -0.546279
      34A     -0.532832    35A     -0.527312    36A     -0.520508
      37A     -0.511385    38A     -0.503653    39A     -0.488474
      40A     -0.465821    41A     -0.429453    42A     -0.407030
      43A     -0.371492

  @DF-RHF Final Energy:  -819.49480453559397

   => Energetics <=

    Nuclear Repulsion Energy =            603.9403168765961709
    One-Electron Energy =               -2323.8896739909578173
    Two-Electron Energy =                 900.4545525787676752
    Total Energy =                       -819.4948045355939712
  Basis Set: (AUG-CC-PVTZ AUX)
    Blend: AUG-CC-PVTZ-RI
    Molecular point group: c1

    Geometry (in Angstrom), charge = 0, multiplicity = 1:

       Center              X                  Y                   Z               Mass
    ------------   -----------------  -----------------  -----------------  -----------------
         S            1.804762694007     0.715669271008    -0.337300143471    31.972071174400
         O           -1.841337505993    -0.931982128992    -0.801401343471    15.994914619570
         O            0.496044494007    -1.058987128992     1.113355656529    15.994914619570
         C           -0.825455505993     0.836328871008     0.474327656529    12.000000000000
         C           -3.381368505993     0.598356871008     0.236114656529    12.000000000000
         C           -2.007761505993     0.054969871008    -0.096322343471    12.000000000000
         C            0.434479494007    -0.001094128992     0.507101656529    12.000000000000
         C           -4.509798505993    -0.276595128992    -0.285753343471    12.000000000000
         C            3.059505494007    -0.553766128992    -0.009526343471    12.000000000000
         C            4.450366294007    -0.055673428992    -0.371549443471    12.000000000000
         H           -0.692329505993     1.748768871008    -0.121501343471     1.007825032230
         H           -1.045542505993     1.153455871008     1.500384656529     1.007825032230
         H           -3.450930505993     0.726369871008     1.324171656529     1.007825032230
         H           -3.442388505993     1.613981871008    -0.183924343471     1.007825032230
         H           -5.480004505993     0.168604871008    -0.051387343471     1.007825032230
         H           -4.430812505993    -0.400719128992    -1.367404343471     1.007825032230
         H           -4.464284505993    -1.270462128992     0.165592656529     1.007825032230
         H            2.998334494007    -0.805852128992     1.048712656529     1.007825032230
         H            2.804385494007    -1.450181128992    -0.577269343471     1.007825032230
         H            4.503187494007     0.227364871008    -1.432373343471     1.007825032230
         H            4.710510494007     0.832543871008     0.220126656529     1.007825032230
         H            5.188037494007    -0.823703128992    -0.185990343471     1.007825032230

  Basis Set: AUG-CC-PVTZ
    Blend: AUG-CC-PVTZ
  Basis Set: (AUG-CC-PVTZ AUX)
    Blend: AUG-CC-PVTZ-JKFIT
	 Reference Energy          =    -819.4948045355939712 [Eh]
	 Singles Energy            =      -0.0000000000000000 [Eh]
	 Same-Spin Energy          =      -0.4842292572425136 [Eh]
	 Opposite-Spin Energy      =      -1.5708684603917986 [Eh]
	 Correlation Energy        =      -2.0550977176343124 [Eh]
	 Total Energy              =    -821.5499022532283107 [Eh]

	 ================> DF-SCS-MP2 Energies <==================
	-----------------------------------------------------------
	 SCS Same-Spin Scale       =       0.3333333333333333 [-]
	 SCS Opposite-Spin Scale   =       1.2000000000000000 [-]
	 SCS Same-Spin Energy      =      -0.1614097524141712 [Eh]
	 SCS Opposite-Spin Energy  =      -1.8850421524701582 [Eh]
	 SCS Correlation Energy    =      -2.0464519048843295 [Eh]
	 SCS Total Energy          =    -821.5412564404782643 [Eh]
	-----------------------------------------------------------

  Dipole Moment: [D]
     X:     0.0566      Y:     2.8514      Z:     0.6591     Total:     2.9272

*** Psi4 exiting successfully. Buy a developer a beer!
