                               Psi4 1.3.2 release

  ==> Input File <==

--------------------------------------------------------------------------
#psi4
#
memory 32 gb

molecule  {
0 1
  N        0.0402460     1.4416600     0.0000620
  C        0.0095704     0.3553353    -0.0002429
  C       -1.3400130    -0.5204670     0.0000250
  C        1.2044310    -0.7598510     0.0000030
  H       -2.1277100     0.2335740    -0.0000130
  H       -1.4495710    -1.1615970    -0.8813460
  H       -1.4493400    -1.1611390     0.8817800
  H        2.1385520    -0.1918070    -0.0030740
  H        1.1876380    -1.4127410    -0.8791240
  H        1.1905740    -1.4078120     0.8828600
  H        1.0180780     1.7593200     0.0001080
units angstrom
no_reorient  #important for SAPT in psi4, default
symmetry c1  #important for SAPT in psi4, default
}

set PROPERTIES_ORIGIN ["COM"]
properties('MP2/aug-cc-pvtz', properties = ['dipole'])
--------------------------------------------------------------------------

    Molecular point group: c1
  Charge       = 0
  Multiplicity = 1
  Basis Set: AUG-CC-PVTZ
    Blend: AUG-CC-PVTZ
  Basis Set: (AUG-CC-PVTZ AUX)
    Blend: AUG-CC-PVTZ-JKFIT

    Orbital Energies [Eh]
    ---------------------

    Doubly Occupied:

       1A    -15.529147     2A    -11.269424     3A    -11.231266
       4A    -11.215921     5A     -1.304452     6A     -0.985429
       7A     -0.933870     8A     -0.752568     9A     -0.646395
      10A     -0.599002    11A     -0.597946    12A     -0.562422
      13A     -0.539370    14A     -0.508924    15A     -0.488980
      16A     -0.367837

  @DF-RHF Final Energy:  -172.11131938413209

   => Energetics <=

    Nuclear Repulsion Energy =            121.2080793077116994
    One-Electron Energy =                -471.5728933306456838
    Two-Electron Energy =                 178.2534946388018682
    Total Energy =                       -172.1113193841320879
  Basis Set: (AUG-CC-PVTZ AUX)
    Blend: AUG-CC-PVTZ-RI
    Molecular point group: c1

    Geometry (in Angstrom), charge = 0, multiplicity = 1:

       Center              X                  Y                   Z               Mass
    ------------   -----------------  -----------------  -----------------  -----------------
         N            0.047893915998     1.341419200390     0.000070943376    14.003074004430
         C            0.017218315998     0.255094500390    -0.000233956624    12.000000000000
         C           -1.332365084002    -0.620707799610     0.000033943376    12.000000000000
         C            1.212078915998    -0.860091799610     0.000011943376    12.000000000000
         H           -2.120062084002     0.133333200390    -0.000004056624     1.007825032230
         H           -1.441923084002    -1.261837799610    -0.881337056624     1.007825032230
         H           -1.441692084002    -1.261379799610     0.881788943376     1.007825032230
         H            2.146199915998    -0.292047799610    -0.003065056624     1.007825032230
         H            1.195285915998    -1.512981799610    -0.879115056624     1.007825032230
         H            1.198221915998    -1.508052799610     0.882868943376     1.007825032230
         H            1.025725915998     1.659079200390     0.000116943376     1.007825032230

  Basis Set: AUG-CC-PVTZ
    Blend: AUG-CC-PVTZ
  Basis Set: (AUG-CC-PVTZ AUX)
    Blend: AUG-CC-PVTZ-JKFIT
	 Reference Energy          =    -172.1113193841320879 [Eh]
	 Singles Energy            =      -0.0000000000000000 [Eh]
	 Same-Spin Energy          =      -0.1753474865070718 [Eh]
	 Opposite-Spin Energy      =      -0.6212177484307604 [Eh]
	 Correlation Energy        =      -0.7965652349378323 [Eh]
	 Total Energy              =    -172.9078846190699323 [Eh]

	 ================> DF-SCS-MP2 Energies <==================
	-----------------------------------------------------------
	 SCS Same-Spin Scale       =       0.3333333333333333 [-]
	 SCS Opposite-Spin Scale   =       1.2000000000000000 [-]
	 SCS Same-Spin Energy      =      -0.0584491621690239 [Eh]
	 SCS Opposite-Spin Energy  =      -0.7454612981169124 [Eh]
	 SCS Correlation Energy    =      -0.8039104602859364 [Eh]
	 SCS Total Energy          =    -172.9152298444180360 [Eh]
	-----------------------------------------------------------

  Dipole Moment: [D]
     X:     1.2776      Y:    -1.3229      Z:     0.0002     Total:     1.8391

*** Psi4 exiting successfully. Buy a developer a beer!
