                               Psi4 1.3.2 release

  ==> Input File <==

--------------------------------------------------------------------------
#psi4
#
memory 32 gb

molecule  {
0 1
  N        0.0402460     1.4416600     0.0000620
  C        0.0039250     0.1554150    -0.0002990
  C       -1.3838864    -0.4250722    -0.0000102
  C        1.2044310    -0.7598510     0.0000030
  H       -2.1277100     0.2335740    -0.0000130
  H       -1.4495710    -1.1615970    -0.8813460
  H       -1.4493400    -1.1611390     0.8817800
  H        2.1385520    -0.1918070    -0.0030740
  H        1.1876380    -1.4127410    -0.8791240
  H        1.1905740    -1.4078120     0.8828600
  H        1.0180780     1.7593200     0.0001080
units angstrom
no_reorient  #important for SAPT in psi4, default
symmetry c1  #important for SAPT in psi4, default
}

set PROPERTIES_ORIGIN ["COM"]
properties('MP2/aug-cc-pvtz', properties = ['dipole'])
--------------------------------------------------------------------------

    Molecular point group: c1
  Charge       = 0
  Multiplicity = 1
  Basis Set: AUG-CC-PVTZ
    Blend: AUG-CC-PVTZ
  Basis Set: (AUG-CC-PVTZ AUX)
    Blend: AUG-CC-PVTZ-JKFIT

    Orbital Energies [Eh]
    ---------------------

    Doubly Occupied:

       1A    -15.539666     2A    -11.288469     3A    -11.240682
       4A    -11.226676     5A     -1.205219     6A     -1.007732
       7A     -0.961609     8A     -0.742649     9A     -0.655847
      10A     -0.607730    11A     -0.601520    12A     -0.553149
      13A     -0.532189    14A     -0.524097    15A     -0.414721
      16A     -0.406239

  @DF-RHF Final Energy:  -172.16863390912135

   => Energetics <=

    Nuclear Repulsion Energy =            120.0385405525005496
    One-Electron Energy =                -469.3979618783215528
    Two-Electron Energy =                 177.1907874166996635
    Total Energy =                       -172.1686339091213540
  Basis Set: (AUG-CC-PVTZ AUX)
    Blend: AUG-CC-PVTZ-RI
    Molecular point group: c1

    Geometry (in Angstrom), charge = 0, multiplicity = 1:

       Center              X                  Y                   Z               Mass
    ------------   -----------------  -----------------  -----------------  -----------------
         N            0.058308356921     1.363402258232     0.000090144941    14.003074004430
         C            0.021987356921     0.077157258232    -0.000270855059    12.000000000000
         C           -1.365824043079    -0.503329941768     0.000017944941    12.000000000000
         C            1.222493356921    -0.838108741768     0.000031144941    12.000000000000
         H           -2.109647643079     0.155316258232     0.000015144941     1.007825032230
         H           -1.431508643079    -1.239854741768    -0.881317855059     1.007825032230
         H           -1.431277643079    -1.239396741768     0.881808144941     1.007825032230
         H            2.156614356921    -0.270064741768    -0.003045855059     1.007825032230
         H            1.205700356921    -1.490998741768    -0.879095855059     1.007825032230
         H            1.208636356921    -1.486069741768     0.882888144941     1.007825032230
         H            1.036140356921     1.681062258232     0.000136144941     1.007825032230

  Basis Set: AUG-CC-PVTZ
    Blend: AUG-CC-PVTZ
  Basis Set: (AUG-CC-PVTZ AUX)
    Blend: AUG-CC-PVTZ-JKFIT
	 Reference Energy          =    -172.1686339091213540 [Eh]
	 Singles Energy            =      -0.0000000000000000 [Eh]
	 Same-Spin Energy          =      -0.1776830605745124 [Eh]
	 Opposite-Spin Energy      =      -0.6275216093944227 [Eh]
	 Correlation Energy        =      -0.8052046699689350 [Eh]
	 Total Energy              =    -172.9738385790902839 [Eh]

	 ================> DF-SCS-MP2 Energies <==================
	-----------------------------------------------------------
	 SCS Same-Spin Scale       =       0.3333333333333333 [-]
	 SCS Opposite-Spin Scale   =       1.2000000000000000 [-]
	 SCS Same-Spin Energy      =      -0.0592276868581708 [Eh]
	 SCS Opposite-Spin Energy  =      -0.7530259312733072 [Eh]
	 SCS Correlation Energy    =      -0.8122536181314780 [Eh]
	 SCS Total Energy          =    -172.9808875272528326 [Eh]
	-----------------------------------------------------------

  Dipole Moment: [D]
     X:     1.2365      Y:    -2.1670      Z:     0.0004     Total:     2.4950

*** Psi4 exiting successfully. Buy a developer a beer!
