                               Psi4 1.3.2 release

  ==> Input File <==

--------------------------------------------------------------------------
#psi4
#
memory 32 gb

molecule  {
0 1
  N        0.0402460     1.4416600     0.0000620
  C        0.0039250     0.1554150    -0.0002990
  C       -1.1613361    -0.4306083    -0.0000181
  C        1.2044310    -0.7598510     0.0000030
  H       -2.1277100     0.2335740    -0.0000130
  H       -1.4495710    -1.1615970    -0.8813460
  H       -1.4493400    -1.1611390     0.8817800
  H        2.1385520    -0.1918070    -0.0030740
  H        1.1876380    -1.4127410    -0.8791240
  H        1.1905740    -1.4078120     0.8828600
  H        1.0180780     1.7593200     0.0001080
units angstrom
no_reorient  #important for SAPT in psi4, default
symmetry c1  #important for SAPT in psi4, default
}

set PROPERTIES_ORIGIN ["COM"]
properties('MP2/aug-cc-pvtz', properties = ['dipole'])
--------------------------------------------------------------------------

    Molecular point group: c1
  Charge       = 0
  Multiplicity = 1
  Basis Set: AUG-CC-PVTZ
    Blend: AUG-CC-PVTZ
  Basis Set: (AUG-CC-PVTZ AUX)
    Blend: AUG-CC-PVTZ-JKFIT

    Orbital Energies [Eh]
    ---------------------

    Doubly Occupied:

       1A    -15.541967     2A    -11.275112     3A    -11.236457
       4A    -11.234935     5A     -1.221373     6A     -1.031783
       7A     -0.961771     8A     -0.748507     9A     -0.658578
      10A     -0.616108    11A     -0.609964    12A     -0.554851
      13A     -0.530805    14A     -0.484906    15A     -0.422174
      16A     -0.398118

  @DF-RHF Final Energy:  -172.12946683907379

   => Energetics <=

    Nuclear Repulsion Energy =            122.8228791891970957
    One-Electron Energy =                -474.8498740794199762
    Two-Electron Energy =                 179.8975280511491235
    Total Energy =                       -172.1294668390737854
  Basis Set: (AUG-CC-PVTZ AUX)
    Blend: AUG-CC-PVTZ-RI
    Molecular point group: c1

    Geometry (in Angstrom), charge = 0, multiplicity = 1:

       Center              X                  Y                   Z               Mass
    ------------   -----------------  -----------------  -----------------  -----------------
         N            0.011503164716     1.364566571309     0.000091806413    14.003074004430
         C           -0.024817835284     0.078321571309    -0.000269193587    12.000000000000
         C           -1.190078935284    -0.507701728691     0.000011706413    12.000000000000
         C            1.175688164716    -0.836944428691     0.000032806413    12.000000000000
         H           -2.156452835284     0.156480571309     0.000016806413     1.007825032230
         H           -1.478313835284    -1.238690428691    -0.881316193587     1.007825032230
         H           -1.478082835284    -1.238232428691     0.881809806413     1.007825032230
         H            2.109809164716    -0.268900428691    -0.003044193587     1.007825032230
         H            1.158895164716    -1.489834428691    -0.879094193587     1.007825032230
         H            1.161831164716    -1.484905428691     0.882889806413     1.007825032230
         H            0.989335164716     1.682226571309     0.000137806413     1.007825032230

  Basis Set: AUG-CC-PVTZ
    Blend: AUG-CC-PVTZ
  Basis Set: (AUG-CC-PVTZ AUX)
    Blend: AUG-CC-PVTZ-JKFIT
	 Reference Energy          =    -172.1294668390737854 [Eh]
	 Singles Energy            =      -0.0000000000000000 [Eh]
	 Same-Spin Energy          =      -0.1809378289741169 [Eh]
	 Opposite-Spin Energy      =      -0.6317844078445137 [Eh]
	 Correlation Energy        =      -0.8127222368186307 [Eh]
	 Total Energy              =    -172.9421890758924292 [Eh]

	 ================> DF-SCS-MP2 Energies <==================
	-----------------------------------------------------------
	 SCS Same-Spin Scale       =       0.3333333333333333 [-]
	 SCS Opposite-Spin Scale   =       1.2000000000000000 [-]
	 SCS Same-Spin Energy      =      -0.0603126096580390 [Eh]
	 SCS Opposite-Spin Energy  =      -0.7581412894134164 [Eh]
	 SCS Correlation Energy    =      -0.8184538990714554 [Eh]
	 SCS Total Energy          =    -172.9479207381452284 [Eh]
	-----------------------------------------------------------

  Dipole Moment: [D]
     X:     1.0283      Y:    -2.2537      Z:     0.0005     Total:     2.4772

*** Psi4 exiting successfully. Buy a developer a beer!
