                               Psi4 1.3.2 release

  ==> Input File <==

--------------------------------------------------------------------------
#psi4
#
memory 32 gb

molecule  {
0 1
  N        0.0402460     1.4416600     0.0000620
  C       -0.1303252     0.1662578    -0.0002900
  C       -1.3400130    -0.5204670     0.0000250
  C        1.2044310    -0.7598510     0.0000030
  H       -2.1277100     0.2335740    -0.0000130
  H       -1.4495710    -1.1615970    -0.8813460
  H       -1.4493400    -1.1611390     0.8817800
  H        2.1385520    -0.1918070    -0.0030740
  H        1.1876380    -1.4127410    -0.8791240
  H        1.1905740    -1.4078120     0.8828600
  H        1.0180780     1.7593200     0.0001080
units angstrom
no_reorient  #important for SAPT in psi4, default
symmetry c1  #important for SAPT in psi4, default
}

set PROPERTIES_ORIGIN ["COM"]
properties('MP2/aug-cc-pvtz', properties = ['dipole'])
--------------------------------------------------------------------------

    Molecular point group: c1
  Charge       = 0
  Multiplicity = 1
  Basis Set: AUG-CC-PVTZ
    Blend: AUG-CC-PVTZ
  Basis Set: (AUG-CC-PVTZ AUX)
    Blend: AUG-CC-PVTZ-JKFIT

    Orbital Energies [Eh]
    ---------------------

    Doubly Occupied:

       1A    -15.540153     2A    -11.290310     3A    -11.234700
       4A    -11.224786     5A     -1.202109     6A     -1.025443
       7A     -0.949480     8A     -0.747402     9A     -0.650116
      10A     -0.610946    11A     -0.596084    12A     -0.563704
      13A     -0.550856    14A     -0.516228    15A     -0.408930
      16A     -0.393341

  @DF-RHF Final Energy:  -172.16327170697883

   => Energetics <=

    Nuclear Repulsion Energy =            120.1411000346439977
    One-Electron Energy =                -469.5995696631474630
    Two-Electron Energy =                 177.2951979215246183
    Total Energy =                       -172.1632717069788328
  Basis Set: (AUG-CC-PVTZ AUX)
    Blend: AUG-CC-PVTZ-RI
    Molecular point group: c1

    Geometry (in Angstrom), charge = 0, multiplicity = 1:

       Center              X                  Y                   Z               Mass
    ------------   -----------------  -----------------  -----------------  -----------------
         N            0.077315761066     1.381184631976     0.000080849112    14.003074004430
         C           -0.093255438934     0.105782431976    -0.000271150888    12.000000000000
         C           -1.302943238934    -0.580942368024     0.000043849112    12.000000000000
         C            1.241500761066    -0.820326368024     0.000021849112    12.000000000000
         H           -2.090640238934     0.173098631976     0.000005849112     1.007825032230
         H           -1.412501238934    -1.222072368024    -0.881327150888     1.007825032230
         H           -1.412270238934    -1.221614368024     0.881798849112     1.007825032230
         H            2.175621761066    -0.252282368024    -0.003055150888     1.007825032230
         H            1.224707761066    -1.473216368024    -0.879105150888     1.007825032230
         H            1.227643761066    -1.468287368024     0.882878849112     1.007825032230
         H            1.055147761066     1.698844631976     0.000126849112     1.007825032230

  Basis Set: AUG-CC-PVTZ
    Blend: AUG-CC-PVTZ
  Basis Set: (AUG-CC-PVTZ AUX)
    Blend: AUG-CC-PVTZ-JKFIT
	 Reference Energy          =    -172.1632717069788328 [Eh]
	 Singles Energy            =      -0.0000000000000000 [Eh]
	 Same-Spin Energy          =      -0.1782019524977617 [Eh]
	 Opposite-Spin Energy      =      -0.6280346377814774 [Eh]
	 Correlation Energy        =      -0.8062365902792390 [Eh]
	 Total Energy              =    -172.9695082972580735 [Eh]

	 ================> DF-SCS-MP2 Energies <==================
	-----------------------------------------------------------
	 SCS Same-Spin Scale       =       0.3333333333333333 [-]
	 SCS Opposite-Spin Scale   =       1.2000000000000000 [-]
	 SCS Same-Spin Energy      =      -0.0594006508325872 [Eh]
	 SCS Opposite-Spin Energy  =      -0.7536415653377728 [Eh]
	 SCS Correlation Energy    =      -0.8130422161703601 [Eh]
	 SCS Total Energy          =    -172.9763139231492062 [Eh]
	-----------------------------------------------------------

  Dipole Moment: [D]
     X:     0.7967      Y:    -2.1394      Z:     0.0003     Total:     2.2829

*** Psi4 exiting successfully. Buy a developer a beer!
