                               Psi4 1.4a3.dev225

  ==> Input File <==

--------------------------------------------------------------------------
#psi4
#
memory 32 gb

molecule  {
0 1
  N       -0.0401140     1.4416700     0.0000000
  C       -0.0039120     0.1553900     0.0000000
  C        1.3400200    -0.5205790     0.0000000
  C       -1.2045230    -0.7597350     0.0000000
  H        2.1276800     0.2334830     0.0000000
  H        1.4494410    -1.1614480     0.8815750
  H        1.4494420    -1.1614490    -0.8815740
  H       -2.1385970    -0.1915910    -0.0000020
  H       -1.1893680    -1.4102220     0.8809740
  H       -1.1893660    -1.4102240    -0.8809720
  H       -0.9989214     1.7531290     0.0000000
units angstrom
no_reorient  #important for SAPT in psi4, default
symmetry c1  #important for SAPT in psi4, default
}

set PROPERTIES_ORIGIN ["COM"]
properties('MP2/aug-cc-pvtz', properties = ['dipole'])
--------------------------------------------------------------------------

    Molecular point group: c1
  Charge       = 0
  Multiplicity = 1
  Basis Set: AUG-CC-PVTZ
    Blend: AUG-CC-PVTZ
  Basis Set: (AUG-CC-PVTZ AUX)
    Blend: AUG-CC-PVTZ-JKFIT

    Orbital Energies [Eh]
    ---------------------

    Doubly Occupied:

       1A    -15.539632     2A    -11.288489     3A    -11.237664
       4A    -11.223910     5A     -1.206358     6A     -1.012479
       7A     -0.957230     8A     -0.744384     9A     -0.649936
      10A     -0.607807    11A     -0.603516    12A     -0.550995
      13A     -0.542045    14A     -0.517777    15A     -0.415548
      16A     -0.411056

  @DF-RHF Final Energy:  -172.18244588383948

   => Energetics <=

    Nuclear Repulsion Energy =            120.1331877065829019
    One-Electron Energy =                -469.6136128431111274
    Two-Electron Energy =                 177.2979792526887195
    Total Energy =                       -172.1824458838394776
  Basis Set: (AUG-CC-PVTZ AUX)
    Blend: AUG-CC-PVTZ-RI
    Molecular point group: c1

    Geometry (in Angstrom), charge = 0, multiplicity = 1:

       Center              X                  Y                   Z               Mass
    ------------   -----------------  -----------------  -----------------  -----------------
         N           -0.049293796665     1.383585073612    -0.000000017663    14.003074004430
         C           -0.013091796665     0.097305073612    -0.000000017663    12.000000000000
         C            1.330840203335    -0.578663926388    -0.000000017663    12.000000000000
         C           -1.213702796665    -0.817819926388    -0.000000017663    12.000000000000
         H            2.118500203335     0.175398073612    -0.000000017663     1.007825032230
         H            1.440261203335    -1.219532926388     0.881574982337     1.007825032230
         H            1.440262203335    -1.219533926388    -0.881574017663     1.007825032230
         H           -2.147776796665    -0.249675926388    -0.000002017663     1.007825032230
         H           -1.198547796665    -1.468306926388     0.880973982337     1.007825032230
         H           -1.198545796665    -1.468308926388    -0.880972017663     1.007825032230
         H           -1.008101196665     1.695044073612    -0.000000017663     1.007825032230

  Basis Set: AUG-CC-PVTZ
    Blend: AUG-CC-PVTZ
  Basis Set: (AUG-CC-PVTZ AUX)
    Blend: AUG-CC-PVTZ-JKFIT
	 Reference Energy          =    -172.1824458838394776 [Eh]
	 Singles Energy            =      -0.0000000000000000 [Eh]
	 Same-Spin Energy          =      -0.1774340030508716 [Eh]
	 Opposite-Spin Energy      =      -0.6267294867390558 [Eh]
	 Correlation Energy        =      -0.8041634897899275 [Eh]
	 Total Energy              =    -172.9866093736293919 [Eh]

	 ================> DF-SCS-MP2 Energies <==================
	-----------------------------------------------------------
	 SCS Same-Spin Scale       =       0.3333333333333333 [-]
	 SCS Opposite-Spin Scale   =       1.2000000000000000 [-]
	 SCS Same-Spin Energy      =      -0.0591446676836239 [Eh]
	 SCS Opposite-Spin Energy  =      -0.7520753840868669 [Eh]
	 SCS Correlation Energy    =      -0.8112200517704908 [Eh]
	 SCS Total Energy          =    -172.9936659356099824 [Eh]
	-----------------------------------------------------------

  Dipole Moment: [D]
     X:    -1.2218      Y:    -2.1564      Z:    -0.0000     Total:     2.4785

*** Psi4 exiting successfully. Buy a developer a beer!
