                               Psi4 1.4a3.dev225

  ==> Input File <==

--------------------------------------------------------------------------
#psi4
#
memory 32 gb

molecule  {
0 1
  N       -0.0401140     1.4416700     0.0000000
  C       -0.0039120     0.1553900     0.0000000
  C        1.2953520    -0.4981119     0.0000000
  C       -1.2045230    -0.7597350     0.0000000
  H        2.1276800     0.2334830     0.0000000
  H        1.4494410    -1.1614480     0.8815750
  H        1.4494420    -1.1614490    -0.8815740
  H       -2.1385970    -0.1915910    -0.0000020
  H       -1.1893680    -1.4102220     0.8809740
  H       -1.1893660    -1.4102240    -0.8809720
  H       -1.0179430     1.7593080     0.0000000
units angstrom
no_reorient  #important for SAPT in psi4, default
symmetry c1  #important for SAPT in psi4, default
}

set PROPERTIES_ORIGIN ["COM"]
properties('MP2/aug-cc-pvtz', properties = ['dipole'])
--------------------------------------------------------------------------

    Molecular point group: c1
  Charge       = 0
  Multiplicity = 1
  Basis Set: AUG-CC-PVTZ
    Blend: AUG-CC-PVTZ
  Basis Set: (AUG-CC-PVTZ AUX)
    Blend: AUG-CC-PVTZ-JKFIT

    Orbital Energies [Eh]
    ---------------------

    Doubly Occupied:

       1A    -15.542000     2A    -11.285830     3A    -11.237282
       4A    -11.226062     5A     -1.207563     6A     -1.015147
       7A     -0.957893     8A     -0.743471     9A     -0.650228
      10A     -0.607556    11A     -0.606018    12A     -0.545292
      13A     -0.540932    14A     -0.516369    15A     -0.417287
      16A     -0.408905

  @DF-RHF Final Energy:  -172.17879353631199

   => Energetics <=

    Nuclear Repulsion Energy =            120.6814618713972891
    One-Electron Energy =                -470.7048429205945581
    Two-Electron Energy =                 177.8445875128852833
    Total Energy =                       -172.1787935363119857
  Basis Set: (AUG-CC-PVTZ AUX)
    Blend: AUG-CC-PVTZ-RI
    Molecular point group: c1

    Geometry (in Angstrom), charge = 0, multiplicity = 1:

       Center              X                  Y                   Z               Mass
    ------------   -----------------  -----------------  -----------------  -----------------
         N           -0.039563558807     1.378750812338    -0.000000017663    14.003074004430
         C           -0.003361558807     0.092470812338    -0.000000017663    12.000000000000
         C            1.295902441193    -0.561031087662    -0.000000017663    12.000000000000
         C           -1.203972558807    -0.822654187662    -0.000000017663    12.000000000000
         H            2.128230441193     0.170563812338    -0.000000017663     1.007825032230
         H            1.449991441193    -1.224367187662     0.881574982337     1.007825032230
         H            1.449992441193    -1.224368187662    -0.881574017663     1.007825032230
         H           -2.138046558807    -0.254510187662    -0.000002017663     1.007825032230
         H           -1.188817558807    -1.473141187662     0.880973982337     1.007825032230
         H           -1.188815558807    -1.473143187662    -0.880972017663     1.007825032230
         H           -1.017392558807     1.696388812338    -0.000000017663     1.007825032230

  Basis Set: AUG-CC-PVTZ
    Blend: AUG-CC-PVTZ
  Basis Set: (AUG-CC-PVTZ AUX)
    Blend: AUG-CC-PVTZ-JKFIT
	 Reference Energy          =    -172.1787935363119857 [Eh]
	 Singles Energy            =      -0.0000000000000000 [Eh]
	 Same-Spin Energy          =      -0.1780460918172141 [Eh]
	 Opposite-Spin Energy      =      -0.6276712181261269 [Eh]
	 Correlation Energy        =      -0.8057173099433410 [Eh]
	 Total Energy              =    -172.9845108462553185 [Eh]

	 ================> DF-SCS-MP2 Energies <==================
	-----------------------------------------------------------
	 SCS Same-Spin Scale       =       0.3333333333333333 [-]
	 SCS Opposite-Spin Scale   =       1.2000000000000000 [-]
	 SCS Same-Spin Energy      =      -0.0593486972724047 [Eh]
	 SCS Opposite-Spin Energy  =      -0.7532054617513523 [Eh]
	 SCS Correlation Energy    =      -0.8125541590237569 [Eh]
	 SCS Total Energy          =    -172.9913476953357474 [Eh]
	-----------------------------------------------------------

  Dipole Moment: [D]
     X:    -1.1701      Y:    -2.1790      Z:     0.0000     Total:     2.4733

*** Psi4 exiting successfully. Buy a developer a beer!
