                               Psi4 1.3.2 release

  ==> Input File <==

--------------------------------------------------------------------------
#psi4
#
memory 32 gb

molecule  {
0 1
  N        0.0402460     1.4416600     0.0000620
  C       -0.0857104     0.1610819    -0.0002934
  C       -1.3400130    -0.5204670     0.0000250
  C        1.2044310    -0.7598510     0.0000030
  H       -2.1277100     0.2335740    -0.0000130
  H       -1.4495710    -1.1615970    -0.8813460
  H       -1.4493400    -1.1611390     0.8817800
  H        2.1385520    -0.1918070    -0.0030740
  H        1.1876380    -1.4127410    -0.8791240
  H        1.1905740    -1.4078120     0.8828600
  H        1.0180780     1.7593200     0.0001080
units angstrom
no_reorient  #important for SAPT in psi4, default
symmetry c1  #important for SAPT in psi4, default
}

set PROPERTIES_ORIGIN ["COM"]
properties('MP2/aug-cc-pvtz', properties = ['dipole'])
--------------------------------------------------------------------------

    Molecular point group: c1
  Charge       = 0
  Multiplicity = 1
  Basis Set: AUG-CC-PVTZ
    Blend: AUG-CC-PVTZ
  Basis Set: (AUG-CC-PVTZ AUX)
    Blend: AUG-CC-PVTZ-JKFIT

    Orbital Energies [Eh]
    ---------------------

    Doubly Occupied:

       1A    -15.540465     2A    -11.289282     3A    -11.236002
       4A    -11.224569     5A     -1.202414     6A     -1.017612
       7A     -0.954206     8A     -0.745198     9A     -0.648551
      10A     -0.608783    11A     -0.595988    12A     -0.557372
      13A     -0.551684    14A     -0.519130    15A     -0.409516
      16A     -0.401709

  @DF-RHF Final Energy:  -172.17391938929842

   => Energetics <=

    Nuclear Repulsion Energy =            120.0945146578399232
    One-Electron Energy =                -469.5319079304476304
    Two-Electron Energy =                 177.2634738833093024
    Total Energy =                       -172.1739193892984190
  Basis Set: (AUG-CC-PVTZ AUX)
    Blend: AUG-CC-PVTZ-RI
    Molecular point group: c1

    Geometry (in Angstrom), charge = 0, multiplicity = 1:

       Center              X                  Y                   Z               Mass
    ------------   -----------------  -----------------  -----------------  -----------------
         N            0.067932694455     1.382273190357     0.000081564176    14.003074004430
         C           -0.058023705545     0.101695090357    -0.000273835824    12.000000000000
         C           -1.312326305545    -0.579853809643     0.000044564176    12.000000000000
         C            1.232117694455    -0.819237809643     0.000022564176    12.000000000000
         H           -2.100023305545     0.174187190357     0.000006564176     1.007825032230
         H           -1.421884305545    -1.220983809643    -0.881326435824     1.007825032230
         H           -1.421653305545    -1.220525809643     0.881799564176     1.007825032230
         H            2.166238694455    -0.251193809643    -0.003054435824     1.007825032230
         H            1.215324694455    -1.472127809643    -0.879104435824     1.007825032230
         H            1.218260694455    -1.467198809643     0.882879564176     1.007825032230
         H            1.045764694455     1.699933190357     0.000127564176     1.007825032230

  Basis Set: AUG-CC-PVTZ
    Blend: AUG-CC-PVTZ
  Basis Set: (AUG-CC-PVTZ AUX)
    Blend: AUG-CC-PVTZ-JKFIT
	 Reference Energy          =    -172.1739193892984190 [Eh]
	 Singles Energy            =      -0.0000000000000000 [Eh]
	 Same-Spin Energy          =      -0.1778004578710805 [Eh]
	 Opposite-Spin Energy      =      -0.6273905349695483 [Eh]
	 Correlation Energy        =      -0.8051909928406289 [Eh]
	 Total Energy              =    -172.9791103821390550 [Eh]

	 ================> DF-SCS-MP2 Energies <==================
	-----------------------------------------------------------
	 SCS Same-Spin Scale       =       0.3333333333333333 [-]
	 SCS Opposite-Spin Scale   =       1.2000000000000000 [-]
	 SCS Same-Spin Energy      =      -0.0592668192903602 [Eh]
	 SCS Opposite-Spin Energy  =      -0.7528686419634579 [Eh]
	 SCS Correlation Energy    =      -0.8121354612538181 [Eh]
	 SCS Total Energy          =    -172.9860548505522502 [Eh]
	-----------------------------------------------------------

  Dipole Moment: [D]
     X:     0.9430      Y:    -2.1513      Z:     0.0004     Total:     2.3489

*** Psi4 exiting successfully. Buy a developer a beer!
