                               Psi4 1.3.2 release

  ==> Input File <==

--------------------------------------------------------------------------
#psi4
#
memory 32 gb

molecule  {
0 1
  N        0.1298814     1.4359931     0.0001013
  C        0.0039250     0.1554150    -0.0002990
  C       -1.3400130    -0.5204670     0.0000250
  C        1.2044310    -0.7598510     0.0000030
  H       -2.1277100     0.2335740    -0.0000130
  H       -1.4495710    -1.1615970    -0.8813460
  H       -1.4493400    -1.1611390     0.8817800
  H        2.1385520    -0.1918070    -0.0030740
  H        1.1876380    -1.4127410    -0.8791240
  H        1.1905740    -1.4078120     0.8828600
  H        1.0180780     1.7593200     0.0001080
units angstrom
no_reorient  #important for SAPT in psi4, default
symmetry c1  #important for SAPT in psi4, default
}

set PROPERTIES_ORIGIN ["COM"]
properties('MP2/aug-cc-pvtz', properties = ['dipole'])
--------------------------------------------------------------------------

    Molecular point group: c1
  Charge       = 0
  Multiplicity = 1
  Basis Set: AUG-CC-PVTZ
    Blend: AUG-CC-PVTZ
  Basis Set: (AUG-CC-PVTZ AUX)
    Blend: AUG-CC-PVTZ-JKFIT

    Orbital Energies [Eh]
    ---------------------

    Doubly Occupied:

       1A    -15.529592     2A    -11.289986     3A    -11.233400
       4A    -11.227806     5A     -1.208500     6A     -1.015853
       7A     -0.956557     8A     -0.762960     9A     -0.652940
      10A     -0.607210    11A     -0.603107    12A     -0.551098
      13A     -0.550879    14A     -0.518915    15A     -0.410155
      16A     -0.405879

  @DF-RHF Final Energy:  -172.17807173711122

   => Energetics <=

    Nuclear Repulsion Energy =            120.3330640264115630
    One-Electron Energy =                -469.9725956193270235
    Two-Electron Energy =                 177.4614598558042076
    Total Energy =                       -172.1780717371112246
  Basis Set: (AUG-CC-PVTZ AUX)
    Blend: AUG-CC-PVTZ-RI
    Molecular point group: c1

    Geometry (in Angstrom), charge = 0, multiplicity = 1:

       Center              X                  Y                   Z               Mass
    ------------   -----------------  -----------------  -----------------  -----------------
         N            0.116718395929     1.379188876663     0.000112396966    14.003074004430
         C           -0.009238004071     0.098610776663    -0.000287903034    12.000000000000
         C           -1.353176004071    -0.577271223337     0.000036096966    12.000000000000
         C            1.191267995929    -0.816655223337     0.000014096966    12.000000000000
         H           -2.140873004071     0.176769776663    -0.000001903034     1.007825032230
         H           -1.462734004071    -1.218401223337    -0.881334903034     1.007825032230
         H           -1.462503004071    -1.217943223337     0.881791096966     1.007825032230
         H            2.125388995929    -0.248611223337    -0.003062903034     1.007825032230
         H            1.174474995929    -1.469545223337    -0.879112903034     1.007825032230
         H            1.177410995929    -1.464616223337     0.882871096966     1.007825032230
         H            1.004914995929     1.702515776663     0.000119096966     1.007825032230

  Basis Set: AUG-CC-PVTZ
    Blend: AUG-CC-PVTZ
  Basis Set: (AUG-CC-PVTZ AUX)
    Blend: AUG-CC-PVTZ-JKFIT
	 Reference Energy          =    -172.1780717371112246 [Eh]
	 Singles Energy            =      -0.0000000000000000 [Eh]
	 Same-Spin Energy          =      -0.1768951424290643 [Eh]
	 Opposite-Spin Energy      =      -0.6252975365148753 [Eh]
	 Correlation Energy        =      -0.8021926789439395 [Eh]
	 Total Energy              =    -172.9802644160551779 [Eh]

	 ================> DF-SCS-MP2 Energies <==================
	-----------------------------------------------------------
	 SCS Same-Spin Scale       =       0.3333333333333333 [-]
	 SCS Opposite-Spin Scale   =       1.2000000000000000 [-]
	 SCS Same-Spin Energy      =      -0.0589650474763548 [Eh]
	 SCS Opposite-Spin Energy  =      -0.7503570438178503 [Eh]
	 SCS Correlation Energy    =      -0.8093220912942051 [Eh]
	 SCS Total Energy          =    -172.9873938284054304 [Eh]
	-----------------------------------------------------------

  Dipole Moment: [D]
     X:     1.0625      Y:    -2.1395      Z:     0.0003     Total:     2.3888

*** Psi4 exiting successfully. Buy a developer a beer!
