                               Psi4 1.3.2 release

  ==> Input File <==

--------------------------------------------------------------------------
#psi4
#
memory 32 gb

molecule  {
0 1
  N        0.0402460     1.4416600     0.0000620
  C       -0.0089308     0.1789597     0.0448394
  C       -1.3400130    -0.5204670     0.0000250
  C        1.2044310    -0.7598510     0.0000030
  H       -2.1277100     0.2335740    -0.0000130
  H       -1.4495710    -1.1615970    -0.8813460
  H       -1.4493400    -1.1611390     0.8817800
  H        2.1385520    -0.1918070    -0.0030740
  H        1.1876380    -1.4127410    -0.8791240
  H        1.1905740    -1.4078120     0.8828600
  H        1.0180780     1.7593200     0.0001080
units angstrom
no_reorient  #important for SAPT in psi4, default
symmetry c1  #important for SAPT in psi4, default
}

set PROPERTIES_ORIGIN ["COM"]
properties('MP2/aug-cc-pvtz', properties = ['dipole'])
--------------------------------------------------------------------------

    Molecular point group: c1
  Charge       = 0
  Multiplicity = 1
  Basis Set: AUG-CC-PVTZ
    Blend: AUG-CC-PVTZ
  Basis Set: (AUG-CC-PVTZ AUX)
    Blend: AUG-CC-PVTZ-JKFIT

    Orbital Energies [Eh]
    ---------------------

    Doubly Occupied:

       1A    -15.540930     2A    -11.286379     3A    -11.236821
       4A    -11.223536     5A     -1.212976     6A     -1.008820
       7A     -0.954365     8A     -0.742071     9A     -0.648269
      10A     -0.605728    11A     -0.601001    12A     -0.550344
      13A     -0.546383    14A     -0.515635    15A     -0.418864
      16A     -0.410210

  @DF-RHF Final Energy:  -172.18189358742708

   => Energetics <=

    Nuclear Repulsion Energy =            120.1044634235289124
    One-Electron Energy =                -469.5680478607752093
    Two-Electron Energy =                 177.2816908498192277
    Total Energy =                       -172.1818935874270835
  Basis Set: (AUG-CC-PVTZ AUX)
    Blend: AUG-CC-PVTZ-RI
    Molecular point group: c1

    Geometry (in Angstrom), charge = 0, multiplicity = 1:

       Center              X                  Y                   Z               Mass
    ------------   -----------------  -----------------  -----------------  -----------------
         N            0.051784956459     1.378513258938    -0.009410444501    14.003074004430
         C            0.002608156459     0.115812958938     0.035366955499    12.000000000000
         C           -1.328474043541    -0.583613741062    -0.009447444501    12.000000000000
         C            1.215969956459    -0.822997741062    -0.009469444501    12.000000000000
         H           -2.116171043541     0.170427258938    -0.009485444501     1.007825032230
         H           -1.438032043541    -1.224743741062    -0.890818444501     1.007825032230
         H           -1.437801043541    -1.224285741062     0.872307555499     1.007825032230
         H            2.150090956459    -0.254953741062    -0.012546444501     1.007825032230
         H            1.199176956459    -1.475887741062    -0.888596444501     1.007825032230
         H            1.202112956459    -1.470958741062     0.873387555499     1.007825032230
         H            1.029616956459     1.696173258938    -0.009364444501     1.007825032230

  Basis Set: AUG-CC-PVTZ
    Blend: AUG-CC-PVTZ
  Basis Set: (AUG-CC-PVTZ AUX)
    Blend: AUG-CC-PVTZ-JKFIT
	 Reference Energy          =    -172.1818935874270835 [Eh]
	 Singles Energy            =      -0.0000000000000000 [Eh]
	 Same-Spin Energy          =      -0.1771058264118676 [Eh]
	 Opposite-Spin Energy      =      -0.6261914716952931 [Eh]
	 Correlation Energy        =      -0.8032972981071607 [Eh]
	 Total Energy              =    -172.9851908855342515 [Eh]

	 ================> DF-SCS-MP2 Energies <==================
	-----------------------------------------------------------
	 SCS Same-Spin Scale       =       0.3333333333333333 [-]
	 SCS Opposite-Spin Scale   =       1.2000000000000000 [-]
	 SCS Same-Spin Energy      =      -0.0590352754706225 [Eh]
	 SCS Opposite-Spin Energy  =      -0.7514297660343517 [Eh]
	 SCS Correlation Energy    =      -0.8104650415049743 [Eh]
	 SCS Total Energy          =    -172.9923586289320667 [Eh]
	-----------------------------------------------------------

  Dipole Moment: [D]
     X:     1.1803      Y:    -2.0801      Z:    -0.0128     Total:     2.3916

*** Psi4 exiting successfully. Buy a developer a beer!
