                               Psi4 1.3.2 release

  ==> Input File <==

--------------------------------------------------------------------------
#psi4
#
memory 32 gb

molecule  {
0 1
  N        0.0402460     1.4416600     0.0000620
  C        0.0097398     0.1433320    -0.0228715
  C       -1.3400130    -0.5204670     0.0000250
  C        1.2044310    -0.7598510     0.0000030
  H       -2.1277100     0.2335740    -0.0000130
  H       -1.4495710    -1.1615970    -0.8813460
  H       -1.4493400    -1.1611390     0.8817800
  H        2.1385520    -0.1918070    -0.0030740
  H        1.1876380    -1.4127410    -0.8791240
  H        1.1905740    -1.4078120     0.8828600
  H        1.0180780     1.7593200     0.0001080
units angstrom
no_reorient  #important for SAPT in psi4, default
symmetry c1  #important for SAPT in psi4, default
}

set PROPERTIES_ORIGIN ["COM"]
properties('MP2/aug-cc-pvtz', properties = ['dipole'])
--------------------------------------------------------------------------

    Molecular point group: c1
  Charge       = 0
  Multiplicity = 1
  Basis Set: AUG-CC-PVTZ
    Blend: AUG-CC-PVTZ
  Basis Set: (AUG-CC-PVTZ AUX)
    Blend: AUG-CC-PVTZ-JKFIT

    Orbital Energies [Eh]
    ---------------------

    Doubly Occupied:

       1A    -15.542881     2A    -11.289655     3A    -11.237920
       4A    -11.224508     5A     -1.200231     6A     -1.012543
       7A     -0.958482     8A     -0.741043     9A     -0.648204
      10A     -0.608809    11A     -0.604547    12A     -0.551621
      13A     -0.539316    14A     -0.518490    15A     -0.416686
      16A     -0.406930

  @DF-RHF Final Energy:  -172.18049408220782

   => Energetics <=

    Nuclear Repulsion Energy =            119.9928365266617334
    One-Electron Energy =                -469.3429302453982359
    Two-Electron Energy =                 177.1695996365286874
    Total Energy =                       -172.1804940822078152
  Basis Set: (AUG-CC-PVTZ AUX)
    Blend: AUG-CC-PVTZ-RI
    Molecular point group: c1

    Geometry (in Angstrom), charge = 0, multiplicity = 1:

       Center              X                  Y                   Z               Mass
    ------------   -----------------  -----------------  -----------------  -----------------
         N            0.047858288997     1.386006222760     0.004830029175    14.003074004430
         C            0.017352088997     0.087678222760    -0.018103470825    12.000000000000
         C           -1.332400711003    -0.576120777240     0.004793029175    12.000000000000
         C            1.212043288997    -0.815504777240     0.004771029175    12.000000000000
         H           -2.120097711003     0.177920222760     0.004755029175     1.007825032230
         H           -1.441958711003    -1.217250777240    -0.876577970825     1.007825032230
         H           -1.441727711003    -1.216792777240     0.886548029175     1.007825032230
         H            2.146164288997    -0.247460777240     0.001694029175     1.007825032230
         H            1.195250288997    -1.468394777240    -0.874355970825     1.007825032230
         H            1.198186288997    -1.463465777240     0.887628029175     1.007825032230
         H            1.025690288997     1.703666222760     0.004876029175     1.007825032230

  Basis Set: AUG-CC-PVTZ
    Blend: AUG-CC-PVTZ
  Basis Set: (AUG-CC-PVTZ AUX)
    Blend: AUG-CC-PVTZ-JKFIT
	 Reference Energy          =    -172.1804940822078152 [Eh]
	 Singles Energy            =      -0.0000000000000000 [Eh]
	 Same-Spin Energy          =      -0.1778614696925859 [Eh]
	 Opposite-Spin Energy      =      -0.6277456843012690 [Eh]
	 Correlation Energy        =      -0.8056071539938549 [Eh]
	 Total Energy              =    -172.9861012362016766 [Eh]

	 ================> DF-SCS-MP2 Energies <==================
	-----------------------------------------------------------
	 SCS Same-Spin Scale       =       0.3333333333333333 [-]
	 SCS Opposite-Spin Scale   =       1.2000000000000000 [-]
	 SCS Same-Spin Energy      =      -0.0592871565641953 [Eh]
	 SCS Opposite-Spin Energy  =      -0.7532948211615228 [Eh]
	 SCS Correlation Energy    =      -0.8125819777257181 [Eh]
	 SCS Total Energy          =    -172.9930760599335429 [Eh]
	-----------------------------------------------------------

  Dipole Moment: [D]
     X:     1.2296      Y:    -2.1901      Z:     0.0088     Total:     2.5116

*** Psi4 exiting successfully. Buy a developer a beer!
