                               Psi4 1.3.2 release

  ==> Input File <==

--------------------------------------------------------------------------
#psi4
#
memory 32 gb

molecule  {
0 1
  N        0.0402460     1.4416600     0.0000620
  C        0.0039250     0.1554150    -0.0002990
  C       -1.3627823    -0.4731525     0.0000076
  C        1.2044310    -0.7598510     0.0000030
  H       -2.1277100     0.2335740    -0.0000130
  H       -1.4495710    -1.1615970    -0.8813460
  H       -1.4493400    -1.1611390     0.8817800
  H        2.1385520    -0.1918070    -0.0030740
  H        1.1876380    -1.4127410    -0.8791240
  H        1.1905740    -1.4078120     0.8828600
  H        1.0180780     1.7593200     0.0001080
units angstrom
no_reorient  #important for SAPT in psi4, default
symmetry c1  #important for SAPT in psi4, default
}

set PROPERTIES_ORIGIN ["COM"]
properties('MP2/aug-cc-pvtz', properties = ['dipole'])
--------------------------------------------------------------------------

    Molecular point group: c1
  Charge       = 0
  Multiplicity = 1
  Basis Set: AUG-CC-PVTZ
    Blend: AUG-CC-PVTZ
  Basis Set: (AUG-CC-PVTZ AUX)
    Blend: AUG-CC-PVTZ-JKFIT

    Orbital Energies [Eh]
    ---------------------

    Doubly Occupied:

       1A    -15.540806     2A    -11.288224     3A    -11.239034
       4A    -11.224941     5A     -1.204727     6A     -1.009345
       7A     -0.959099     8A     -0.741098     9A     -0.651909
      10A     -0.604864    11A     -0.603907    12A     -0.545711
      13A     -0.542026    14A     -0.524253    15A     -0.414794
      16A     -0.408761

  @DF-RHF Final Energy:  -172.17891791278151

   => Energetics <=

    Nuclear Repulsion Energy =            120.0313528136443892
    One-Electron Energy =                -469.4135423889763956
    Two-Electron Energy =                 177.2032716625504918
    Total Energy =                       -172.1789179127815146
  Basis Set: (AUG-CC-PVTZ AUX)
    Blend: AUG-CC-PVTZ-RI
    Molecular point group: c1

    Geometry (in Angstrom), charge = 0, multiplicity = 1:

       Center              X                  Y                   Z               Mass
    ------------   -----------------  -----------------  -----------------  -----------------
         N            0.053869893091     1.373514164093     0.000086401372    14.003074004430
         C            0.017548893091     0.087269164093    -0.000274598628    12.000000000000
         C           -1.349158406909    -0.541298335907     0.000032001372    12.000000000000
         C            1.218054893091    -0.827996835907     0.000027401372    12.000000000000
         H           -2.114086106909     0.165428164093     0.000011401372     1.007825032230
         H           -1.435947106909    -1.229742835907    -0.881321598628     1.007825032230
         H           -1.435716106909    -1.229284835907     0.881804401372     1.007825032230
         H            2.152175893091    -0.259952835907    -0.003049598628     1.007825032230
         H            1.201261893091    -1.480886835907    -0.879099598628     1.007825032230
         H            1.204197893091    -1.475957835907     0.882884401372     1.007825032230
         H            1.031701893091     1.691174164093     0.000132401372     1.007825032230

  Basis Set: AUG-CC-PVTZ
    Blend: AUG-CC-PVTZ
  Basis Set: (AUG-CC-PVTZ AUX)
    Blend: AUG-CC-PVTZ-JKFIT
	 Reference Energy          =    -172.1789179127815146 [Eh]
	 Singles Energy            =      -0.0000000000000000 [Eh]
	 Same-Spin Energy          =      -0.1775680415238369 [Eh]
	 Opposite-Spin Energy      =      -0.6271473484501948 [Eh]
	 Correlation Energy        =      -0.8047153899740317 [Eh]
	 Total Energy              =    -172.9836333027555497 [Eh]

	 ================> DF-SCS-MP2 Energies <==================
	-----------------------------------------------------------
	 SCS Same-Spin Scale       =       0.3333333333333333 [-]
	 SCS Opposite-Spin Scale   =       1.2000000000000000 [-]
	 SCS Same-Spin Energy      =      -0.0591893471746123 [Eh]
	 SCS Opposite-Spin Energy  =      -0.7525768181402338 [Eh]
	 SCS Correlation Energy    =      -0.8117661653148461 [Eh]
	 SCS Total Energy          =    -172.9906840780963648 [Eh]
	-----------------------------------------------------------

  Dipole Moment: [D]
     X:     1.2209      Y:    -2.1629      Z:     0.0004     Total:     2.4837

*** Psi4 exiting successfully. Buy a developer a beer!
