                               Psi4 1.3.2 release

  ==> Input File <==

--------------------------------------------------------------------------
#psi4
#
memory 32 gb

molecule  {
0 1
  N        0.0402460     1.4416600     0.0000620
  C        0.0039250     0.1554150    -0.0002990
  C       -1.3156064    -0.5669580     0.0000420
  C        1.2044310    -0.7598510     0.0000030
  H       -2.1277100     0.2335740    -0.0000130
  H       -1.4495710    -1.1615970    -0.8813460
  H       -1.4493400    -1.1611390     0.8817800
  H        2.1385520    -0.1918070    -0.0030740
  H        1.1876380    -1.4127410    -0.8791240
  H        1.1905740    -1.4078120     0.8828600
  H        1.0180780     1.7593200     0.0001080
units angstrom
no_reorient  #important for SAPT in psi4, default
symmetry c1  #important for SAPT in psi4, default
}

set PROPERTIES_ORIGIN ["COM"]
properties('MP2/aug-cc-pvtz', properties = ['dipole'])
--------------------------------------------------------------------------

    Molecular point group: c1
  Charge       = 0
  Multiplicity = 1
  Basis Set: AUG-CC-PVTZ
    Blend: AUG-CC-PVTZ
  Basis Set: (AUG-CC-PVTZ AUX)
    Blend: AUG-CC-PVTZ-JKFIT

    Orbital Energies [Eh]
    ---------------------

    Doubly Occupied:

       1A    -15.543516     2A    -11.289046     3A    -11.236300
       4A    -11.224228     5A     -1.204575     6A     -1.013673
       7A     -0.955757     8A     -0.742493     9A     -0.645521
      10A     -0.613582    11A     -0.603039    12A     -0.558563
      13A     -0.541202    14A     -0.505240    15A     -0.414653
      16A     -0.413024

  @DF-RHF Final Energy:  -172.17876338748826

   => Energetics <=

    Nuclear Repulsion Energy =            120.0607824416002813
    One-Electron Energy =                -469.4702686835701115
    Two-Electron Energy =                 177.2307228544815700
    Total Energy =                       -172.1787633874882602
  Basis Set: (AUG-CC-PVTZ AUX)
    Blend: AUG-CC-PVTZ-RI
    Molecular point group: c1

    Geometry (in Angstrom), charge = 0, multiplicity = 1:

       Center              X                  Y                   Z               Mass
    ------------   -----------------  -----------------  -----------------  -----------------
         N            0.043948194190     1.393242667974     0.000079166609    14.003074004430
         C            0.007627194190     0.106997667974    -0.000281833391    12.000000000000
         C           -1.311904205810    -0.615375332026     0.000059166609    12.000000000000
         C            1.208133194190    -0.808268332026     0.000020166609    12.000000000000
         H           -2.124007805810     0.185156667974     0.000004166609     1.007825032230
         H           -1.445868805810    -1.210014332026    -0.881328833391     1.007825032230
         H           -1.445637805810    -1.209556332026     0.881797166609     1.007825032230
         H            2.142254194190    -0.240224332026    -0.003056833391     1.007825032230
         H            1.191340194190    -1.461158332026    -0.879106833391     1.007825032230
         H            1.194276194190    -1.456229332026     0.882877166609     1.007825032230
         H            1.021780194190     1.710902667974     0.000125166609     1.007825032230

  Basis Set: AUG-CC-PVTZ
    Blend: AUG-CC-PVTZ
  Basis Set: (AUG-CC-PVTZ AUX)
    Blend: AUG-CC-PVTZ-JKFIT
	 Reference Energy          =    -172.1787633874882602 [Eh]
	 Singles Energy            =      -0.0000000000000000 [Eh]
	 Same-Spin Energy          =      -0.1776675667510076 [Eh]
	 Opposite-Spin Energy      =      -0.6273988972758252 [Eh]
	 Correlation Energy        =      -0.8050664640268328 [Eh]
	 Total Energy              =    -172.9838298515150825 [Eh]

	 ================> DF-SCS-MP2 Energies <==================
	-----------------------------------------------------------
	 SCS Same-Spin Scale       =       0.3333333333333333 [-]
	 SCS Opposite-Spin Scale   =       1.2000000000000000 [-]
	 SCS Same-Spin Energy      =      -0.0592225222503359 [Eh]
	 SCS Opposite-Spin Energy  =      -0.7528786767309902 [Eh]
	 SCS Correlation Energy    =      -0.8121011989813260 [Eh]
	 SCS Total Energy          =    -172.9908645864695984 [Eh]
	-----------------------------------------------------------

  Dipole Moment: [D]
     X:     1.2172      Y:    -2.1488      Z:     0.0004     Total:     2.4696

*** Psi4 exiting successfully. Buy a developer a beer!
