                               Psi4 1.3.2 release

  ==> Input File <==

--------------------------------------------------------------------------
#psi4
#
memory 32 gb

molecule  {
0 1
  N        0.0402460     1.4416600     0.0000620
  C        0.0039250     0.1554150    -0.0002990
  C       -1.4032997    -0.3762847    -0.0000283
  C        1.2044310    -0.7598510     0.0000030
  H       -2.1277100     0.2335740    -0.0000130
  H       -1.4495710    -1.1615970    -0.8813460
  H       -1.4493400    -1.1611390     0.8817800
  H        2.1385520    -0.1918070    -0.0030740
  H        1.1876380    -1.4127410    -0.8791240
  H        1.1905740    -1.4078120     0.8828600
  H        1.0180780     1.7593200     0.0001080
units angstrom
no_reorient  #important for SAPT in psi4, default
symmetry c1  #important for SAPT in psi4, default
}

set PROPERTIES_ORIGIN ["COM"]
properties('MP2/aug-cc-pvtz', properties = ['dipole'])
--------------------------------------------------------------------------

    Molecular point group: c1
  Charge       = 0
  Multiplicity = 1
  Basis Set: AUG-CC-PVTZ
    Blend: AUG-CC-PVTZ
  Basis Set: (AUG-CC-PVTZ AUX)
    Blend: AUG-CC-PVTZ-JKFIT

    Orbital Energies [Eh]
    ---------------------

    Doubly Occupied:

       1A    -15.538693     2A    -11.289188     3A    -11.242509
       4A    -11.229334     5A     -1.206016     6A     -1.006521
       7A     -0.964831     8A     -0.746569     9A     -0.659521
      10A     -0.611864    11A     -0.600271    12A     -0.560347
      13A     -0.522242    14A     -0.520742    15A     -0.414552
      16A     -0.403349

  @DF-RHF Final Energy:  -172.15024127775064

   => Energetics <=

    Nuclear Repulsion Energy =            120.0636625559057222
    One-Electron Energy =                -469.3947128595545450
    Two-Electron Energy =                 177.1808090258981565
    Total Energy =                       -172.1502412777506379
  Basis Set: (AUG-CC-PVTZ AUX)
    Blend: AUG-CC-PVTZ-RI
    Molecular point group: c1

    Geometry (in Angstrom), charge = 0, multiplicity = 1:

       Center              X                  Y                   Z               Mass
    ------------   -----------------  -----------------  -----------------  -----------------
         N            0.062391223750     1.353141619111     0.000093951604    14.003074004430
         C            0.026070223750     0.066896619111    -0.000267048396    12.000000000000
         C           -1.381154476250    -0.464803080889     0.000003651604    12.000000000000
         C            1.226576223750    -0.848369380889     0.000034951604    12.000000000000
         H           -2.105564776250     0.145055619111     0.000018951604     1.007825032230
         H           -1.427425776250    -1.250115380889    -0.881314048396     1.007825032230
         H           -1.427194776250    -1.249657380889     0.881811951604     1.007825032230
         H            2.160697223750    -0.280325380889    -0.003042048396     1.007825032230
         H            1.209783223750    -1.501259380889    -0.879092048396     1.007825032230
         H            1.212719223750    -1.496330380889     0.882891951604     1.007825032230
         H            1.040223223750     1.670801619111     0.000139951604     1.007825032230

  Basis Set: AUG-CC-PVTZ
    Blend: AUG-CC-PVTZ
  Basis Set: (AUG-CC-PVTZ AUX)
    Blend: AUG-CC-PVTZ-JKFIT
	 Reference Energy          =    -172.1502412777506379 [Eh]
	 Singles Energy            =      -0.0000000000000000 [Eh]
	 Same-Spin Energy          =      -0.1779126048617312 [Eh]
	 Opposite-Spin Energy      =      -0.6282552345565664 [Eh]
	 Correlation Energy        =      -0.8061678394182976 [Eh]
	 Total Energy              =    -172.9564091171689313 [Eh]

	 ================> DF-SCS-MP2 Energies <==================
	-----------------------------------------------------------
	 SCS Same-Spin Scale       =       0.3333333333333333 [-]
	 SCS Opposite-Spin Scale   =       1.2000000000000000 [-]
	 SCS Same-Spin Energy      =      -0.0593042016205770 [Eh]
	 SCS Opposite-Spin Energy  =      -0.7539062814678796 [Eh]
	 SCS Correlation Energy    =      -0.8132104830884567 [Eh]
	 SCS Total Energy          =    -172.9634517608390922 [Eh]
	-----------------------------------------------------------

  Dipole Moment: [D]
     X:     1.2621      Y:    -2.1680      Z:     0.0004     Total:     2.5086

*** Psi4 exiting successfully. Buy a developer a beer!
