                               Psi4 1.3.2 release

  ==> Input File <==

--------------------------------------------------------------------------
#psi4
#
memory 32 gb

molecule  {
0 1
  N        0.0402460     1.4416600     0.0000620
  C        0.0247107     0.1058849    -0.0905197
  C       -1.3400130    -0.5204670     0.0000250
  C        1.2044310    -0.7598510     0.0000030
  H       -2.1277100     0.2335740    -0.0000130
  H       -1.4495710    -1.1615970    -0.8813460
  H       -1.4493400    -1.1611390     0.8817800
  H        2.1385520    -0.1918070    -0.0030740
  H        1.1876380    -1.4127410    -0.8791240
  H        1.1905740    -1.4078120     0.8828600
  H        1.0180780     1.7593200     0.0001080
units angstrom
no_reorient  #important for SAPT in psi4, default
symmetry c1  #important for SAPT in psi4, default
}

set PROPERTIES_ORIGIN ["COM"]
properties('MP2/aug-cc-pvtz', properties = ['dipole'])
--------------------------------------------------------------------------

    Molecular point group: c1
  Charge       = 0
  Multiplicity = 1
  Basis Set: AUG-CC-PVTZ
    Blend: AUG-CC-PVTZ
  Basis Set: (AUG-CC-PVTZ AUX)
    Blend: AUG-CC-PVTZ-JKFIT

    Orbital Energies [Eh]
    ---------------------

    Doubly Occupied:

       1A    -15.545956     2A    -11.294038     3A    -11.238864
       4A    -11.225990     5A     -1.187538     6A     -1.015674
       7A     -0.961958     8A     -0.741168     9A     -0.647181
      10A     -0.611292    11A     -0.607995    12A     -0.553989
      13A     -0.534533    14A     -0.517044    15A     -0.421243
      16A     -0.394199

  @DF-RHF Final Energy:  -172.16982584266964

   => Energetics <=

    Nuclear Repulsion Energy =            119.7982552645842702
    One-Electron Energy =                -468.9388385996084025
    Two-Electron Energy =                 176.9707574923544939
    Total Energy =                       -172.1698258426696384
  Basis Set: (AUG-CC-PVTZ AUX)
    Blend: AUG-CC-PVTZ-RI
    Molecular point group: c1

    Geometry (in Angstrom), charge = 0, multiplicity = 1:

       Center              X                  Y                   Z               Mass
    ------------   -----------------  -----------------  -----------------  -----------------
         N            0.044709716059     1.393881829816     0.019057316235    14.003074004430
         C            0.029174416059     0.058106729816    -0.071524383765    12.000000000000
         C           -1.335549283941    -0.568245170184     0.019020316235    12.000000000000
         C            1.208894716059    -0.807629170184     0.018998316235    12.000000000000
         H           -2.123246283941     0.185795829816     0.018982316235     1.007825032230
         H           -1.445107283941    -1.209375170184    -0.862350683765     1.007825032230
         H           -1.444876283941    -1.208917170184     0.900775316235     1.007825032230
         H            2.143015716059    -0.239585170184     0.015921316235     1.007825032230
         H            1.192101716059    -1.460519170184    -0.860128683765     1.007825032230
         H            1.195037716059    -1.455590170184     0.901855316235     1.007825032230
         H            1.022541716059     1.711541829816     0.019103316235     1.007825032230

  Basis Set: AUG-CC-PVTZ
    Blend: AUG-CC-PVTZ
  Basis Set: (AUG-CC-PVTZ AUX)
    Blend: AUG-CC-PVTZ-JKFIT
	 Reference Energy          =    -172.1698258426696384 [Eh]
	 Singles Energy            =      -0.0000000000000000 [Eh]
	 Same-Spin Energy          =      -0.1790259536509291 [Eh]
	 Opposite-Spin Energy      =      -0.6303321647835897 [Eh]
	 Correlation Energy        =      -0.8093581184345188 [Eh]
	 Total Energy              =    -172.9791839611041553 [Eh]

	 ================> DF-SCS-MP2 Energies <==================
	-----------------------------------------------------------
	 SCS Same-Spin Scale       =       0.3333333333333333 [-]
	 SCS Opposite-Spin Scale   =       1.2000000000000000 [-]
	 SCS Same-Spin Energy      =      -0.0596753178836430 [Eh]
	 SCS Opposite-Spin Energy  =      -0.7563985977403076 [Eh]
	 SCS Correlation Energy    =      -0.8160739156239506 [Eh]
	 SCS Total Energy          =    -172.9858997582935842 [Eh]
	-----------------------------------------------------------

  Dipole Moment: [D]
     X:     1.2645      Y:    -2.2678      Z:     0.0412     Total:     2.5969

*** Psi4 exiting successfully. Buy a developer a beer!
