                               Psi4 1.3.2 release

  ==> Input File <==

--------------------------------------------------------------------------
#psi4
#
memory 32 gb

molecule  {
0 1
  N        0.0402460     1.4416600     0.0000620
  C        0.0326154     0.0799599    -0.1354920
  C       -1.3400130    -0.5204670     0.0000250
  C        1.2044310    -0.7598510     0.0000030
  H       -2.1277100     0.2335740    -0.0000130
  H       -1.4495710    -1.1615970    -0.8813460
  H       -1.4493400    -1.1611390     0.8817800
  H        2.1385520    -0.1918070    -0.0030740
  H        1.1876380    -1.4127410    -0.8791240
  H        1.1905740    -1.4078120     0.8828600
  H        1.0180780     1.7593200     0.0001080
units angstrom
no_reorient  #important for SAPT in psi4, default
symmetry c1  #important for SAPT in psi4, default
}

set PROPERTIES_ORIGIN ["COM"]
properties('MP2/aug-cc-pvtz', properties = ['dipole'])
--------------------------------------------------------------------------

    Molecular point group: c1
  Charge       = 0
  Multiplicity = 1
  Basis Set: AUG-CC-PVTZ
    Blend: AUG-CC-PVTZ
  Basis Set: (AUG-CC-PVTZ AUX)
    Blend: AUG-CC-PVTZ-JKFIT

    Orbital Energies [Eh]
    ---------------------

    Doubly Occupied:

       1A    -15.548532     2A    -11.297431     3A    -11.239427
       4A    -11.227187     5A     -1.179531     6A     -1.017140
       7A     -0.963973     8A     -0.741772     9A     -0.646129
      10A     -0.612478    11A     -0.610066    12A     -0.556192
      13A     -0.533946    14A     -0.512231    15A     -0.423347
      16A     -0.385553

  @DF-RHF Final Energy:  -172.15765898348860

   => Energetics <=

    Nuclear Repulsion Energy =            119.6265467845427111
    One-Electron Energy =                -468.5785382158548487
    Two-Electron Energy =                 176.7943324478235354
    Total Energy =                       -172.1576589834886022
  Basis Set: (AUG-CC-PVTZ AUX)
    Blend: AUG-CC-PVTZ-RI
    Molecular point group: c1

    Geometry (in Angstrom), charge = 0, multiplicity = 1:

       Center              X                  Y                   Z               Mass
    ------------   -----------------  -----------------  -----------------  -----------------
         N            0.043047255920     1.399334190958     0.028515569696    14.003074004430
         C            0.035416655920     0.037634090958    -0.107038430304    12.000000000000
         C           -1.337211744080    -0.562792809042     0.028478569696    12.000000000000
         C            1.207232255920    -0.802176809042     0.028456569696    12.000000000000
         H           -2.124908744080     0.191248190958     0.028440569696     1.007825032230
         H           -1.446769744080    -1.203922809042    -0.852892430304     1.007825032230
         H           -1.446538744080    -1.203464809042     0.910233569696     1.007825032230
         H            2.141353255920    -0.234132809042     0.025379569696     1.007825032230
         H            1.190439255920    -1.455066809042    -0.850670430304     1.007825032230
         H            1.193375255920    -1.450137809042     0.911313569696     1.007825032230
         H            1.020879255920     1.716994190958     0.028561569696     1.007825032230

  Basis Set: AUG-CC-PVTZ
    Blend: AUG-CC-PVTZ
  Basis Set: (AUG-CC-PVTZ AUX)
    Blend: AUG-CC-PVTZ-JKFIT
	 Reference Energy          =    -172.1576589834886022 [Eh]
	 Singles Energy            =      -0.0000000000000000 [Eh]
	 Same-Spin Energy          =      -0.1800222065490987 [Eh]
	 Opposite-Spin Energy      =      -0.6326207246495517 [Eh]
	 Correlation Energy        =      -0.8126429311986504 [Eh]
	 Total Energy              =    -172.9703019146872407 [Eh]

	 ================> DF-SCS-MP2 Energies <==================
	-----------------------------------------------------------
	 SCS Same-Spin Scale       =       0.3333333333333333 [-]
	 SCS Opposite-Spin Scale   =       1.2000000000000000 [-]
	 SCS Same-Spin Energy      =      -0.0600074021830329 [Eh]
	 SCS Opposite-Spin Energy  =      -0.7591448695794619 [Eh]
	 SCS Correlation Energy    =      -0.8191522717624948 [Eh]
	 SCS Total Energy          =    -172.9768112552511070 [Eh]
	-----------------------------------------------------------

  Dipole Moment: [D]
     X:     1.2810      Y:    -2.2991      Z:     0.0688     Total:     2.6328

*** Psi4 exiting successfully. Buy a developer a beer!
