                               Psi4 1.3.2 release

  ==> Input File <==

--------------------------------------------------------------------------
#psi4
#
memory 32 gb

molecule  {
0 1
  N        0.0402460     1.4416600     0.0000620
  C        0.0039250     0.1554150    -0.0002990
  C       -1.3400130    -0.5204670     0.0000250
  C        1.2044310    -0.7598510     0.0000030
  H       -2.1277100     0.2335740    -0.0000130
  H       -1.4495710    -1.1615970    -0.8813460
  H       -1.4493400    -1.1611390     0.8817800
  H        2.1385520    -0.1918070    -0.0030740
  H        1.1876380    -1.4127410    -0.8791240
  H        1.1905740    -1.4078120     0.8828600
  H        1.2082926     1.8211134     0.0001169
units angstrom
no_reorient  #important for SAPT in psi4, default
symmetry c1  #important for SAPT in psi4, default
}

set PROPERTIES_ORIGIN ["COM"]
properties('MP2/aug-cc-pvtz', properties = ['dipole'])
--------------------------------------------------------------------------

    Molecular point group: c1
  Charge       = 0
  Multiplicity = 1
  Basis Set: AUG-CC-PVTZ
    Blend: AUG-CC-PVTZ
  Basis Set: (AUG-CC-PVTZ AUX)
    Blend: AUG-CC-PVTZ-JKFIT

    Orbital Energies [Eh]
    ---------------------

    Doubly Occupied:

       1A    -15.564443     2A    -11.289081     3A    -11.237354
       4A    -11.227343     5A     -1.193667     6A     -1.003985
       7A     -0.957573     8A     -0.719702     9A     -0.630803
      10A     -0.608686    11A     -0.601954    12A     -0.552198
      13A     -0.537387    14A     -0.518401    15A     -0.411929
      16A     -0.405504

  @DF-RHF Final Energy:  -172.15436894619768

   => Energetics <=

    Nuclear Repulsion Energy =            119.2261859824398584
    One-Electron Energy =                -467.8410913383806928
    Two-Electron Energy =                 176.4605364097431561
    Total Energy =                       -172.1543689461976783
  Basis Set: (AUG-CC-PVTZ AUX)
    Blend: AUG-CC-PVTZ-RI
    Molecular point group: c1

    Geometry (in Angstrom), charge = 0, multiplicity = 1:

       Center              X                  Y                   Z               Mass
    ------------   -----------------  -----------------  -----------------  -----------------
         N            0.045721414982     1.382373542276     0.000082584725    14.003074004430
         C            0.009400414982     0.096128542276    -0.000278415275    12.000000000000
         C           -1.334537585018    -0.579753457724     0.000045584725    12.000000000000
         C            1.209906414982    -0.819137457724     0.000023584725    12.000000000000
         H           -2.122234585018     0.174287542276     0.000007584725     1.007825032230
         H           -1.444095585018    -1.220883457724    -0.881325415275     1.007825032230
         H           -1.443864585018    -1.220425457724     0.881800584725     1.007825032230
         H            2.144027414982    -0.251093457724    -0.003053415275     1.007825032230
         H            1.193113414982    -1.472027457724    -0.879103415275     1.007825032230
         H            1.196049414982    -1.467098457724     0.882880584725     1.007825032230
         H            1.213768014982     1.761826942276     0.000137484725     1.007825032230

  Basis Set: AUG-CC-PVTZ
    Blend: AUG-CC-PVTZ
  Basis Set: (AUG-CC-PVTZ AUX)
    Blend: AUG-CC-PVTZ-JKFIT
	 Reference Energy          =    -172.1543689461976783 [Eh]
	 Singles Energy            =      -0.0000000000000000 [Eh]
	 Same-Spin Energy          =      -0.1788479973580472 [Eh]
	 Opposite-Spin Energy      =      -0.6316322468390821 [Eh]
	 Correlation Energy        =      -0.8104802441971293 [Eh]
	 Total Energy              =    -172.9648491903948013 [Eh]

	 ================> DF-SCS-MP2 Energies <==================
	-----------------------------------------------------------
	 SCS Same-Spin Scale       =       0.3333333333333333 [-]
	 SCS Opposite-Spin Scale   =       1.2000000000000000 [-]
	 SCS Same-Spin Energy      =      -0.0596159991193491 [Eh]
	 SCS Opposite-Spin Energy  =      -0.7579586962068986 [Eh]
	 SCS Correlation Energy    =      -0.8175746953262477 [Eh]
	 SCS Total Energy          =    -172.9719436415239215 [Eh]
	-----------------------------------------------------------

  Dipole Moment: [D]
     X:     1.1014      Y:    -2.2091      Z:     0.0004     Total:     2.4685

*** Psi4 exiting successfully. Buy a developer a beer!
