                               Psi4 1.4a3.dev225

  ==> Input File <==

--------------------------------------------------------------------------
#psi4
#
memory 32 gb

molecule  {
0 1
  N       -0.0401140     1.4416700     0.0000000
  C       -0.0033493     0.1353979     0.0000000
  C        1.3400200    -0.5205790     0.0000000
  C       -1.2045230    -0.7597350     0.0000000
  H        2.1276800     0.2334830     0.0000000
  H        1.4494410    -1.1614480     0.8815750
  H        1.4494420    -1.1614490    -0.8815740
  H       -2.1385970    -0.1915910    -0.0000020
  H       -1.1893680    -1.4102220     0.8809740
  H       -1.1893660    -1.4102240    -0.8809720
  H       -1.0179430     1.7593080     0.0000000
units angstrom
no_reorient  #important for SAPT in psi4, default
symmetry c1  #important for SAPT in psi4, default
}

set PROPERTIES_ORIGIN ["COM"]
properties('MP2/aug-cc-pvtz', properties = ['dipole'])
--------------------------------------------------------------------------

    Molecular point group: c1
  Charge       = 0
  Multiplicity = 1
  Basis Set: AUG-CC-PVTZ
    Blend: AUG-CC-PVTZ
  Basis Set: (AUG-CC-PVTZ AUX)
    Blend: AUG-CC-PVTZ-JKFIT

    Orbital Energies [Eh]
    ---------------------

    Doubly Occupied:

       1A    -15.542983     2A    -11.290417     3A    -11.238049
       4A    -11.224803     5A     -1.197194     6A     -1.013089
       7A     -0.959841     8A     -0.741288     9A     -0.647976
      10A     -0.609425    11A     -0.604286    12A     -0.552201
      13A     -0.538837    14A     -0.520523    15A     -0.416638
      16A     -0.404149

  @DF-RHF Final Energy:  -172.17980074865108

   => Energetics <=

    Nuclear Repulsion Energy =            119.9745157030161380
    One-Electron Energy =                -469.3052367468612829
    Two-Electron Energy =                 177.1509202951940551
    Total Energy =                       -172.1798007486510755
  Basis Set: (AUG-CC-PVTZ AUX)
    Blend: AUG-CC-PVTZ-RI
    Molecular point group: c1

    Geometry (in Angstrom), charge = 0, multiplicity = 1:

       Center              X                  Y                   Z               Mass
    ------------   -----------------  -----------------  -----------------  -----------------
         N           -0.049076157115     1.387680528528    -0.000000017663    14.003074004430
         C           -0.012311457115     0.081408428528    -0.000000017663    12.000000000000
         C            1.331057842885    -0.574568471472    -0.000000017663    12.000000000000
         C           -1.213485157115    -0.813724471472    -0.000000017663    12.000000000000
         H            2.118717842885     0.179493528528    -0.000000017663     1.007825032230
         H            1.440478842885    -1.215437471472     0.881574982337     1.007825032230
         H            1.440479842885    -1.215438471472    -0.881574017663     1.007825032230
         H           -2.147559157115    -0.245580471472    -0.000002017663     1.007825032230
         H           -1.198330157115    -1.464211471472     0.880973982337     1.007825032230
         H           -1.198328157115    -1.464213471472    -0.880972017663     1.007825032230
         H           -1.026905157115     1.705318528528    -0.000000017663     1.007825032230

  Basis Set: AUG-CC-PVTZ
    Blend: AUG-CC-PVTZ
  Basis Set: (AUG-CC-PVTZ AUX)
    Blend: AUG-CC-PVTZ-JKFIT
	 Reference Energy          =    -172.1798007486510755 [Eh]
	 Singles Energy            =      -0.0000000000000000 [Eh]
	 Same-Spin Energy          =      -0.1780343566564158 [Eh]
	 Opposite-Spin Energy      =      -0.6280728206658045 [Eh]
	 Correlation Energy        =      -0.8061071773222204 [Eh]
	 Total Energy              =    -172.9859079259732937 [Eh]

	 ================> DF-SCS-MP2 Energies <==================
	-----------------------------------------------------------
	 SCS Same-Spin Scale       =       0.3333333333333333 [-]
	 SCS Opposite-Spin Scale   =       1.2000000000000000 [-]
	 SCS Same-Spin Energy      =      -0.0593447855521386 [Eh]
	 SCS Opposite-Spin Energy  =      -0.7536873847989654 [Eh]
	 SCS Correlation Energy    =      -0.8130321703511040 [Eh]
	 SCS Total Energy          =    -172.9928329190021827 [Eh]
	-----------------------------------------------------------

  Dipole Moment: [D]
     X:    -1.2101      Y:    -2.2149      Z:     0.0000     Total:     2.5239

*** Psi4 exiting successfully. Buy a developer a beer!
