                               Psi4 1.3.2 release

  ==> Input File <==

--------------------------------------------------------------------------
#psi4
#
memory 32 gb

molecule  {
0 1
  N        0.0402460     1.4416600     0.0000620
  C       -0.0394898     0.2234650     0.1348975
  C       -1.3400130    -0.5204670     0.0000250
  C        1.2044310    -0.7598510     0.0000030
  H       -2.1277100     0.2335740    -0.0000130
  H       -1.4495710    -1.1615970    -0.8813460
  H       -1.4493400    -1.1611390     0.8817800
  H        2.1385520    -0.1918070    -0.0030740
  H        1.1876380    -1.4127410    -0.8791240
  H        1.1905740    -1.4078120     0.8828600
  H        1.0180780     1.7593200     0.0001080
units angstrom
no_reorient  #important for SAPT in psi4, default
symmetry c1  #important for SAPT in psi4, default
}

set PROPERTIES_ORIGIN ["COM"]
properties('MP2/aug-cc-pvtz', properties = ['dipole'])
--------------------------------------------------------------------------

    Molecular point group: c1
  Charge       = 0
  Multiplicity = 1
  Basis Set: AUG-CC-PVTZ
    Blend: AUG-CC-PVTZ
  Basis Set: (AUG-CC-PVTZ AUX)
    Blend: AUG-CC-PVTZ-JKFIT

    Orbital Energies [Eh]
    ---------------------

    Doubly Occupied:

       1A    -15.540458     2A    -11.284135     3A    -11.235060
       4A    -11.223222     5A     -1.228486     6A     -1.004030
       7A     -0.947750     8A     -0.745343     9A     -0.646790
      10A     -0.601751    11A     -0.596317    12A     -0.556601
      13A     -0.547311    14A     -0.510851    15A     -0.432403
      16A     -0.398538

  @DF-RHF Final Energy:  -172.17028593826521

   => Energetics <=

    Nuclear Repulsion Energy =            120.1075702096893565
    One-Electron Energy =                -469.5576198680661264
    Two-Electron Energy =                 177.2797637201115606
    Total Energy =                       -172.1702859382652093
  Basis Set: (AUG-CC-PVTZ AUX)
    Blend: AUG-CC-PVTZ-RI
    Molecular point group: c1

    Geometry (in Angstrom), charge = 0, multiplicity = 1:

       Center              X                  Y                   Z               Mass
    ------------   -----------------  -----------------  -----------------  -----------------
         N            0.058211907439     1.369153221587    -0.028350821936    14.003074004430
         C           -0.021523892561     0.150958221587     0.106484678064    12.000000000000
         C           -1.322047092561    -0.592973778413    -0.028387821936    12.000000000000
         C            1.222396907439    -0.832357778413    -0.028409821936    12.000000000000
         H           -2.109744092561     0.161067221587    -0.028425821936     1.007825032230
         H           -1.431605092561    -1.234103778413    -0.909758821936     1.007825032230
         H           -1.431374092561    -1.233645778413     0.853367178064     1.007825032230
         H            2.156517907439    -0.264313778413    -0.031486821936     1.007825032230
         H            1.205603907439    -1.485247778413    -0.907536821936     1.007825032230
         H            1.208539907439    -1.480318778413     0.854447178064     1.007825032230
         H            1.036043907439     1.686813221587    -0.028304821936     1.007825032230

  Basis Set: AUG-CC-PVTZ
    Blend: AUG-CC-PVTZ
  Basis Set: (AUG-CC-PVTZ AUX)
    Blend: AUG-CC-PVTZ-JKFIT
	 Reference Energy          =    -172.1702859382652093 [Eh]
	 Singles Energy            =      -0.0000000000000000 [Eh]
	 Same-Spin Energy          =      -0.1767299858746505 [Eh]
	 Opposite-Spin Energy      =      -0.6256943233476669 [Eh]
	 Correlation Energy        =      -0.8024243092223174 [Eh]
	 Total Energy              =    -172.9727102474875267 [Eh]

	 ================> DF-SCS-MP2 Energies <==================
	-----------------------------------------------------------
	 SCS Same-Spin Scale       =       0.3333333333333333 [-]
	 SCS Opposite-Spin Scale   =       1.2000000000000000 [-]
	 SCS Same-Spin Energy      =      -0.0589099952915502 [Eh]
	 SCS Opposite-Spin Energy  =      -0.7508331880172003 [Eh]
	 SCS Correlation Energy    =      -0.8097431833087505 [Eh]
	 SCS Total Energy          =    -172.9800291215739492 [Eh]
	-----------------------------------------------------------

  Dipole Moment: [D]
     X:     1.0897      Y:    -1.8946      Z:    -0.0265     Total:     2.1858

*** Psi4 exiting successfully. Buy a developer a beer!
