                               Psi4 1.4a3.dev225

  ==> Input File <==

--------------------------------------------------------------------------
#psi4
#
memory 32 gb

molecule  {
0 1
  N       -0.0401140     1.4416700     0.0000000
  C       -0.0039120     0.1553900     0.0000000
  C        1.3400200    -0.5205790     0.0000000
  C       -1.2045230    -0.7597350     0.0000000
  H        2.1276800     0.2334830     0.0000000
  H        1.4494410    -1.1614480     0.8815750
  H        1.4494420    -1.1614490    -0.8815740
  H       -2.1385970    -0.1915910    -0.0000020
  H       -1.1893680    -1.4102220     0.8809740
  H       -1.1893660    -1.4102240    -0.8809720
  H       -0.9703891     1.7438606     0.0000000
units angstrom
no_reorient  #important for SAPT in psi4, default
symmetry c1  #important for SAPT in psi4, default
}

set PROPERTIES_ORIGIN ["COM"]
properties('MP2/aug-cc-pvtz', properties = ['dipole'])
--------------------------------------------------------------------------

    Molecular point group: c1
  Charge       = 0
  Multiplicity = 1
  Basis Set: AUG-CC-PVTZ
    Blend: AUG-CC-PVTZ
  Basis Set: (AUG-CC-PVTZ AUX)
    Blend: AUG-CC-PVTZ-JKFIT

    Orbital Energies [Eh]
    ---------------------

    Doubly Occupied:

       1A    -15.535845     2A    -11.288604     3A    -11.237809
       4A    -11.223630     5A     -1.209458     6A     -1.014363
       7A     -0.957314     8A     -0.749406     9A     -0.652199
      10A     -0.607816    11A     -0.603754    12A     -0.550950
      13A     -0.542562    14A     -0.517812    15A     -0.416642
      16A     -0.411198

  @DF-RHF Final Energy:  -172.18185130891632

   => Energetics <=

    Nuclear Repulsion Energy =            120.2811324718463197
    One-Electron Energy =                -469.8872394004696957
    Two-Electron Energy =                 177.4242556197070542
    Total Energy =                       -172.1818513089163218
  Basis Set: (AUG-CC-PVTZ AUX)
    Blend: AUG-CC-PVTZ-RI
    Molecular point group: c1

    Geometry (in Angstrom), charge = 0, multiplicity = 1:

       Center              X                  Y                   Z               Mass
    ------------   -----------------  -----------------  -----------------  -----------------
         N           -0.049797768801     1.383748783349    -0.000000017663    14.003074004430
         C           -0.013595768801     0.097468783349    -0.000000017663    12.000000000000
         C            1.330336231199    -0.578500216651    -0.000000017663    12.000000000000
         C           -1.214206768801    -0.817656216651    -0.000000017663    12.000000000000
         H            2.117996231199     0.175561783349    -0.000000017663     1.007825032230
         H            1.439757231199    -1.219369216651     0.881574982337     1.007825032230
         H            1.439758231199    -1.219370216651    -0.881574017663     1.007825032230
         H           -2.148280768801    -0.249512216651    -0.000002017663     1.007825032230
         H           -1.199051768801    -1.468143216651     0.880973982337     1.007825032230
         H           -1.199049768801    -1.468145216651    -0.880972017663     1.007825032230
         H           -0.980072868801     1.685939383349    -0.000000017663     1.007825032230

  Basis Set: AUG-CC-PVTZ
    Blend: AUG-CC-PVTZ
  Basis Set: (AUG-CC-PVTZ AUX)
    Blend: AUG-CC-PVTZ-JKFIT
	 Reference Energy          =    -172.1818513089163218 [Eh]
	 Singles Energy            =      -0.0000000000000000 [Eh]
	 Same-Spin Energy          =      -0.1772414468058153 [Eh]
	 Opposite-Spin Energy      =      -0.6261782928267077 [Eh]
	 Correlation Energy        =      -0.8034197396325230 [Eh]
	 Total Energy              =    -172.9852710485488387 [Eh]

	 ================> DF-SCS-MP2 Energies <==================
	-----------------------------------------------------------
	 SCS Same-Spin Scale       =       0.3333333333333333 [-]
	 SCS Opposite-Spin Scale   =       1.2000000000000000 [-]
	 SCS Same-Spin Energy      =      -0.0590804822686051 [Eh]
	 SCS Opposite-Spin Energy  =      -0.7514139513920491 [Eh]
	 SCS Correlation Energy    =      -0.8104944336606542 [Eh]
	 SCS Total Energy          =    -172.9923457425769868 [Eh]
	-----------------------------------------------------------

  Dipole Moment: [D]
     X:    -1.2305      Y:    -2.1575      Z:     0.0000     Total:     2.4837

*** Psi4 exiting successfully. Buy a developer a beer!
