                               Psi4 1.3.2 release

  ==> Input File <==

--------------------------------------------------------------------------
#psi4
#
memory 32 gb

molecule  {
0 1
  N        0.0402460     1.4416600     0.0000620
  C        0.0937374     0.1560146    -0.0003028
  C       -1.3400130    -0.5204670     0.0000250
  C        1.2044310    -0.7598510     0.0000030
  H       -2.1277100     0.2335740    -0.0000130
  H       -1.4495710    -1.1615970    -0.8813460
  H       -1.4493400    -1.1611390     0.8817800
  H        2.1385520    -0.1918070    -0.0030740
  H        1.1876380    -1.4127410    -0.8791240
  H        1.1905740    -1.4078120     0.8828600
  H        1.0180780     1.7593200     0.0001080
units angstrom
no_reorient  #important for SAPT in psi4, default
symmetry c1  #important for SAPT in psi4, default
}

set PROPERTIES_ORIGIN ["COM"]
properties('MP2/aug-cc-pvtz', properties = ['dipole'])
--------------------------------------------------------------------------

    Molecular point group: c1
  Charge       = 0
  Multiplicity = 1
  Basis Set: AUG-CC-PVTZ
    Blend: AUG-CC-PVTZ
  Basis Set: (AUG-CC-PVTZ AUX)
    Blend: AUG-CC-PVTZ-JKFIT

    Orbital Energies [Eh]
    ---------------------

    Doubly Occupied:

       1A    -15.545026     2A    -11.289136     3A    -11.238487
       4A    -11.223007     5A     -1.208418     6A     -1.020235
       7A     -0.949302     8A     -0.738138     9A     -0.651871
      10A     -0.612394    11A     -0.610999    12A     -0.547737
      13A     -0.537234    14A     -0.502279    15A     -0.420496
      16A     -0.412861

  @DF-RHF Final Energy:  -172.17267681217010

   => Energetics <=

    Nuclear Repulsion Energy =            120.0353345844878277
    One-Electron Energy =                -469.4007813026831286
    Two-Electron Energy =                 177.1927699060252053
    Total Energy =                       -172.1726768121700957
  Basis Set: (AUG-CC-PVTZ AUX)
    Blend: AUG-CC-PVTZ-RI
    Molecular point group: c1

    Geometry (in Angstrom), charge = 0, multiplicity = 1:

       Center              X                  Y                   Z               Mass
    ------------   -----------------  -----------------  -----------------  -----------------
         N            0.030192512709     1.383338908761     0.000083541117    14.003074004430
         C            0.083683912709     0.097693508761    -0.000281258883    12.000000000000
         C           -1.350066487291    -0.578788091239     0.000046541117    12.000000000000
         C            1.194377512709    -0.818172091239     0.000024541117    12.000000000000
         H           -2.137763487291     0.175252908761     0.000008541117     1.007825032230
         H           -1.459624487291    -1.219918091239    -0.881324458883     1.007825032230
         H           -1.459393487291    -1.219460091239     0.881801541117     1.007825032230
         H            2.128498512709    -0.250128091239    -0.003052458883     1.007825032230
         H            1.177584512709    -1.471062091239    -0.879102458883     1.007825032230
         H            1.180520512709    -1.466133091239     0.882881541117     1.007825032230
         H            1.008024512709     1.700998908761     0.000129541117     1.007825032230

  Basis Set: AUG-CC-PVTZ
    Blend: AUG-CC-PVTZ
  Basis Set: (AUG-CC-PVTZ AUX)
    Blend: AUG-CC-PVTZ-JKFIT
	 Reference Energy          =    -172.1726768121700957 [Eh]
	 Singles Energy            =      -0.0000000000000000 [Eh]
	 Same-Spin Energy          =      -0.1780718068613097 [Eh]
	 Opposite-Spin Energy      =      -0.6281624092394000 [Eh]
	 Correlation Energy        =      -0.8062342161007098 [Eh]
	 Total Energy              =    -172.9789110282708009 [Eh]

	 ================> DF-SCS-MP2 Energies <==================
	-----------------------------------------------------------
	 SCS Same-Spin Scale       =       0.3333333333333333 [-]
	 SCS Opposite-Spin Scale   =       1.2000000000000000 [-]
	 SCS Same-Spin Energy      =      -0.0593572689537699 [Eh]
	 SCS Opposite-Spin Energy  =      -0.7537948910872800 [Eh]
	 SCS Correlation Energy    =      -0.8131521600410500 [Eh]
	 SCS Total Energy          =    -172.9858289722111522 [Eh]
	-----------------------------------------------------------

  Dipole Moment: [D]
     X:     1.4727      Y:    -2.1427      Z:     0.0005     Total:     2.6000

*** Psi4 exiting successfully. Buy a developer a beer!
