                               Psi4 1.3.2 release

  ==> Input File <==

--------------------------------------------------------------------------
#psi4
#
memory 32 gb

molecule  {
0 1
  N        0.0402460     1.4416600     0.0000620
  C        0.0039250     0.1554150    -0.0002990
  C       -1.4293514    -0.5653963     0.0000465
  C        1.2044310    -0.7598510     0.0000030
  H       -2.1277100     0.2335740    -0.0000130
  H       -1.4495710    -1.1615970    -0.8813460
  H       -1.4493400    -1.1611390     0.8817800
  H        2.1385520    -0.1918070    -0.0030740
  H        1.1876380    -1.4127410    -0.8791240
  H        1.1905740    -1.4078120     0.8828600
  H        1.0180780     1.7593200     0.0001080
units angstrom
no_reorient  #important for SAPT in psi4, default
symmetry c1  #important for SAPT in psi4, default
}

set PROPERTIES_ORIGIN ["COM"]
properties('MP2/aug-cc-pvtz', properties = ['dipole'])
--------------------------------------------------------------------------

    Molecular point group: c1
  Charge       = 0
  Multiplicity = 1
  Basis Set: AUG-CC-PVTZ
    Blend: AUG-CC-PVTZ
  Basis Set: (AUG-CC-PVTZ AUX)
    Blend: AUG-CC-PVTZ-JKFIT

    Orbital Energies [Eh]
    ---------------------

    Doubly Occupied:

       1A    -15.542399     2A    -11.292428     3A    -11.238166
       4A    -11.222363     5A     -1.199966     6A     -1.005626
       7A     -0.956637     8A     -0.737103     9A     -0.645693
      10A     -0.609934    11A     -0.599614    12A     -0.561890
      13A     -0.555960    14A     -0.503729    15A     -0.413720
      16A     -0.407610

  @DF-RHF Final Energy:  -172.17460203259131

   => Energetics <=

    Nuclear Repulsion Energy =            118.8262385962933649
    One-Electron Energy =                -467.0160061581815398
    Two-Electron Energy =                 176.0151655292968655
    Total Energy =                       -172.1746020325913094
  Basis Set: (AUG-CC-PVTZ AUX)
    Blend: AUG-CC-PVTZ-RI
    Molecular point group: c1

    Geometry (in Angstrom), charge = 0, multiplicity = 1:

       Center              X                  Y                   Z               Mass
    ------------   -----------------  -----------------  -----------------  -----------------
         N            0.067870231533     1.392914222366     0.000078220201    14.003074004430
         C            0.031549231533     0.106669222366    -0.000282779799    12.000000000000
         C           -1.401727168467    -0.614142077634     0.000062720201    12.000000000000
         C            1.232055231533    -0.808596777634     0.000019220201    12.000000000000
         H           -2.100085768467     0.184828222366     0.000003220201     1.007825032230
         H           -1.421946768467    -1.210342777634    -0.881329779799     1.007825032230
         H           -1.421715768467    -1.209884777634     0.881796220201     1.007825032230
         H            2.166176231533    -0.240552777634    -0.003057779799     1.007825032230
         H            1.215262231533    -1.461486777634    -0.879107779799     1.007825032230
         H            1.218198231533    -1.456557777634     0.882876220201     1.007825032230
         H            1.045702231533     1.710574222366     0.000124220201     1.007825032230

  Basis Set: AUG-CC-PVTZ
    Blend: AUG-CC-PVTZ
  Basis Set: (AUG-CC-PVTZ AUX)
    Blend: AUG-CC-PVTZ-JKFIT
	 Reference Energy          =    -172.1746020325913094 [Eh]
	 Singles Energy            =      -0.0000000000000000 [Eh]
	 Same-Spin Energy          =      -0.1771955244601334 [Eh]
	 Opposite-Spin Energy      =      -0.6270476360751831 [Eh]
	 Correlation Energy        =      -0.8042431605353164 [Eh]
	 Total Energy              =    -172.9788451931266309 [Eh]

	 ================> DF-SCS-MP2 Energies <==================
	-----------------------------------------------------------
	 SCS Same-Spin Scale       =       0.3333333333333333 [-]
	 SCS Opposite-Spin Scale   =       1.2000000000000000 [-]
	 SCS Same-Spin Energy      =      -0.0590651748200445 [Eh]
	 SCS Opposite-Spin Energy  =      -0.7524571632902197 [Eh]
	 SCS Correlation Energy    =      -0.8115223381102642 [Eh]
	 SCS Total Energy          =    -172.9861243707015603 [Eh]
	-----------------------------------------------------------

  Dipole Moment: [D]
     X:     1.3053      Y:    -2.1111      Z:     0.0004     Total:     2.4821

*** Psi4 exiting successfully. Buy a developer a beer!
