                               Psi4 1.3.2 release

  ==> Input File <==

--------------------------------------------------------------------------
#psi4
#
memory 32 gb

molecule  {
0 1
  N        0.0402460     1.4416600     0.0000620
  C        0.0039250     0.1554150    -0.0002990
  C       -1.3400130    -0.5204670     0.0000250
  C        1.2044310    -0.7598510     0.0000030
  H       -2.1277100     0.2335740    -0.0000130
  H       -1.4495710    -1.1615970    -0.8813460
  H       -1.4493400    -1.1611390     0.8817800
  H        2.1385520    -0.1918070    -0.0030740
  H        1.1876380    -1.4127410    -0.8791240
  H        1.1905740    -1.4078120     0.8828600
  H        1.0180780     1.7593200     0.0001080
units angstrom
no_reorient  #important for SAPT in psi4, default
symmetry c1  #important for SAPT in psi4, default
}

set PROPERTIES_ORIGIN ["COM"]
properties('MP2/aug-cc-pvtz', properties = ['dipole'])
--------------------------------------------------------------------------

    Molecular point group: c1
  Charge       = 0
  Multiplicity = 1
  Basis Set: AUG-CC-PVTZ
    Blend: AUG-CC-PVTZ
  Basis Set: (AUG-CC-PVTZ AUX)
    Blend: AUG-CC-PVTZ-JKFIT

    Orbital Energies [Eh]
    ---------------------

    Doubly Occupied:

       1A    -15.542095     2A    -11.288427     3A    -11.237573
       4A    -11.224121     5A     -1.204519     6A     -1.011335
       7A     -0.957187     8A     -0.741249     9A     -0.648342
      10A     -0.607827    11A     -0.603364    12A     -0.551038
      13A     -0.541689    14A     -0.517775    15A     -0.414777
      16A     -0.410999

  @DF-RHF Final Energy:  -172.18198148447723

   => Energetics <=

    Nuclear Repulsion Energy =            120.0397138458167632
    One-Electron Energy =                -469.4387561725113756
    Two-Electron Energy =                 177.2170608422173643
    Total Energy =                       -172.1819814844772338
  Basis Set: (AUG-CC-PVTZ AUX)
    Blend: AUG-CC-PVTZ-RI
    Molecular point group: c1

    Geometry (in Angstrom), charge = 0, multiplicity = 1:

       Center              X                  Y                   Z               Mass
    ------------   -----------------  -----------------  -----------------  -----------------
         N            0.049081216271     1.383465012357     0.000082741928    14.003074004430
         C            0.012760216271     0.097220012357    -0.000278258072    12.000000000000
         C           -1.331177783729    -0.578661987643     0.000045741928    12.000000000000
         C            1.213266216271    -0.818045987643     0.000023741928    12.000000000000
         H           -2.118874783729     0.175379012357     0.000007741928     1.007825032230
         H           -1.440735783729    -1.219791987643    -0.881325258072     1.007825032230
         H           -1.440504783729    -1.219333987643     0.881800741928     1.007825032230
         H            2.147387216271    -0.250001987643    -0.003053258072     1.007825032230
         H            1.196473216271    -1.470935987643    -0.879103258072     1.007825032230
         H            1.199409216271    -1.466006987643     0.882880741928     1.007825032230
         H            1.026913216271     1.701125012357     0.000128741928     1.007825032230

  Basis Set: AUG-CC-PVTZ
    Blend: AUG-CC-PVTZ
  Basis Set: (AUG-CC-PVTZ AUX)
    Blend: AUG-CC-PVTZ-JKFIT
	 Reference Energy          =    -172.1819814844772338 [Eh]
	 Singles Energy            =      -0.0000000000000000 [Eh]
	 Same-Spin Energy          =      -0.1775639627928663 [Eh]
	 Opposite-Spin Energy      =      -0.6271132271888327 [Eh]
	 Correlation Energy        =      -0.8046771899816990 [Eh]
	 Total Energy              =    -172.9866586744589370 [Eh]

	 ================> DF-SCS-MP2 Energies <==================
	-----------------------------------------------------------
	 SCS Same-Spin Scale       =       0.3333333333333333 [-]
	 SCS Opposite-Spin Scale   =       1.2000000000000000 [-]
	 SCS Same-Spin Energy      =      -0.0591879875976221 [Eh]
	 SCS Opposite-Spin Energy  =      -0.7525358726265992 [Eh]
	 SCS Correlation Energy    =      -0.8117238602242213 [Eh]
	 SCS Total Energy          =    -172.9937053447014534 [Eh]
	-----------------------------------------------------------

  Dipole Moment: [D]
     X:     1.2148      Y:    -2.1567      Z:     0.0004     Total:     2.4753

*** Psi4 exiting successfully. Buy a developer a beer!
