                               Psi4 1.3.2 release

  ==> Input File <==

--------------------------------------------------------------------------
#psi4
#
memory 32 gb

molecule  {
0 1
  N       -0.0944022     1.4384104    -0.0000002
  C        0.0039250     0.1554150    -0.0002990
  C       -1.3400130    -0.5204670     0.0000250
  C        1.2044310    -0.7598510     0.0000030
  H       -2.1277100     0.2335740    -0.0000130
  H       -1.4495710    -1.1615970    -0.8813460
  H       -1.4493400    -1.1611390     0.8817800
  H        2.1385520    -0.1918070    -0.0030740
  H        1.1876380    -1.4127410    -0.8791240
  H        1.1905740    -1.4078120     0.8828600
  H        1.0180780     1.7593200     0.0001080
units angstrom
no_reorient  #important for SAPT in psi4, default
symmetry c1  #important for SAPT in psi4, default
}

set PROPERTIES_ORIGIN ["COM"]
properties('MP2/aug-cc-pvtz', properties = ['dipole'])
--------------------------------------------------------------------------

    Molecular point group: c1
  Charge       = 0
  Multiplicity = 1
  Basis Set: AUG-CC-PVTZ
    Blend: AUG-CC-PVTZ
  Basis Set: (AUG-CC-PVTZ AUX)
    Blend: AUG-CC-PVTZ-JKFIT

    Orbital Energies [Eh]
    ---------------------

    Doubly Occupied:

       1A    -15.560757     2A    -11.288598     3A    -11.243863
       4A    -11.219659     5A     -1.202533     6A     -1.008450
       7A     -0.956470     8A     -0.721007     9A     -0.640377
      10A     -0.609714    11A     -0.603745    12A     -0.551305
      13A     -0.529702    14A     -0.515033    15A     -0.419733
      16A     -0.413480

  @DF-RHF Final Energy:  -172.16203395284768

   => Energetics <=

    Nuclear Repulsion Energy =            119.7632887265704085
    One-Electron Energy =                -468.8817909460329929
    Two-Electron Energy =                 176.9564682666149054
    Total Energy =                       -172.1620339528476791
  Basis Set: (AUG-CC-PVTZ AUX)
    Blend: AUG-CC-PVTZ-RI
    Molecular point group: c1

    Geometry (in Angstrom), charge = 0, multiplicity = 1:

       Center              X                  Y                   Z               Mass
    ------------   -----------------  -----------------  -----------------  -----------------
         N           -0.052521771990     1.381012925581     0.000035806983    14.003074004430
         C            0.045805428010     0.098017525581    -0.000262993017    12.000000000000
         C           -1.298132571990    -0.577864474419     0.000061006983    12.000000000000
         C            1.246311428010    -0.817248474419     0.000039006983    12.000000000000
         H           -2.085829571990     0.176176525581     0.000023006983     1.007825032230
         H           -1.407690571990    -1.218994474419    -0.881309993017     1.007825032230
         H           -1.407459571990    -1.218536474419     0.881816006983     1.007825032230
         H            2.180432428010    -0.249204474419    -0.003037993017     1.007825032230
         H            1.229518428010    -1.470138474419    -0.879087993017     1.007825032230
         H            1.232454428010    -1.465209474419     0.882896006983     1.007825032230
         H            1.059958428010     1.701922525581     0.000144006983     1.007825032230

  Basis Set: AUG-CC-PVTZ
    Blend: AUG-CC-PVTZ
  Basis Set: (AUG-CC-PVTZ AUX)
    Blend: AUG-CC-PVTZ-JKFIT
	 Reference Energy          =    -172.1620339528476791 [Eh]
	 Singles Energy            =      -0.0000000000000000 [Eh]
	 Same-Spin Energy          =      -0.1790650179946495 [Eh]
	 Opposite-Spin Energy      =      -0.6311873228136775 [Eh]
	 Correlation Energy        =      -0.8102523408083270 [Eh]
	 Total Energy              =    -172.9722862936559977 [Eh]

	 ================> DF-SCS-MP2 Energies <==================
	-----------------------------------------------------------
	 SCS Same-Spin Scale       =       0.3333333333333333 [-]
	 SCS Opposite-Spin Scale   =       1.2000000000000000 [-]
	 SCS Same-Spin Energy      =      -0.0596883393315498 [Eh]
	 SCS Opposite-Spin Energy  =      -0.7574247873764129 [Eh]
	 SCS Correlation Energy    =      -0.8171131267079628 [Eh]
	 SCS Total Energy          =    -172.9791470795556450 [Eh]
	-----------------------------------------------------------

  Dipole Moment: [D]
     X:     1.3700      Y:    -2.1998      Z:     0.0006     Total:     2.5915

*** Psi4 exiting successfully. Buy a developer a beer!
