                               Psi4 1.4a3.dev225

  ==> Input File <==

--------------------------------------------------------------------------
#psi4
#
memory 32 gb

molecule  {
0 1
  N       -0.0401140     1.4416700     0.0000000
  C       -0.0039120     0.1553900     0.0000000
  C        1.3578872    -0.5295658     0.0000000
  C       -1.2045230    -0.7597350     0.0000000
  H        2.1276800     0.2334830     0.0000000
  H        1.4494410    -1.1614480     0.8815750
  H        1.4494420    -1.1614490    -0.8815740
  H       -2.1385970    -0.1915910    -0.0000020
  H       -1.1893680    -1.4102220     0.8809740
  H       -1.1893660    -1.4102240    -0.8809720
  H       -1.0179430     1.7593080     0.0000000
units angstrom
no_reorient  #important for SAPT in psi4, default
symmetry c1  #important for SAPT in psi4, default
}

set PROPERTIES_ORIGIN ["COM"]
properties('MP2/aug-cc-pvtz', properties = ['dipole'])
--------------------------------------------------------------------------

    Molecular point group: c1
  Charge       = 0
  Multiplicity = 1
  Basis Set: AUG-CC-PVTZ
    Blend: AUG-CC-PVTZ
  Basis Set: (AUG-CC-PVTZ AUX)
    Blend: AUG-CC-PVTZ-JKFIT

    Orbital Energies [Eh]
    ---------------------

    Doubly Occupied:

       1A    -15.542151     2A    -11.289358     3A    -11.237698
       4A    -11.223532     5A     -1.203451     6A     -1.009998
       7A     -0.956994     8A     -0.740366     9A     -0.647703
      10A     -0.608068    11A     -0.602442    12A     -0.553329
      13A     -0.543870    14A     -0.516006    15A     -0.413616
      16A     -0.411673

  @DF-RHF Final Energy:  -172.18183185859579

   => Energetics <=

    Nuclear Repulsion Energy =            119.7886626396246470
    One-Electron Energy =                -468.9404790410540045
    Two-Electron Energy =                 176.9699845428335720
    Total Energy =                       -172.1818318585957854
  Basis Set: (AUG-CC-PVTZ AUX)
    Blend: AUG-CC-PVTZ-RI
    Molecular point group: c1

    Geometry (in Angstrom), charge = 0, multiplicity = 1:

       Center              X                  Y                   Z               Mass
    ------------   -----------------  -----------------  -----------------  -----------------
         N           -0.052715516165     1.385365972305    -0.000000017663    14.003074004430
         C           -0.016513516165     0.099085972305    -0.000000017663    12.000000000000
         C            1.345285683835    -0.585869827695    -0.000000017663    12.000000000000
         C           -1.217124516165    -0.816039027695    -0.000000017663    12.000000000000
         H            2.115078483835     0.177178972305    -0.000000017663     1.007825032230
         H            1.436839483835    -1.217752027695     0.881574982337     1.007825032230
         H            1.436840483835    -1.217753027695    -0.881574017663     1.007825032230
         H           -2.151198516165    -0.247895027695    -0.000002017663     1.007825032230
         H           -1.201969516165    -1.466526027695     0.880973982337     1.007825032230
         H           -1.201967516165    -1.466528027695    -0.880972017663     1.007825032230
         H           -1.030544516165     1.703003972305    -0.000000017663     1.007825032230

  Basis Set: AUG-CC-PVTZ
    Blend: AUG-CC-PVTZ
  Basis Set: (AUG-CC-PVTZ AUX)
    Blend: AUG-CC-PVTZ-JKFIT
	 Reference Energy          =    -172.1818318585957854 [Eh]
	 Singles Energy            =      -0.0000000000000000 [Eh]
	 Same-Spin Energy          =      -0.1774299130081791 [Eh]
	 Opposite-Spin Energy      =      -0.6269935663074735 [Eh]
	 Correlation Energy        =      -0.8044234793156526 [Eh]
	 Total Energy              =    -172.9862553379114445 [Eh]

	 ================> DF-SCS-MP2 Energies <==================
	-----------------------------------------------------------
	 SCS Same-Spin Scale       =       0.3333333333333333 [-]
	 SCS Opposite-Spin Scale   =       1.2000000000000000 [-]
	 SCS Same-Spin Energy      =      -0.0591433043360597 [Eh]
	 SCS Opposite-Spin Energy  =      -0.7523922795689681 [Eh]
	 SCS Correlation Energy    =      -0.8115355839050278 [Eh]
	 SCS Total Energy          =    -172.9933674425008121 [Eh]
	-----------------------------------------------------------

  Dipole Moment: [D]
     X:    -1.2329      Y:    -2.1479      Z:    -0.0000     Total:     2.4766

*** Psi4 exiting successfully. Buy a developer a beer!
