                               Psi4 1.4a3.dev225

  ==> Input File <==

--------------------------------------------------------------------------
#psi4
#
memory 32 gb

molecule  {
0 1
  N       -0.0401140     1.4416700     0.0000000
  C       -0.0039120     0.1553900     0.0000000
  C        1.3400200    -0.5205790     0.0000000
  C       -1.2045230    -0.7597350     0.0000000
  H        2.1276800     0.2334830     0.0000000
  H        1.4494410    -1.1614480     0.8815750
  H        1.4494420    -1.1614490    -0.8815740
  H       -2.1385970    -0.1915910    -0.0000020
  H       -1.1893680    -1.4102220     0.8809740
  H       -1.1893660    -1.4102240    -0.8809720
  H       -1.0654969     1.7747554     0.0000000
units angstrom
no_reorient  #important for SAPT in psi4, default
symmetry c1  #important for SAPT in psi4, default
}

set PROPERTIES_ORIGIN ["COM"]
properties('MP2/aug-cc-pvtz', properties = ['dipole'])
--------------------------------------------------------------------------

    Molecular point group: c1
  Charge       = 0
  Multiplicity = 1
  Basis Set: AUG-CC-PVTZ
    Blend: AUG-CC-PVTZ
  Basis Set: (AUG-CC-PVTZ AUX)
    Blend: AUG-CC-PVTZ-JKFIT

    Orbital Energies [Eh]
    ---------------------

    Doubly Occupied:

       1A    -15.548082     2A    -11.288393     3A    -11.237417
       4A    -11.224735     5A     -1.200594     6A     -1.008803
       7A     -0.957147     8A     -0.734192     9A     -0.644123
      10A     -0.607897    11A     -0.602982    12A     -0.551208
      13A     -0.540733    14A     -0.517803    15A     -0.412794
      16A     -0.410955

  @DF-RHF Final Energy:  -172.17836408148864

   => Energetics <=

    Nuclear Repulsion Energy =            119.8134303294557697
    One-Electron Energy =                -469.0078705949009077
    Two-Electron Energy =                 177.0160761839564714
    Total Energy =                       -172.1783640814886382
  Basis Set: (AUG-CC-PVTZ AUX)
    Blend: AUG-CC-PVTZ-RI
    Molecular point group: c1

    Geometry (in Angstrom), charge = 0, multiplicity = 1:

       Center              X                  Y                   Z               Mass
    ------------   -----------------  -----------------  -----------------  -----------------
         N           -0.048117859325     1.383203081869    -0.000000017663    14.003074004430
         C           -0.011915859325     0.096923081869    -0.000000017663    12.000000000000
         C            1.332016140675    -0.579045918131    -0.000000017663    12.000000000000
         C           -1.212526859325    -0.818201918131    -0.000000017663    12.000000000000
         H            2.119676140675     0.175016081869    -0.000000017663     1.007825032230
         H            1.441437140675    -1.219914918131     0.881574982337     1.007825032230
         H            1.441438140675    -1.219915918131    -0.881574017663     1.007825032230
         H           -2.146600859325    -0.250057918131    -0.000002017663     1.007825032230
         H           -1.197371859325    -1.468688918131     0.880973982337     1.007825032230
         H           -1.197369859325    -1.468690918131    -0.880972017663     1.007825032230
         H           -1.073500759325     1.716288481869    -0.000000017663     1.007825032230

  Basis Set: AUG-CC-PVTZ
    Blend: AUG-CC-PVTZ
  Basis Set: (AUG-CC-PVTZ AUX)
    Blend: AUG-CC-PVTZ-JKFIT
	 Reference Energy          =    -172.1783640814886382 [Eh]
	 Singles Energy            =      -0.0000000000000000 [Eh]
	 Same-Spin Energy          =      -0.1778923211421601 [Eh]
	 Opposite-Spin Energy      =      -0.6281354505705887 [Eh]
	 Correlation Energy        =      -0.8060277717127489 [Eh]
	 Total Energy              =    -172.9843918532013731 [Eh]

	 ================> DF-SCS-MP2 Energies <==================
	-----------------------------------------------------------
	 SCS Same-Spin Scale       =       0.3333333333333333 [-]
	 SCS Opposite-Spin Scale   =       1.2000000000000000 [-]
	 SCS Same-Spin Energy      =      -0.0592974403807200 [Eh]
	 SCS Opposite-Spin Energy  =      -0.7537625406847065 [Eh]
	 SCS Correlation Energy    =      -0.8130599810654265 [Eh]
	 SCS Total Energy          =    -172.9914240625540742 [Eh]
	-----------------------------------------------------------

  Dipole Moment: [D]
     X:    -1.1946      Y:    -2.1617      Z:    -0.0000     Total:     2.4698

*** Psi4 exiting successfully. Buy a developer a beer!
