                               Psi4 1.4a3.dev225

  ==> Input File <==

--------------------------------------------------------------------------
#psi4
#
memory 32 gb

molecule  {
0 1
  N       -0.0401140     1.4416700     0.0000000
  C       -0.0044747     0.1753821     0.0000000
  C        1.3400200    -0.5205790     0.0000000
  C       -1.2045230    -0.7597350     0.0000000
  H        2.1276800     0.2334830     0.0000000
  H        1.4494410    -1.1614480     0.8815750
  H        1.4494420    -1.1614490    -0.8815740
  H       -2.1385970    -0.1915910    -0.0000020
  H       -1.1893680    -1.4102220     0.8809740
  H       -1.1893660    -1.4102240    -0.8809720
  H       -1.0179430     1.7593080     0.0000000
units angstrom
no_reorient  #important for SAPT in psi4, default
symmetry c1  #important for SAPT in psi4, default
}

set PROPERTIES_ORIGIN ["COM"]
properties('MP2/aug-cc-pvtz', properties = ['dipole'])
--------------------------------------------------------------------------

    Molecular point group: c1
  Charge       = 0
  Multiplicity = 1
  Basis Set: AUG-CC-PVTZ
    Blend: AUG-CC-PVTZ
  Basis Set: (AUG-CC-PVTZ AUX)
    Blend: AUG-CC-PVTZ-JKFIT

    Orbital Energies [Eh]
    ---------------------

    Doubly Occupied:

       1A    -15.541102     2A    -11.286458     3A    -11.237104
       4A    -11.223435     5A     -1.212404     6A     -1.009352
       7A     -0.954605     8A     -0.741358     9A     -0.648657
      10A     -0.606293    11A     -0.602468    12A     -0.549888
      13A     -0.544476    14A     -0.515321    15A     -0.418033
      16A     -0.412356

  @DF-RHF Final Energy:  -172.18287519578857

   => Energetics <=

    Nuclear Repulsion Energy =            120.1100334469761322
    One-Electron Energy =                -469.5791945062214836
    Two-Electron Energy =                 177.2862858634568113
    Total Energy =                       -172.1828751957885686
  Basis Set: (AUG-CC-PVTZ AUX)
    Blend: AUG-CC-PVTZ-RI
    Molecular point group: c1

    Geometry (in Angstrom), charge = 0, multiplicity = 1:

       Center              X                  Y                   Z               Mass
    ------------   -----------------  -----------------  -----------------  -----------------
         N           -0.048839471011     1.379271336690    -0.000000017663    14.003074004430
         C           -0.013200171011     0.112983436690    -0.000000017663    12.000000000000
         C            1.331294528989    -0.582977663310    -0.000000017663    12.000000000000
         C           -1.213248471011    -0.822133663310    -0.000000017663    12.000000000000
         H            2.118954528989     0.171084336690    -0.000000017663     1.007825032230
         H            1.440715528989    -1.223846663310     0.881574982337     1.007825032230
         H            1.440716528989    -1.223847663310    -0.881574017663     1.007825032230
         H           -2.147322471011    -0.253989663310    -0.000002017663     1.007825032230
         H           -1.198093471011    -1.472620663310     0.880973982337     1.007825032230
         H           -1.198091471011    -1.472622663310    -0.880972017663     1.007825032230
         H           -1.026668471011     1.696909336690    -0.000000017663     1.007825032230

  Basis Set: AUG-CC-PVTZ
    Blend: AUG-CC-PVTZ
  Basis Set: (AUG-CC-PVTZ AUX)
    Blend: AUG-CC-PVTZ-JKFIT
	 Reference Energy          =    -172.1828751957885686 [Eh]
	 Singles Energy            =      -0.0000000000000000 [Eh]
	 Same-Spin Energy          =      -0.1771376238341488 [Eh]
	 Opposite-Spin Energy      =      -0.6262221496150395 [Eh]
	 Correlation Energy        =      -0.8033597734491884 [Eh]
	 Total Energy              =    -172.9862349692377563 [Eh]

	 ================> DF-SCS-MP2 Energies <==================
	-----------------------------------------------------------
	 SCS Same-Spin Scale       =       0.3333333333333333 [-]
	 SCS Opposite-Spin Scale   =       1.2000000000000000 [-]
	 SCS Same-Spin Energy      =      -0.0590458746113829 [Eh]
	 SCS Opposite-Spin Energy  =      -0.7514665795380474 [Eh]
	 SCS Correlation Energy    =      -0.8105124541494303 [Eh]
	 SCS Total Energy          =    -172.9933876499380005 [Eh]
	-----------------------------------------------------------

  Dipole Moment: [D]
     X:    -1.2203      Y:    -2.0946      Z:    -0.0000     Total:     2.4241

*** Psi4 exiting successfully. Buy a developer a beer!
