                               Psi4 1.3.2 release

  ==> Input File <==

--------------------------------------------------------------------------
#psi4
#
memory 32 gb

molecule  {
0 1
  N        0.0402460     1.4416600     0.0000620
  C        0.0151434     0.1310469    -0.0454370
  C       -1.3400130    -0.5204670     0.0000250
  C        1.2044310    -0.7598510     0.0000030
  H       -2.1277100     0.2335740    -0.0000130
  H       -1.4495710    -1.1615970    -0.8813460
  H       -1.4493400    -1.1611390     0.8817800
  H        2.1385520    -0.1918070    -0.0030740
  H        1.1876380    -1.4127410    -0.8791240
  H        1.1905740    -1.4078120     0.8828600
  H        1.0180780     1.7593200     0.0001080
units angstrom
no_reorient  #important for SAPT in psi4, default
symmetry c1  #important for SAPT in psi4, default
}

set PROPERTIES_ORIGIN ["COM"]
properties('MP2/aug-cc-pvtz', properties = ['dipole'])
--------------------------------------------------------------------------

    Molecular point group: c1
  Charge       = 0
  Multiplicity = 1
  Basis Set: AUG-CC-PVTZ
    Blend: AUG-CC-PVTZ
  Basis Set: (AUG-CC-PVTZ AUX)
    Blend: AUG-CC-PVTZ-JKFIT

    Orbital Energies [Eh]
    ---------------------

    Doubly Occupied:

       1A    -15.543791     2A    -11.291007     3A    -11.238250
       4A    -11.224952     5A     -1.195950     6A     -1.013684
       7A     -0.959707     8A     -0.740966     9A     -0.647957
      10A     -0.609723    11A     -0.605721    12A     -0.552302
      13A     -0.537208    14A     -0.518742    15A     -0.418401
      16A     -0.402750

  @DF-RHF Final Energy:  -172.17797059110509

   => Energetics <=

    Nuclear Repulsion Energy =            119.9367551612794074
    One-Electron Energy =                -469.2272329458195372
    Two-Electron Energy =                 177.1125071934350501
    Total Energy =                       -172.1779705911050939
  Basis Set: (AUG-CC-PVTZ AUX)
    Blend: AUG-CC-PVTZ-RI
    Molecular point group: c1

    Geometry (in Angstrom), charge = 0, multiplicity = 1:

       Center              X                  Y                   Z               Mass
    ------------   -----------------  -----------------  -----------------  -----------------
         N            0.046721842376     1.388589937393     0.009575844232    14.003074004430
         C            0.021619242376     0.077976837393    -0.035923155768    12.000000000000
         C           -1.333537157624    -0.573537062607     0.009538844232    12.000000000000
         C            1.210906842376    -0.812921062607     0.009516844232    12.000000000000
         H           -2.121234157624     0.180503937393     0.009500844232     1.007825032230
         H           -1.443095157624    -1.214667062607    -0.871832155768     1.007825032230
         H           -1.442864157624    -1.214209062607     0.891293844232     1.007825032230
         H            2.145027842376    -0.244877062607     0.006439844232     1.007825032230
         H            1.194113842376    -1.465811062607    -0.869610155768     1.007825032230
         H            1.197049842376    -1.460882062607     0.892373844232     1.007825032230
         H            1.024553842376     1.706249937393     0.009621844232     1.007825032230

  Basis Set: AUG-CC-PVTZ
    Blend: AUG-CC-PVTZ
  Basis Set: (AUG-CC-PVTZ AUX)
    Blend: AUG-CC-PVTZ-JKFIT
	 Reference Energy          =    -172.1779705911050939 [Eh]
	 Singles Energy            =      -0.0000000000000000 [Eh]
	 Same-Spin Energy          =      -0.1782045434555449 [Eh]
	 Opposite-Spin Energy      =      -0.6284931437044409 [Eh]
	 Correlation Energy        =      -0.8066976871599858 [Eh]
	 Total Energy              =    -172.9846682782650760 [Eh]

	 ================> DF-SCS-MP2 Energies <==================
	-----------------------------------------------------------
	 SCS Same-Spin Scale       =       0.3333333333333333 [-]
	 SCS Opposite-Spin Scale   =       1.2000000000000000 [-]
	 SCS Same-Spin Energy      =      -0.0594015144851816 [Eh]
	 SCS Opposite-Spin Energy  =      -0.7541917724453290 [Eh]
	 SCS Correlation Energy    =      -0.8135932869305106 [Eh]
	 SCS Total Energy          =    -172.9915638780356062 [Eh]
	-----------------------------------------------------------

  Dipole Moment: [D]
     X:     1.2427      Y:    -2.2198      Z:     0.0184     Total:     2.5441

*** Psi4 exiting successfully. Buy a developer a beer!
