                               Psi4 1.3.2 release

  ==> Input File <==

--------------------------------------------------------------------------
#psi4
#
memory 32 gb

molecule  {
0 1
  N        0.0402460     1.4416600     0.0000620
  C        0.0039250     0.1554150    -0.0002990
  C       -1.3400130    -0.5204670     0.0000250
  C        1.2044310    -0.7598510     0.0000030
  H       -2.1277100     0.2335740    -0.0000130
  H       -1.4495710    -1.1615970    -0.8813460
  H       -1.4493400    -1.1611390     0.8817800
  H        2.1385520    -0.1918070    -0.0030740
  H        1.1876380    -1.4127410    -0.8791240
  H        1.1905740    -1.4078120     0.8828600
  H        0.8278634     1.6975266     0.0000991
units angstrom
no_reorient  #important for SAPT in psi4, default
symmetry c1  #important for SAPT in psi4, default
}

set PROPERTIES_ORIGIN ["COM"]
properties('MP2/aug-cc-pvtz', properties = ['dipole'])
--------------------------------------------------------------------------

    Molecular point group: c1
  Charge       = 0
  Multiplicity = 1
  Basis Set: AUG-CC-PVTZ
    Blend: AUG-CC-PVTZ
  Basis Set: (AUG-CC-PVTZ AUX)
    Blend: AUG-CC-PVTZ-JKFIT

    Orbital Energies [Eh]
    ---------------------

    Doubly Occupied:

       1A    -15.515764     2A    -11.289751     3A    -11.238856
       4A    -11.222853     5A     -1.232281     6A     -1.026591
       7A     -0.958080     8A     -0.778768     9A     -0.661141
      10A     -0.608259    11A     -0.605003    12A     -0.551103
      13A     -0.544872    14A     -0.518371    15A     -0.421649
      16A     -0.412700

  @DF-RHF Final Energy:  -172.14252005932175

   => Energetics <=

    Nuclear Repulsion Energy =            121.1486544999867903
    One-Electron Energy =                -471.4102641386302821
    Two-Electron Energy =                 178.1190895793217521
    Total Energy =                       -172.1425200593217539
  Basis Set: (AUG-CC-PVTZ AUX)
    Blend: AUG-CC-PVTZ-RI
    Molecular point group: c1

    Geometry (in Angstrom), charge = 0, multiplicity = 1:

       Center              X                  Y                   Z               Mass
    ------------   -----------------  -----------------  -----------------  -----------------
         N            0.052441017560     1.384556482439     0.000082899131    14.003074004430
         C            0.016120017560     0.098311482439    -0.000278100869    12.000000000000
         C           -1.327817982440    -0.577570517561     0.000045899131    12.000000000000
         C            1.216626017560    -0.816954517561     0.000023899131    12.000000000000
         H           -2.115514982440     0.176470482439     0.000007899131     1.007825032230
         H           -1.437375982440    -1.218700517561    -0.881325100869     1.007825032230
         H           -1.437144982440    -1.218242517561     0.881800899131     1.007825032230
         H            2.150747017560    -0.248910517561    -0.003053100869     1.007825032230
         H            1.199833017560    -1.469844517561    -0.879103100869     1.007825032230
         H            1.202769017560    -1.464915517561     0.882880899131     1.007825032230
         H            0.840058417560     1.640423082439     0.000119999131     1.007825032230

  Basis Set: AUG-CC-PVTZ
    Blend: AUG-CC-PVTZ
  Basis Set: (AUG-CC-PVTZ AUX)
    Blend: AUG-CC-PVTZ-JKFIT
	 Reference Energy          =    -172.1425200593217539 [Eh]
	 Singles Energy            =      -0.0000000000000000 [Eh]
	 Same-Spin Energy          =      -0.1763964063521376 [Eh]
	 Opposite-Spin Energy      =      -0.6240038203473249 [Eh]
	 Correlation Energy        =      -0.8004002266994625 [Eh]
	 Total Energy              =    -172.9429202860212058 [Eh]

	 ================> DF-SCS-MP2 Energies <==================
	-----------------------------------------------------------
	 SCS Same-Spin Scale       =       0.3333333333333333 [-]
	 SCS Opposite-Spin Scale   =       1.2000000000000000 [-]
	 SCS Same-Spin Energy      =      -0.0587988021173792 [Eh]
	 SCS Opposite-Spin Energy  =      -0.7488045844167899 [Eh]
	 SCS Correlation Energy    =      -0.8076033865341691 [Eh]
	 SCS Total Energy          =    -172.9501234458559225 [Eh]
	-----------------------------------------------------------

  Dipole Moment: [D]
     X:     1.2500      Y:    -2.1938      Z:     0.0004     Total:     2.5250

*** Psi4 exiting successfully. Buy a developer a beer!
