                               Psi4 1.3.2 release

  ==> Input File <==

--------------------------------------------------------------------------
#psi4
#
memory 32 gb

molecule  {
0 1
  N        0.0402460     1.4416600     0.0000620
  C        0.0488364     0.1549310    -0.0003011
  C       -1.3400130    -0.5204670     0.0000250
  C        1.2044310    -0.7598510     0.0000030
  H       -2.1277100     0.2335740    -0.0000130
  H       -1.4495710    -1.1615970    -0.8813460
  H       -1.4493400    -1.1611390     0.8817800
  H        2.1385520    -0.1918070    -0.0030740
  H        1.1876380    -1.4127410    -0.8791240
  H        1.1905740    -1.4078120     0.8828600
  H        1.0180780     1.7593200     0.0001080
units angstrom
no_reorient  #important for SAPT in psi4, default
symmetry c1  #important for SAPT in psi4, default
}

set PROPERTIES_ORIGIN ["COM"]
properties('MP2/aug-cc-pvtz', properties = ['dipole'])
--------------------------------------------------------------------------

    Molecular point group: c1
  Charge       = 0
  Multiplicity = 1
  Basis Set: AUG-CC-PVTZ
    Blend: AUG-CC-PVTZ
  Basis Set: (AUG-CC-PVTZ AUX)
    Blend: AUG-CC-PVTZ-JKFIT

    Orbital Energies [Eh]
    ---------------------

    Doubly Occupied:

       1A    -15.543392     2A    -11.288576     3A    -11.238060
       4A    -11.223695     5A     -1.206250     6A     -1.014202
       7A     -0.954287     8A     -0.739560     9A     -0.649666
      10A     -0.608955    11A     -0.607983    12A     -0.549667
      13A     -0.538217    14A     -0.511003    15A     -0.418867
      16A     -0.411876

  @DF-RHF Final Energy:  -172.17945720732118

   => Energetics <=

    Nuclear Repulsion Energy =            120.0316529166201889
    One-Electron Energy =                -469.4137105823400589
    Two-Electron Energy =                 177.2026004583986776
    Total Energy =                       -172.1794572073211782
  Basis Set: (AUG-CC-PVTZ AUX)
    Blend: AUG-CC-PVTZ-RI
    Molecular point group: c1

    Geometry (in Angstrom), charge = 0, multiplicity = 1:

       Center              X                  Y                   Z               Mass
    ------------   -----------------  -----------------  -----------------  -----------------
         N            0.039635770863     1.383566803786     0.000083183585    14.003074004430
         C            0.048226170863     0.096837803786    -0.000279916415    12.000000000000
         C           -1.340623229137    -0.578560196214     0.000046183585    12.000000000000
         C            1.203820770863    -0.817944196214     0.000024183585    12.000000000000
         H           -2.128320229137     0.175480803786     0.000008183585     1.007825032230
         H           -1.450181229137    -1.219690196214    -0.881324816415     1.007825032230
         H           -1.449950229137    -1.219232196214     0.881801183585     1.007825032230
         H            2.137941770863    -0.249900196214    -0.003052816415     1.007825032230
         H            1.187027770863    -1.470834196214    -0.879102816415     1.007825032230
         H            1.189963770863    -1.465905196214     0.882881183585     1.007825032230
         H            1.017467770863     1.701226803786     0.000129183585     1.007825032230

  Basis Set: AUG-CC-PVTZ
    Blend: AUG-CC-PVTZ
  Basis Set: (AUG-CC-PVTZ AUX)
    Blend: AUG-CC-PVTZ-JKFIT
	 Reference Energy          =    -172.1794572073211782 [Eh]
	 Singles Energy            =      -0.0000000000000000 [Eh]
	 Same-Spin Energy          =      -0.1777260338711605 [Eh]
	 Opposite-Spin Energy      =      -0.6274754674069881 [Eh]
	 Correlation Energy        =      -0.8052015012781486 [Eh]
	 Total Energy              =    -172.9846587085993406 [Eh]

	 ================> DF-SCS-MP2 Energies <==================
	-----------------------------------------------------------
	 SCS Same-Spin Scale       =       0.3333333333333333 [-]
	 SCS Opposite-Spin Scale   =       1.2000000000000000 [-]
	 SCS Same-Spin Energy      =      -0.0592420112903868 [Eh]
	 SCS Opposite-Spin Energy  =      -0.7529705608883858 [Eh]
	 SCS Correlation Energy    =      -0.8122125721787726 [Eh]
	 SCS Total Energy          =    -172.9916697794999436 [Eh]
	-----------------------------------------------------------

  Dipole Moment: [D]
     X:     1.3445      Y:    -2.1520      Z:     0.0005     Total:     2.5375

*** Psi4 exiting successfully. Buy a developer a beer!
