                               Psi4 1.4a3.dev225

  ==> Input File <==

--------------------------------------------------------------------------
#psi4
#
memory 32 gb

molecule  {
0 1
  N       -0.0401140     1.4416700     0.0000000
  C       -0.0025053     0.1054098     0.0000000
  C        1.3400200    -0.5205790     0.0000000
  C       -1.2045230    -0.7597350     0.0000000
  H        2.1276800     0.2334830     0.0000000
  H        1.4494410    -1.1614480     0.8815750
  H        1.4494420    -1.1614490    -0.8815740
  H       -2.1385970    -0.1915910    -0.0000020
  H       -1.1893680    -1.4102220     0.8809740
  H       -1.1893660    -1.4102240    -0.8809720
  H       -1.0179430     1.7593080     0.0000000
units angstrom
no_reorient  #important for SAPT in psi4, default
symmetry c1  #important for SAPT in psi4, default
}

set PROPERTIES_ORIGIN ["COM"]
properties('MP2/aug-cc-pvtz', properties = ['dipole'])
--------------------------------------------------------------------------

    Molecular point group: c1
  Charge       = 0
  Multiplicity = 1
  Basis Set: AUG-CC-PVTZ
    Blend: AUG-CC-PVTZ
  Basis Set: (AUG-CC-PVTZ AUX)
    Blend: AUG-CC-PVTZ-JKFIT

    Orbital Energies [Eh]
    ---------------------

    Doubly Occupied:

       1A    -15.544063     2A    -11.293388     3A    -11.238754
       4A    -11.225836     5A     -1.187342     6A     -1.015272
       7A     -0.963947     8A     -0.741598     9A     -0.647355
      10A     -0.611991    11A     -0.605732    12A     -0.553964
      13A     -0.534967    14A     -0.524647    15A     -0.418328
      16A     -0.394240

  @DF-RHF Final Energy:  -172.17434004167603

   => Energetics <=

    Nuclear Repulsion Energy =            119.8922465489112739
    One-Electron Energy =                -469.1303247559948773
    Two-Electron Energy =                 177.0637381654075853
    Total Energy =                       -172.1743400416760323
  Basis Set: (AUG-CC-PVTZ AUX)
    Blend: AUG-CC-PVTZ-RI
    Molecular point group: c1

    Geometry (in Angstrom), charge = 0, multiplicity = 1:

       Center              X                  Y                   Z               Mass
    ------------   -----------------  -----------------  -----------------  -----------------
         N           -0.049253661176     1.393987411890    -0.000000017663    14.003074004430
         C           -0.011644961176     0.057727211890    -0.000000017663    12.000000000000
         C            1.330880338824    -0.568261588110    -0.000000017663    12.000000000000
         C           -1.213662661176    -0.807417588110    -0.000000017663    12.000000000000
         H            2.118540338824     0.185800411890    -0.000000017663     1.007825032230
         H            1.440301338824    -1.209130588110     0.881574982337     1.007825032230
         H            1.440302338824    -1.209131588110    -0.881574017663     1.007825032230
         H           -2.147736661176    -0.239273588110    -0.000002017663     1.007825032230
         H           -1.198507661176    -1.457904588110     0.880973982337     1.007825032230
         H           -1.198505661176    -1.457906588110    -0.880972017663     1.007825032230
         H           -1.027082661176     1.711625411890    -0.000000017663     1.007825032230

  Basis Set: AUG-CC-PVTZ
    Blend: AUG-CC-PVTZ
  Basis Set: (AUG-CC-PVTZ AUX)
    Blend: AUG-CC-PVTZ-JKFIT
	 Reference Energy          =    -172.1743400416760323 [Eh]
	 Singles Energy            =      -0.0000000000000000 [Eh]
	 Same-Spin Energy          =      -0.1788187942697164 [Eh]
	 Opposite-Spin Energy      =      -0.6296288867915598 [Eh]
	 Correlation Energy        =      -0.8084476810612762 [Eh]
	 Total Energy              =    -172.9827877227372994 [Eh]

	 ================> DF-SCS-MP2 Energies <==================
	-----------------------------------------------------------
	 SCS Same-Spin Scale       =       0.3333333333333333 [-]
	 SCS Opposite-Spin Scale   =       1.2000000000000000 [-]
	 SCS Same-Spin Energy      =      -0.0596062647565721 [Eh]
	 SCS Opposite-Spin Energy  =      -0.7555546641498717 [Eh]
	 SCS Correlation Energy    =      -0.8151609289064439 [Eh]
	 SCS Total Energy          =    -172.9895009705824691 [Eh]
	-----------------------------------------------------------

  Dipole Moment: [D]
     X:    -1.2032      Y:    -2.2949      Z:     0.0000     Total:     2.5912

*** Psi4 exiting successfully. Buy a developer a beer!
