                               Psi4 1.3.2 release

  ==> Input File <==

--------------------------------------------------------------------------
#psi4
#
memory 32 gb

molecule  {
0 1
  N       -0.0046654     1.4421440     0.0000417
  C        0.0039250     0.1554150    -0.0002990
  C       -1.3400130    -0.5204670     0.0000250
  C        1.2044310    -0.7598510     0.0000030
  H       -2.1277100     0.2335740    -0.0000130
  H       -1.4495710    -1.1615970    -0.8813460
  H       -1.4493400    -1.1611390     0.8817800
  H        2.1385520    -0.1918070    -0.0030740
  H        1.1876380    -1.4127410    -0.8791240
  H        1.1905740    -1.4078120     0.8828600
  H        1.0180780     1.7593200     0.0001080
units angstrom
no_reorient  #important for SAPT in psi4, default
symmetry c1  #important for SAPT in psi4, default
}

set PROPERTIES_ORIGIN ["COM"]
properties('MP2/aug-cc-pvtz', properties = ['dipole'])
--------------------------------------------------------------------------

    Molecular point group: c1
  Charge       = 0
  Multiplicity = 1
  Basis Set: AUG-CC-PVTZ
    Blend: AUG-CC-PVTZ
  Basis Set: (AUG-CC-PVTZ AUX)
    Blend: AUG-CC-PVTZ-JKFIT

    Orbital Energies [Eh]
    ---------------------

    Doubly Occupied:

       1A    -15.548359     2A    -11.288145     3A    -11.239663
       4A    -11.222472     5A     -1.203316     6A     -1.009855
       7A     -0.957177     8A     -0.732816     9A     -0.645749
      10A     -0.608326    11A     -0.603543    12A     -0.551059
      13A     -0.537088    14A     -0.517017    15A     -0.417794
      16A     -0.411653

  @DF-RHF Final Energy:  -172.17816465301365

   => Energetics <=

    Nuclear Repulsion Energy =            119.9260703531128058
    One-Electron Energy =                -469.2204103403935846
    Two-Electron Energy =                 177.1161753342670977
    Total Energy =                       -172.1781646530136527
  Basis Set: (AUG-CC-PVTZ AUX)
    Blend: AUG-CC-PVTZ-RI
    Molecular point group: c1

    Geometry (in Angstrom), charge = 0, multiplicity = 1:

       Center              X                  Y                   Z               Mass
    ------------   -----------------  -----------------  -----------------  -----------------
         N            0.015191922192     1.383830229615     0.000067423931    14.003074004430
         C            0.023782322192     0.097101229615    -0.000273276069    12.000000000000
         C           -1.320155677808    -0.578780770385     0.000050723931    12.000000000000
         C            1.224288322192    -0.818164770385     0.000028723931    12.000000000000
         H           -2.107852677808     0.175260229615     0.000012723931     1.007825032230
         H           -1.429713677808    -1.219910770385    -0.881320276069     1.007825032230
         H           -1.429482677808    -1.219452770385     0.881805723931     1.007825032230
         H            2.158409322192    -0.250120770385    -0.003048276069     1.007825032230
         H            1.207495322192    -1.471054770385    -0.879098276069     1.007825032230
         H            1.210431322192    -1.466125770385     0.882885723931     1.007825032230
         H            1.037935322192     1.701006229615     0.000133723931     1.007825032230

  Basis Set: AUG-CC-PVTZ
    Blend: AUG-CC-PVTZ
  Basis Set: (AUG-CC-PVTZ AUX)
    Blend: AUG-CC-PVTZ-JKFIT
	 Reference Energy          =    -172.1781646530136527 [Eh]
	 Singles Energy            =      -0.0000000000000000 [Eh]
	 Same-Spin Energy          =      -0.1780057180657371 [Eh]
	 Opposite-Spin Energy      =      -0.6282996690782592 [Eh]
	 Correlation Energy        =      -0.8063053871439962 [Eh]
	 Total Energy              =    -172.9844700401576461 [Eh]

	 ================> DF-SCS-MP2 Energies <==================
	-----------------------------------------------------------
	 SCS Same-Spin Scale       =       0.3333333333333333 [-]
	 SCS Opposite-Spin Scale   =       1.2000000000000000 [-]
	 SCS Same-Spin Energy      =      -0.0593352393552457 [Eh]
	 SCS Opposite-Spin Energy  =      -0.7539596028939110 [Eh]
	 SCS Correlation Energy    =      -0.8132948422491566 [Eh]
	 SCS Total Energy          =    -172.9914594952628022 [Eh]
	-----------------------------------------------------------

  Dipole Moment: [D]
     X:     1.2763      Y:    -2.1681      Z:     0.0005     Total:     2.5159

*** Psi4 exiting successfully. Buy a developer a beer!
