                               Psi4 1.3.2 release

  ==> Input File <==

--------------------------------------------------------------------------
#psi4
#
memory 32 gb

molecule  {
0 1
  N        0.0402460     1.4416600     0.0000620
  C       -0.0017204    -0.0445053    -0.0003551
  C       -1.3400130    -0.5204670     0.0000250
  C        1.2044310    -0.7598510     0.0000030
  H       -2.1277100     0.2335740    -0.0000130
  H       -1.4495710    -1.1615970    -0.8813460
  H       -1.4493400    -1.1611390     0.8817800
  H        2.1385520    -0.1918070    -0.0030740
  H        1.1876380    -1.4127410    -0.8791240
  H        1.1905740    -1.4078120     0.8828600
  H        1.0180780     1.7593200     0.0001080
units angstrom
no_reorient  #important for SAPT in psi4, default
symmetry c1  #important for SAPT in psi4, default
}

set PROPERTIES_ORIGIN ["COM"]
properties('MP2/aug-cc-pvtz', properties = ['dipole'])
--------------------------------------------------------------------------

    Molecular point group: c1
  Charge       = 0
  Multiplicity = 1
  Basis Set: AUG-CC-PVTZ
    Blend: AUG-CC-PVTZ
  Basis Set: (AUG-CC-PVTZ AUX)
    Blend: AUG-CC-PVTZ-JKFIT

    Orbital Energies [Eh]
    ---------------------

    Doubly Occupied:

       1A    -15.544328     2A    -11.308243     3A    -11.243088
       4A    -11.231879     5A     -1.159820     6A     -1.015548
       7A     -0.986866     8A     -0.746224     9A     -0.644660
      10A     -0.627344    11A     -0.614610    12A     -0.563519
      13A     -0.559706    14A     -0.503324    15A     -0.410440
      16A     -0.350814

  @DF-RHF Final Energy:  -172.11593348537789

   => Energetics <=

    Nuclear Repulsion Energy =            119.6693495989986786
    One-Electron Energy =                -468.5497362351894708
    Two-Electron Energy =                 176.7644531508128978
    Total Energy =                       -172.1159334853778944
  Basis Set: (AUG-CC-PVTZ AUX)
    Blend: AUG-CC-PVTZ-RI
    Molecular point group: c1

    Geometry (in Angstrom), charge = 0, multiplicity = 1:

       Center              X                  Y                   Z               Mass
    ------------   -----------------  -----------------  -----------------  -----------------
         N            0.050268516545     1.425510824325     0.000094540480    14.003074004430
         C            0.008302116545    -0.060654475675    -0.000322559520    12.000000000000
         C           -1.329990483455    -0.536616175675     0.000057540480    12.000000000000
         C            1.214453516545    -0.776000175675     0.000035540480    12.000000000000
         H           -2.117687483455     0.217424824325     0.000019540480     1.007825032230
         H           -1.439548483455    -1.177746175675    -0.881313459520     1.007825032230
         H           -1.439317483455    -1.177288175675     0.881812540480     1.007825032230
         H            2.148574516545    -0.207956175675    -0.003041459520     1.007825032230
         H            1.197660516545    -1.428890175675    -0.879091459520     1.007825032230
         H            1.200596516545    -1.423961175675     0.882892540480     1.007825032230
         H            1.028100516545     1.743170824325     0.000140540480     1.007825032230

  Basis Set: AUG-CC-PVTZ
    Blend: AUG-CC-PVTZ
  Basis Set: (AUG-CC-PVTZ AUX)
    Blend: AUG-CC-PVTZ-JKFIT
	 Reference Energy          =    -172.1159334853778944 [Eh]
	 Singles Energy            =      -0.0000000000000000 [Eh]
	 Same-Spin Energy          =      -0.1839970041527931 [Eh]
	 Opposite-Spin Energy      =      -0.6392038589704105 [Eh]
	 Correlation Energy        =      -0.8232008631232036 [Eh]
	 Total Energy              =    -172.9391343485010850 [Eh]

	 ================> DF-SCS-MP2 Energies <==================
	-----------------------------------------------------------
	 SCS Same-Spin Scale       =       0.3333333333333333 [-]
	 SCS Opposite-Spin Scale   =       1.2000000000000000 [-]
	 SCS Same-Spin Energy      =      -0.0613323347175977 [Eh]
	 SCS Opposite-Spin Energy  =      -0.7670446307644926 [Eh]
	 SCS Correlation Energy    =      -0.8283769654820903 [Eh]
	 SCS Total Energy          =    -172.9443104508599731 [Eh]
	-----------------------------------------------------------

  Dipole Moment: [D]
     X:     1.1771      Y:    -2.5654      Z:     0.0008     Total:     2.8225

*** Psi4 exiting successfully. Buy a developer a beer!
