                               Psi4 1.3.2 release

  ==> Input File <==

--------------------------------------------------------------------------
#psi4
#
memory 32 gb

molecule  {
0 1
  N        0.0402460     1.4416600     0.0000620
  C        0.0039250     0.1554150    -0.0002990
  C       -1.5186899    -0.6103257     0.0000681
  C        1.2044310    -0.7598510     0.0000030
  H       -2.1277100     0.2335740    -0.0000130
  H       -1.4495710    -1.1615970    -0.8813460
  H       -1.4493400    -1.1611390     0.8817800
  H        2.1385520    -0.1918070    -0.0030740
  H        1.1876380    -1.4127410    -0.8791240
  H        1.1905740    -1.4078120     0.8828600
  H        1.0180780     1.7593200     0.0001080
units angstrom
no_reorient  #important for SAPT in psi4, default
symmetry c1  #important for SAPT in psi4, default
}

set PROPERTIES_ORIGIN ["COM"]
properties('MP2/aug-cc-pvtz', properties = ['dipole'])
--------------------------------------------------------------------------

    Molecular point group: c1
  Charge       = 0
  Multiplicity = 1
  Basis Set: AUG-CC-PVTZ
    Blend: AUG-CC-PVTZ
  Basis Set: (AUG-CC-PVTZ AUX)
    Blend: AUG-CC-PVTZ-JKFIT

    Orbital Energies [Eh]
    ---------------------

    Doubly Occupied:

       1A    -15.542945     2A    -11.295302     3A    -11.238834
       4A    -11.223676     5A     -1.197018     6A     -1.001776
       7A     -0.956861     8A     -0.733964     9A     -0.644212
      10A     -0.613804    11A     -0.597890    12A     -0.570162
      13A     -0.569861    14A     -0.487378    15A     -0.415321
      16A     -0.396601

  @DF-RHF Final Energy:  -172.15459429789152

   => Energetics <=

    Nuclear Repulsion Energy =            117.6786531125269022
    One-Electron Energy =                -464.6952852064827653
    Two-Electron Energy =                 174.8620377960643566
    Total Energy =                       -172.1545942978915207
  Basis Set: (AUG-CC-PVTZ AUX)
    Blend: AUG-CC-PVTZ-RI
    Molecular point group: c1

    Geometry (in Angstrom), charge = 0, multiplicity = 1:

       Center              X                  Y                   Z               Mass
    ------------   -----------------  -----------------  -----------------  -----------------
         N            0.086659267826     1.402363453405     0.000073677443    14.003074004430
         C            0.050338267826     0.116118453405    -0.000287322557    12.000000000000
         C           -1.472276632174    -0.649622246595     0.000079777443    12.000000000000
         C            1.250844267826    -0.799147546595     0.000014677443    12.000000000000
         H           -2.081296732174     0.194277453405    -0.000001322557     1.007825032230
         H           -1.403157732174    -1.200893546595    -0.881334322557     1.007825032230
         H           -1.402926732174    -1.200435546595     0.881791677443     1.007825032230
         H            2.184965267826    -0.231103546595    -0.003062322557     1.007825032230
         H            1.234051267826    -1.452037546595    -0.879112322557     1.007825032230
         H            1.236987267826    -1.447108546595     0.882871677443     1.007825032230
         H            1.064491267826     1.720023453405     0.000119677443     1.007825032230

  Basis Set: AUG-CC-PVTZ
    Blend: AUG-CC-PVTZ
  Basis Set: (AUG-CC-PVTZ AUX)
    Blend: AUG-CC-PVTZ-JKFIT
	 Reference Energy          =    -172.1545942978915207 [Eh]
	 Singles Energy            =      -0.0000000000000000 [Eh]
	 Same-Spin Energy          =      -0.1775065609008393 [Eh]
	 Opposite-Spin Energy      =      -0.6282514449212896 [Eh]
	 Correlation Energy        =      -0.8057580058221290 [Eh]
	 Total Energy              =    -172.9603523037136483 [Eh]

	 ================> DF-SCS-MP2 Energies <==================
	-----------------------------------------------------------
	 SCS Same-Spin Scale       =       0.3333333333333333 [-]
	 SCS Opposite-Spin Scale   =       1.2000000000000000 [-]
	 SCS Same-Spin Energy      =      -0.0591688536336131 [Eh]
	 SCS Opposite-Spin Energy  =      -0.7539017339055475 [Eh]
	 SCS Correlation Energy    =      -0.8130705875391606 [Eh]
	 SCS Total Energy          =    -172.9676648854306791 [Eh]
	-----------------------------------------------------------

  Dipole Moment: [D]
     X:     1.4122      Y:    -2.0539      Z:     0.0004     Total:     2.4926

*** Psi4 exiting successfully. Buy a developer a beer!
