                               Psi4 1.3.2 release

  ==> Input File <==

--------------------------------------------------------------------------
#psi4
#
memory 32 gb

molecule  {
0 1
  N        0.0402460     1.4416600     0.0000620
  C        0.0039250     0.1554150    -0.0002990
  C       -1.2506746    -0.4755377     0.0000035
  C        1.2044310    -0.7598510     0.0000030
  H       -2.1277100     0.2335740    -0.0000130
  H       -1.4495710    -1.1615970    -0.8813460
  H       -1.4493400    -1.1611390     0.8817800
  H        2.1385520    -0.1918070    -0.0030740
  H        1.1876380    -1.4127410    -0.8791240
  H        1.1905740    -1.4078120     0.8828600
  H        1.0180780     1.7593200     0.0001080
units angstrom
no_reorient  #important for SAPT in psi4, default
symmetry c1  #important for SAPT in psi4, default
}

set PROPERTIES_ORIGIN ["COM"]
properties('MP2/aug-cc-pvtz', properties = ['dipole'])
--------------------------------------------------------------------------

    Molecular point group: c1
  Charge       = 0
  Multiplicity = 1
  Basis Set: AUG-CC-PVTZ
    Blend: AUG-CC-PVTZ
  Basis Set: (AUG-CC-PVTZ AUX)
    Blend: AUG-CC-PVTZ-JKFIT

    Orbital Energies [Eh]
    ---------------------

    Doubly Occupied:

       1A    -15.541926     2A    -11.282746     3A    -11.236978
       4A    -11.228596     5A     -1.211291     6A     -1.019784
       7A     -0.958906     8A     -0.745582     9A     -0.652534
      10A     -0.609139    11A     -0.607829    12A     -0.545300
      13A     -0.539783    14A     -0.508053    15A     -0.419250
      16A     -0.406153

  @DF-RHF Final Energy:  -172.16973379903797

   => Energetics <=

    Nuclear Repulsion Energy =            121.3572039215156622
    One-Electron Energy =                -472.0261813229292898
    Two-Electron Energy =                 178.4992436023756284
    Total Energy =                       -172.1697337990379708
  Basis Set: (AUG-CC-PVTZ AUX)
    Blend: AUG-CC-PVTZ-RI
    Molecular point group: c1

    Geometry (in Angstrom), charge = 0, multiplicity = 1:

       Center              X                  Y                   Z               Mass
    ------------   -----------------  -----------------  -----------------  -----------------
         N            0.030292201009     1.374015802349     0.000087263655    14.003074004430
         C           -0.006028798991     0.087770802349    -0.000273736345    12.000000000000
         C           -1.260628398991    -0.543181897651     0.000028763655    12.000000000000
         C            1.194477201009    -0.827495197651     0.000028263655    12.000000000000
         H           -2.137663798991     0.165929802349     0.000012263655     1.007825032230
         H           -1.459524798991    -1.229241197651    -0.881320736345     1.007825032230
         H           -1.459293798991    -1.228783197651     0.881805263655     1.007825032230
         H            2.128598201009    -0.259451197651    -0.003048736345     1.007825032230
         H            1.177684201009    -1.480385197651    -0.879098736345     1.007825032230
         H            1.180620201009    -1.475456197651     0.882885263655     1.007825032230
         H            1.008124201009     1.691675802349     0.000133263655     1.007825032230

  Basis Set: AUG-CC-PVTZ
    Blend: AUG-CC-PVTZ
  Basis Set: (AUG-CC-PVTZ AUX)
    Blend: AUG-CC-PVTZ-JKFIT
	 Reference Energy          =    -172.1697337990379708 [Eh]
	 Singles Energy            =      -0.0000000000000000 [Eh]
	 Same-Spin Energy          =      -0.1787535591106280 [Eh]
	 Opposite-Spin Energy      =      -0.6286120414458660 [Eh]
	 Correlation Energy        =      -0.8073656005564940 [Eh]
	 Total Energy              =    -172.9770993995944650 [Eh]

	 ================> DF-SCS-MP2 Energies <==================
	-----------------------------------------------------------
	 SCS Same-Spin Scale       =       0.3333333333333333 [-]
	 SCS Opposite-Spin Scale   =       1.2000000000000000 [-]
	 SCS Same-Spin Energy      =      -0.0595845197035427 [Eh]
	 SCS Opposite-Spin Energy  =      -0.7543344497350392 [Eh]
	 SCS Correlation Energy    =      -0.8139189694385818 [Eh]
	 SCS Total Energy          =    -172.9836527684765599 [Eh]
	-----------------------------------------------------------

  Dipole Moment: [D]
     X:     1.1236      Y:    -2.2021      Z:     0.0004     Total:     2.4722

*** Psi4 exiting successfully. Buy a developer a beer!
