                               Psi4 1.3.2 release

  ==> Input File <==

--------------------------------------------------------------------------
#psi4
#
memory 32 gb

molecule  {
0 1
  N        0.0402460     1.4416600     0.0000620
  C        0.0011023     0.0554548    -0.0003271
  C       -1.3400130    -0.5204670     0.0000250
  C        1.2044310    -0.7598510     0.0000030
  H       -2.1277100     0.2335740    -0.0000130
  H       -1.4495710    -1.1615970    -0.8813460
  H       -1.4493400    -1.1611390     0.8817800
  H        2.1385520    -0.1918070    -0.0030740
  H        1.1876380    -1.4127410    -0.8791240
  H        1.1905740    -1.4078120     0.8828600
  H        1.0180780     1.7593200     0.0001080
units angstrom
no_reorient  #important for SAPT in psi4, default
symmetry c1  #important for SAPT in psi4, default
}

set PROPERTIES_ORIGIN ["COM"]
properties('MP2/aug-cc-pvtz', properties = ['dipole'])
--------------------------------------------------------------------------

    Molecular point group: c1
  Charge       = 0
  Multiplicity = 1
  Basis Set: AUG-CC-PVTZ
    Blend: AUG-CC-PVTZ
  Basis Set: (AUG-CC-PVTZ AUX)
    Blend: AUG-CC-PVTZ-JKFIT

    Orbital Energies [Eh]
    ---------------------

    Doubly Occupied:

       1A    -15.545142     2A    -11.298329     3A    -11.239990
       4A    -11.227638     5A     -1.174097     6A     -1.017479
       7A     -0.971143     8A     -0.742655     9A     -0.646274
      10A     -0.616662    11A     -0.608318    12A     -0.556986
      13A     -0.538094    14A     -0.522662    15A     -0.418472
      16A     -0.378661

  @DF-RHF Final Energy:  -172.16007720373273

   => Energetics <=

    Nuclear Repulsion Energy =            119.7882392876175572
    One-Electron Energy =                -468.8914339753856098
    Two-Electron Energy =                 176.9431174840353265
    Total Energy =                       -172.1600772037327260
  Basis Set: (AUG-CC-PVTZ AUX)
    Blend: AUG-CC-PVTZ-RI
    Molecular point group: c1

    Geometry (in Angstrom), charge = 0, multiplicity = 1:

       Center              X                  Y                   Z               Mass
    ------------   -----------------  -----------------  -----------------  -----------------
         N            0.049674866408     1.404487928857     0.000088651720    14.003074004430
         C            0.010531166408     0.018282728857    -0.000300448280    12.000000000000
         C           -1.330584133592    -0.557639071143     0.000051651720    12.000000000000
         C            1.213859866408    -0.797023071143     0.000029651720    12.000000000000
         H           -2.118281133592     0.196401928857     0.000013651720     1.007825032230
         H           -1.440142133592    -1.198769071143    -0.881319348280     1.007825032230
         H           -1.439911133592    -1.198311071143     0.881806651720     1.007825032230
         H            2.147980866408    -0.228979071143    -0.003047348280     1.007825032230
         H            1.197066866408    -1.449913071143    -0.879097348280     1.007825032230
         H            1.200002866408    -1.444984071143     0.882886651720     1.007825032230
         H            1.027506866408     1.722147928857     0.000134651720     1.007825032230

  Basis Set: AUG-CC-PVTZ
    Blend: AUG-CC-PVTZ
  Basis Set: (AUG-CC-PVTZ AUX)
    Blend: AUG-CC-PVTZ-JKFIT
	 Reference Energy          =    -172.1600772037327260 [Eh]
	 Singles Energy            =      -0.0000000000000000 [Eh]
	 Same-Spin Energy          =      -0.1803263392139765 [Eh]
	 Opposite-Spin Energy      =      -0.6325175580712405 [Eh]
	 Correlation Energy        =      -0.8128438972852170 [Eh]
	 Total Energy              =    -172.9729211010179313 [Eh]

	 ================> DF-SCS-MP2 Energies <==================
	-----------------------------------------------------------
	 SCS Same-Spin Scale       =       0.3333333333333333 [-]
	 SCS Opposite-Spin Scale   =       1.2000000000000000 [-]
	 SCS Same-Spin Energy      =      -0.0601087797379922 [Eh]
	 SCS Opposite-Spin Energy  =      -0.7590210696854887 [Eh]
	 SCS Correlation Energy    =      -0.8191298494234809 [Eh]
	 SCS Total Energy          =    -172.9792070531562160 [Eh]
	-----------------------------------------------------------

  Dipole Moment: [D]
     X:     1.1927      Y:    -2.4095      Z:     0.0006     Total:     2.6886

*** Psi4 exiting successfully. Buy a developer a beer!
