                               Psi4 1.4a3.dev225

  ==> Input File <==

--------------------------------------------------------------------------
#psi4
#
memory 32 gb

molecule  {
0 1
  N       -0.0401140     1.4416700     0.0000000
  C       -0.0039120     0.1553900     0.0000000
  C        1.3400200    -0.5205790     0.0000000
  C       -1.2045230    -0.7597350     0.0000000
  H        2.1276800     0.2334830     0.0000000
  H        1.4494410    -1.1614480     0.8815750
  H        1.4494420    -1.1614490    -0.8815740
  H       -2.1385970    -0.1915910    -0.0000020
  H       -1.1893680    -1.4102220     0.8809740
  H       -1.1893660    -1.4102240    -0.8809720
  H       -1.0369646     1.7654870     0.0000000
units angstrom
no_reorient  #important for SAPT in psi4, default
symmetry c1  #important for SAPT in psi4, default
}

set PROPERTIES_ORIGIN ["COM"]
properties('MP2/aug-cc-pvtz', properties = ['dipole'])
--------------------------------------------------------------------------

    Molecular point group: c1
  Charge       = 0
  Multiplicity = 1
  Basis Set: AUG-CC-PVTZ
    Blend: AUG-CC-PVTZ
  Basis Set: (AUG-CC-PVTZ AUX)
    Blend: AUG-CC-PVTZ-JKFIT

    Orbital Energies [Eh]
    ---------------------

    Doubly Occupied:

       1A    -15.544527     2A    -11.288404     3A    -11.237507
       4A    -11.224351     5A     -1.202830     6A     -1.010258
       7A     -0.957163     8A     -0.738288     9A     -0.646695
      10A     -0.607838    11A     -0.603207    12A     -0.551098
      13A     -0.541314    14A     -0.517773    15A     -0.414013
      16A     -0.410958

  @DF-RHF Final Energy:  -172.18091593871273

   => Energetics <=

    Nuclear Repulsion Energy =            119.9463847745730192
    One-Electron Energy =                -469.2621521550623811
    Two-Electron Energy =                 177.1348514417766467
    Total Energy =                       -172.1809159387127295
  Basis Set: (AUG-CC-PVTZ AUX)
    Blend: AUG-CC-PVTZ-RI
    Molecular point group: c1

    Geometry (in Angstrom), charge = 0, multiplicity = 1:

       Center              X                  Y                   Z               Mass
    ------------   -----------------  -----------------  -----------------  -----------------
         N           -0.048621831461     1.383366791606    -0.000000017663    14.003074004430
         C           -0.012419831461     0.097086791606    -0.000000017663    12.000000000000
         C            1.331512168539    -0.578882208394    -0.000000017663    12.000000000000
         C           -1.213030831461    -0.818038208394    -0.000000017663    12.000000000000
         H            2.119172168539     0.175179791606    -0.000000017663     1.007825032230
         H            1.440933168539    -1.219751208394     0.881574982337     1.007825032230
         H            1.440934168539    -1.219752208394    -0.881574017663     1.007825032230
         H           -2.147104831461    -0.249894208394    -0.000002017663     1.007825032230
         H           -1.197875831461    -1.468525208394     0.880973982337     1.007825032230
         H           -1.197873831461    -1.468527208394    -0.880972017663     1.007825032230
         H           -1.045472431461     1.707183791606    -0.000000017663     1.007825032230

  Basis Set: AUG-CC-PVTZ
    Blend: AUG-CC-PVTZ
  Basis Set: (AUG-CC-PVTZ AUX)
    Blend: AUG-CC-PVTZ-JKFIT
	 Reference Energy          =    -172.1809159387127295 [Eh]
	 Singles Energy            =      -0.0000000000000000 [Eh]
	 Same-Spin Energy          =      -0.1776952798813309 [Eh]
	 Opposite-Spin Energy      =      -0.6275134261238254 [Eh]
	 Correlation Energy        =      -0.8052087060051563 [Eh]
	 Total Energy              =    -172.9861246447178758 [Eh]

	 ================> DF-SCS-MP2 Energies <==================
	-----------------------------------------------------------
	 SCS Same-Spin Scale       =       0.3333333333333333 [-]
	 SCS Opposite-Spin Scale   =       1.2000000000000000 [-]
	 SCS Same-Spin Energy      =      -0.0592317599604436 [Eh]
	 SCS Opposite-Spin Energy  =      -0.7530161113485905 [Eh]
	 SCS Correlation Energy    =      -0.8122478713090341 [Eh]
	 SCS Total Energy          =    -172.9931638100217697 [Eh]
	-----------------------------------------------------------

  Dipole Moment: [D]
     X:    -1.2075      Y:    -2.1580      Z:    -0.0000     Total:     2.4729

*** Psi4 exiting successfully. Buy a developer a beer!
