                               Psi4 1.3.2 release

  ==> Input File <==

--------------------------------------------------------------------------
#psi4
#
memory 32 gb

molecule  {
0 1
  N        0.0402460     1.4416600     0.0000620
  C       -0.0022991     0.1672921     0.0222736
  C       -1.3400130    -0.5204670     0.0000250
  C        1.2044310    -0.7598510     0.0000030
  H       -2.1277100     0.2335740    -0.0000130
  H       -1.4495710    -1.1615970    -0.8813460
  H       -1.4493400    -1.1611390     0.8817800
  H        2.1385520    -0.1918070    -0.0030740
  H        1.1876380    -1.4127410    -0.8791240
  H        1.1905740    -1.4078120     0.8828600
  H        1.0180780     1.7593200     0.0001080
units angstrom
no_reorient  #important for SAPT in psi4, default
symmetry c1  #important for SAPT in psi4, default
}

set PROPERTIES_ORIGIN ["COM"]
properties('MP2/aug-cc-pvtz', properties = ['dipole'])
--------------------------------------------------------------------------

    Molecular point group: c1
  Charge       = 0
  Multiplicity = 1
  Basis Set: AUG-CC-PVTZ
    Blend: AUG-CC-PVTZ
  Basis Set: (AUG-CC-PVTZ AUX)
    Blend: AUG-CC-PVTZ-JKFIT

    Orbital Energies [Eh]
    ---------------------

    Doubly Occupied:

       1A    -15.541442     2A    -11.287332     3A    -11.237207
       4A    -11.223796     5A     -1.208779     6A     -1.010086
       7A     -0.955815     8A     -0.741591     9A     -0.648365
      10A     -0.606793    11A     -0.602180    12A     -0.550571
      13A     -0.544128    14A     -0.516781    15A     -0.415066
      16A     -0.412540

  @DF-RHF Final Energy:  -172.18244185034825

   => Energetics <=

    Nuclear Repulsion Energy =            120.0770427668577156
    One-Electron Energy =                -469.5140277863710025
    Two-Electron Energy =                 177.2545431691650037
    Total Energy =                       -172.1824418503482548
  Basis Set: (AUG-CC-PVTZ AUX)
    Blend: AUG-CC-PVTZ-RI
    Molecular point group: c1

    Geometry (in Angstrom), charge = 0, multiplicity = 1:

       Center              X                  Y                   Z               Mass
    ------------   -----------------  -----------------  -----------------  -----------------
         N            0.050390224602     1.380967105375    -0.004664566350    14.003074004430
         C            0.007845124602     0.106599205375     0.017547033650    12.000000000000
         C           -1.329868775398    -0.581159894625    -0.004701566350    12.000000000000
         C            1.214575224602    -0.820543894625    -0.004723566350    12.000000000000
         H           -2.117565775398     0.172881105375    -0.004739566350     1.007825032230
         H           -1.439426775398    -1.222289894625    -0.886072566350     1.007825032230
         H           -1.439195775398    -1.221831894625     0.877053433650     1.007825032230
         H            2.148696224602    -0.252499894625    -0.007800566350     1.007825032230
         H            1.197782224602    -1.473433894625    -0.883850566350     1.007825032230
         H            1.200718224602    -1.468504894625     0.878133433650     1.007825032230
         H            1.028222224602     1.698627105375    -0.004618566350     1.007825032230

  Basis Set: AUG-CC-PVTZ
    Blend: AUG-CC-PVTZ
  Basis Set: (AUG-CC-PVTZ AUX)
    Blend: AUG-CC-PVTZ-JKFIT
	 Reference Energy          =    -172.1824418503482548 [Eh]
	 Singles Energy            =      -0.0000000000000000 [Eh]
	 Same-Spin Energy          =      -0.1773121101209551 [Eh]
	 Opposite-Spin Energy      =      -0.6265953870141021 [Eh]
	 Correlation Energy        =      -0.8039074971350573 [Eh]
	 Total Energy              =    -172.9863493474833263 [Eh]

	 ================> DF-SCS-MP2 Energies <==================
	-----------------------------------------------------------
	 SCS Same-Spin Scale       =       0.3333333333333333 [-]
	 SCS Opposite-Spin Scale   =       1.2000000000000000 [-]
	 SCS Same-Spin Energy      =      -0.0591040367069850 [Eh]
	 SCS Opposite-Spin Energy  =      -0.7519144644169226 [Eh]
	 SCS Correlation Energy    =      -0.8110185011239076 [Eh]
	 SCS Total Energy          =    -172.9934603514721516 [Eh]
	-----------------------------------------------------------

  Dipole Moment: [D]
     X:     1.1984      Y:    -2.1199      Z:    -0.0068     Total:     2.4352

*** Psi4 exiting successfully. Buy a developer a beer!
