                               Psi4 1.3.2 release

  ==> Input File <==

--------------------------------------------------------------------------
#psi4
#
memory 32 gb

molecule  {
0 1
  N        0.0402460     1.4416600     0.0000620
  C        0.0039250     0.1554150    -0.0002990
  C       -1.3280125    -0.5438190     0.0000335
  C        1.2044310    -0.7598510     0.0000030
  H       -2.1277100     0.2335740    -0.0000130
  H       -1.4495710    -1.1615970    -0.8813460
  H       -1.4493400    -1.1611390     0.8817800
  H        2.1385520    -0.1918070    -0.0030740
  H        1.1876380    -1.4127410    -0.8791240
  H        1.1905740    -1.4078120     0.8828600
  H        1.0180780     1.7593200     0.0001080
units angstrom
no_reorient  #important for SAPT in psi4, default
symmetry c1  #important for SAPT in psi4, default
}

set PROPERTIES_ORIGIN ["COM"]
properties('MP2/aug-cc-pvtz', properties = ['dipole'])
--------------------------------------------------------------------------

    Molecular point group: c1
  Charge       = 0
  Multiplicity = 1
  Basis Set: AUG-CC-PVTZ
    Blend: AUG-CC-PVTZ
  Basis Set: (AUG-CC-PVTZ AUX)
    Blend: AUG-CC-PVTZ-JKFIT

    Orbital Energies [Eh]
    ---------------------

    Doubly Occupied:

       1A    -15.542790     2A    -11.288687     3A    -11.236913
       4A    -11.224058     5A     -1.204515     6A     -1.012463
       7A     -0.956418     8A     -0.741766     9A     -0.646824
      10A     -0.610467    11A     -0.603074    12A     -0.555017
      13A     -0.541205    14A     -0.512010    15A     -0.414731
      16A     -0.412035

  @DF-RHF Final Energy:  -172.18109749143133

   => Energetics <=

    Nuclear Repulsion Energy =            120.0488511731164039
    One-Electron Energy =                -469.4539505444981842
    Two-Electron Energy =                 177.2240018799504355
    Total Energy =                       -172.1810974914313306
  Basis Set: (AUG-CC-PVTZ AUX)
    Blend: AUG-CC-PVTZ-RI
    Molecular point group: c1

    Geometry (in Angstrom), charge = 0, multiplicity = 1:

       Center              X                  Y                   Z               Mass
    ------------   -----------------  -----------------  -----------------  -----------------
         N            0.046557356680     1.388376238486     0.000080954269    14.003074004430
         C            0.010236356680     0.102131238486    -0.000280045731    12.000000000000
         C           -1.321701143320    -0.597102761514     0.000052454269    12.000000000000
         C            1.210742356680    -0.813134761514     0.000021954269    12.000000000000
         H           -2.121398643320     0.180290238486     0.000005954269     1.007825032230
         H           -1.443259643320    -1.214880761514    -0.881327045731     1.007825032230
         H           -1.443028643320    -1.214422761514     0.881798954269     1.007825032230
         H            2.144863356680    -0.245090761514    -0.003055045731     1.007825032230
         H            1.193949356680    -1.466024761514    -0.879105045731     1.007825032230
         H            1.196885356680    -1.461095761514     0.882878954269     1.007825032230
         H            1.024389356680     1.706036238486     0.000126954269     1.007825032230

  Basis Set: AUG-CC-PVTZ
    Blend: AUG-CC-PVTZ
  Basis Set: (AUG-CC-PVTZ AUX)
    Blend: AUG-CC-PVTZ-JKFIT
	 Reference Energy          =    -172.1810974914313306 [Eh]
	 Singles Energy            =      -0.0000000000000000 [Eh]
	 Same-Spin Energy          =      -0.1776024902520145 [Eh]
	 Opposite-Spin Energy      =      -0.6272173650551474 [Eh]
	 Correlation Energy        =      -0.8048198553071619 [Eh]
	 Total Energy              =    -172.9859173467384892 [Eh]

	 ================> DF-SCS-MP2 Energies <==================
	-----------------------------------------------------------
	 SCS Same-Spin Scale       =       0.3333333333333333 [-]
	 SCS Opposite-Spin Scale   =       1.2000000000000000 [-]
	 SCS Same-Spin Energy      =      -0.0592008300840048 [Eh]
	 SCS Opposite-Spin Energy  =      -0.7526608380661768 [Eh]
	 SCS Correlation Energy    =      -0.8118616681501816 [Eh]
	 SCS Total Energy          =    -172.9929591595815168 [Eh]
	-----------------------------------------------------------

  Dipole Moment: [D]
     X:     1.2150      Y:    -2.1529      Z:     0.0004     Total:     2.4721

*** Psi4 exiting successfully. Buy a developer a beer!
