                               Psi4 1.3.2 release

  ==> Input File <==

--------------------------------------------------------------------------
#psi4
#
memory 32 gb

molecule  {
0 1
  N        0.0402460     1.4416600     0.0000620
  C        0.0039250     0.1554150    -0.0002990
  C       -1.2895921    -0.6125690     0.0000586
  C        1.2044310    -0.7598510     0.0000030
  H       -2.1277100     0.2335740    -0.0000130
  H       -1.4495710    -1.1615970    -0.8813460
  H       -1.4493400    -1.1611390     0.8817800
  H        2.1385520    -0.1918070    -0.0030740
  H        1.1876380    -1.4127410    -0.8791240
  H        1.1905740    -1.4078120     0.8828600
  H        1.0180780     1.7593200     0.0001080
units angstrom
no_reorient  #important for SAPT in psi4, default
symmetry c1  #important for SAPT in psi4, default
}

set PROPERTIES_ORIGIN ["COM"]
properties('MP2/aug-cc-pvtz', properties = ['dipole'])
--------------------------------------------------------------------------

    Molecular point group: c1
  Charge       = 0
  Multiplicity = 1
  Basis Set: AUG-CC-PVTZ
    Blend: AUG-CC-PVTZ
  Basis Set: (AUG-CC-PVTZ AUX)
    Blend: AUG-CC-PVTZ-JKFIT

    Orbital Energies [Eh]
    ---------------------

    Doubly Occupied:

       1A    -15.545047     2A    -11.290048     3A    -11.235218
       4A    -11.225274     5A     -1.204870     6A     -1.016324
       7A     -0.954705     8A     -0.744373     9A     -0.643606
      10A     -0.621098    11A     -0.603562    12A     -0.564284
      13A     -0.541637    14A     -0.490138    15A     -0.414891
      16A     -0.414367

  @DF-RHF Final Energy:  -172.17023702509601

   => Energetics <=

    Nuclear Repulsion Energy =            120.0914237886565985
    One-Electron Energy =                -469.5044376230483181
    Two-Electron Energy =                 177.2427768092957194
    Total Energy =                       -172.1702370250960143
  Basis Set: (AUG-CC-PVTZ AUX)
    Blend: AUG-CC-PVTZ-RI
    Molecular point group: c1

    Geometry (in Angstrom), charge = 0, multiplicity = 1:

       Center              X                  Y                   Z               Mass
    ------------   -----------------  -----------------  -----------------  -----------------
         N            0.038477052109     1.402835248266     0.000075675416    14.003074004430
         C            0.002156052109     0.116590248266    -0.000285324584    12.000000000000
         C           -1.291361047891    -0.651393751734     0.000072275416    12.000000000000
         C            1.202662052109    -0.798675751734     0.000016675416    12.000000000000
         H           -2.129478947891     0.194749248266     0.000000675416     1.007825032230
         H           -1.451339947891    -1.200421751734    -0.881332324584     1.007825032230
         H           -1.451108947891    -1.199963751734     0.881793675416     1.007825032230
         H            2.136783052109    -0.230631751734    -0.003060324584     1.007825032230
         H            1.185869052109    -1.451565751734    -0.879110324584     1.007825032230
         H            1.188805052109    -1.446636751734     0.882873675416     1.007825032230
         H            1.016309052109     1.720495248266     0.000121675416     1.007825032230

  Basis Set: AUG-CC-PVTZ
    Blend: AUG-CC-PVTZ
  Basis Set: (AUG-CC-PVTZ AUX)
    Blend: AUG-CC-PVTZ-JKFIT
	 Reference Energy          =    -172.1702370250960143 [Eh]
	 Singles Energy            =      -0.0000000000000000 [Eh]
	 Same-Spin Energy          =      -0.1778762286359860 [Eh]
	 Opposite-Spin Energy      =      -0.6279844620793679 [Eh]
	 Correlation Energy        =      -0.8058606907153538 [Eh]
	 Total Energy              =    -172.9760977158113633 [Eh]

	 ================> DF-SCS-MP2 Energies <==================
	-----------------------------------------------------------
	 SCS Same-Spin Scale       =       0.3333333333333333 [-]
	 SCS Opposite-Spin Scale   =       1.2000000000000000 [-]
	 SCS Same-Spin Energy      =      -0.0592920762119953 [Eh]
	 SCS Opposite-Spin Energy  =      -0.7535813544952414 [Eh]
	 SCS Correlation Energy    =      -0.8128734307072367 [Eh]
	 SCS Total Energy          =    -172.9831104558032564 [Eh]
	-----------------------------------------------------------

  Dipole Moment: [D]
     X:     1.2266      Y:    -2.1396      Z:     0.0004     Total:     2.4662

*** Psi4 exiting successfully. Buy a developer a beer!
