                               Psi4 1.3.2 release

  ==> Input File <==

--------------------------------------------------------------------------
#psi4
#
memory 32 gb

molecule  {
0 1
  N        0.1744962     1.4308172     0.0001203
  C        0.0039250     0.1554150    -0.0002990
  C       -1.3400130    -0.5204670     0.0000250
  C        1.2044310    -0.7598510     0.0000030
  H       -2.1277100     0.2335740    -0.0000130
  H       -1.4495710    -1.1615970    -0.8813460
  H       -1.4493400    -1.1611390     0.8817800
  H        2.1385520    -0.1918070    -0.0030740
  H        1.1876380    -1.4127410    -0.8791240
  H        1.1905740    -1.4078120     0.8828600
  H        1.0180780     1.7593200     0.0001080
units angstrom
no_reorient  #important for SAPT in psi4, default
symmetry c1  #important for SAPT in psi4, default
}

set PROPERTIES_ORIGIN ["COM"]
properties('MP2/aug-cc-pvtz', properties = ['dipole'])
--------------------------------------------------------------------------

    Molecular point group: c1
  Charge       = 0
  Multiplicity = 1
  Basis Set: AUG-CC-PVTZ
    Blend: AUG-CC-PVTZ
  Basis Set: (AUG-CC-PVTZ AUX)
    Blend: AUG-CC-PVTZ-JKFIT

    Orbital Energies [Eh]
    ---------------------

    Doubly Occupied:

       1A    -15.523456     2A    -11.291250     3A    -11.231307
       4A    -11.229801     5A     -1.211231     6A     -1.018843
       7A     -0.955982     8A     -0.775803     9A     -0.654926
      10A     -0.607085    11A     -0.603140    12A     -0.554950
      13A     -0.551139    14A     -0.519330    15A     -0.409936
      16A     -0.400357

  @DF-RHF Final Energy:  -172.16892780439275

   => Energetics <=

    Nuclear Repulsion Energy =            120.5130282882167307
    One-Electron Energy =                -470.2868418758272355
    Two-Electron Energy =                 177.6048857832177532
    Total Energy =                       -172.1689278043927516
  Basis Set: (AUG-CC-PVTZ AUX)
    Blend: AUG-CC-PVTZ-RI
    Molecular point group: c1

    Geometry (in Angstrom), charge = 0, multiplicity = 1:

       Center              X                  Y                   Z               Mass
    ------------   -----------------  -----------------  -----------------  -----------------
         N            0.150383881250     1.375283240294     0.000126734007    14.003074004430
         C           -0.020187318750     0.099881040294    -0.000292565993    12.000000000000
         C           -1.364125318750    -0.576000959706     0.000031434007    12.000000000000
         C            1.180318681250    -0.815384959706     0.000009434007    12.000000000000
         H           -2.151822318750     0.178040040294    -0.000006565993     1.007825032230
         H           -1.473683318750    -1.217130959706    -0.881339565993     1.007825032230
         H           -1.473452318750    -1.216672959706     0.881786434007     1.007825032230
         H            2.114439681250    -0.247340959706    -0.003067565993     1.007825032230
         H            1.163525681250    -1.468274959706    -0.879117565993     1.007825032230
         H            1.166461681250    -1.463345959706     0.882866434007     1.007825032230
         H            0.993965681250     1.703786040294     0.000114434007     1.007825032230

  Basis Set: AUG-CC-PVTZ
    Blend: AUG-CC-PVTZ
  Basis Set: (AUG-CC-PVTZ AUX)
    Blend: AUG-CC-PVTZ-JKFIT
	 Reference Energy          =    -172.1689278043927516 [Eh]
	 Singles Energy            =      -0.0000000000000000 [Eh]
	 Same-Spin Energy          =      -0.1766838392554330 [Eh]
	 Opposite-Spin Energy      =      -0.6246908990126936 [Eh]
	 Correlation Energy        =      -0.8013747382681266 [Eh]
	 Total Energy              =    -172.9703025426608747 [Eh]

	 ================> DF-SCS-MP2 Energies <==================
	-----------------------------------------------------------
	 SCS Same-Spin Scale       =       0.3333333333333333 [-]
	 SCS Opposite-Spin Scale   =       1.2000000000000000 [-]
	 SCS Same-Spin Energy      =      -0.0588946130851443 [Eh]
	 SCS Opposite-Spin Energy  =      -0.7496290788152323 [Eh]
	 SCS Correlation Energy    =      -0.8085236919003767 [Eh]
	 SCS Total Energy          =    -172.9774514962931278 [Eh]
	-----------------------------------------------------------

  Dipole Moment: [D]
     X:     0.9717      Y:    -2.1317      Z:     0.0003     Total:     2.3428

*** Psi4 exiting successfully. Buy a developer a beer!
