                               Psi4 1.4a3.dev225

  ==> Input File <==

--------------------------------------------------------------------------
#psi4
#
memory 32 gb

molecule  {
0 1
  N       -0.0401140     1.4416700     0.0000000
  C       -0.0039120     0.1553900     0.0000000
  C        1.3221528    -0.5115922     0.0000000
  C       -1.2045230    -0.7597350     0.0000000
  H        2.1276800     0.2334830     0.0000000
  H        1.4494410    -1.1614480     0.8815750
  H        1.4494420    -1.1614490    -0.8815740
  H       -2.1385970    -0.1915910    -0.0000020
  H       -1.1893680    -1.4102220     0.8809740
  H       -1.1893660    -1.4102240    -0.8809720
  H       -1.0179430     1.7593080     0.0000000
units angstrom
no_reorient  #important for SAPT in psi4, default
symmetry c1  #important for SAPT in psi4, default
}

set PROPERTIES_ORIGIN ["COM"]
properties('MP2/aug-cc-pvtz', properties = ['dipole'])
--------------------------------------------------------------------------

    Molecular point group: c1
  Charge       = 0
  Multiplicity = 1
  Basis Set: AUG-CC-PVTZ
    Blend: AUG-CC-PVTZ
  Basis Set: (AUG-CC-PVTZ AUX)
    Blend: AUG-CC-PVTZ-JKFIT

    Orbital Energies [Eh]
    ---------------------

    Doubly Occupied:

       1A    -15.542057     2A    -11.287448     3A    -11.237461
       4A    -11.224820     5A     -1.205661     6A     -1.012766
       7A     -0.957434     8A     -0.742138     9A     -0.649050
      10A     -0.607649    11A     -0.604363    12A     -0.548735
      13A     -0.540481    14A     -0.518312    15A     -0.415862
      16A     -0.410230

  @DF-RHF Final Energy:  -172.18134378573924

   => Energetics <=

    Nuclear Repulsion Energy =            120.2922022436066811
    One-Electron Energy =                -469.9381626561180383
    Two-Electron Energy =                 177.4646166267721412
    Total Energy =                       -172.1813437857392444
  Basis Set: (AUG-CC-PVTZ AUX)
    Blend: AUG-CC-PVTZ-RI
    Molecular point group: c1

    Geometry (in Angstrom), charge = 0, multiplicity = 1:

       Center              X                  Y                   Z               Mass
    ------------   -----------------  -----------------  -----------------  -----------------
         N           -0.045200111961     1.381585892913    -0.000000017663    14.003074004430
         C           -0.008998111961     0.095305892913    -0.000000017663    12.000000000000
         C            1.317066688039    -0.571676307087    -0.000000017663    12.000000000000
         C           -1.209609111961    -0.819819107087    -0.000000017663    12.000000000000
         H            2.122593888039     0.173398892913    -0.000000017663     1.007825032230
         H            1.444354888039    -1.221532107087     0.881574982337     1.007825032230
         H            1.444355888039    -1.221533107087    -0.881574017663     1.007825032230
         H           -2.143683111961    -0.251675107087    -0.000002017663     1.007825032230
         H           -1.194454111961    -1.470306107087     0.880973982337     1.007825032230
         H           -1.194452111961    -1.470308107087    -0.880972017663     1.007825032230
         H           -1.023029111961     1.699223892913    -0.000000017663     1.007825032230

  Basis Set: AUG-CC-PVTZ
    Blend: AUG-CC-PVTZ
  Basis Set: (AUG-CC-PVTZ AUX)
    Blend: AUG-CC-PVTZ-JKFIT
	 Reference Energy          =    -172.1813437857392444 [Eh]
	 Singles Energy            =      -0.0000000000000000 [Eh]
	 Same-Spin Energy          =      -0.1777312804992350 [Eh]
	 Opposite-Spin Energy      =      -0.6272929902687988 [Eh]
	 Correlation Energy        =      -0.8050242707680337 [Eh]
	 Total Energy              =    -172.9863680565072741 [Eh]

	 ================> DF-SCS-MP2 Energies <==================
	-----------------------------------------------------------
	 SCS Same-Spin Scale       =       0.3333333333333333 [-]
	 SCS Opposite-Spin Scale   =       1.2000000000000000 [-]
	 SCS Same-Spin Energy      =      -0.0592437601664117 [Eh]
	 SCS Opposite-Spin Energy  =      -0.7527515883225585 [Eh]
	 SCS Correlation Energy    =      -0.8119953484889701 [Eh]
	 SCS Total Energy          =    -172.9933391342282221 [Eh]
	-----------------------------------------------------------

  Dipole Moment: [D]
     X:    -1.1972      Y:    -2.1655      Z:     0.0000     Total:     2.4745

*** Psi4 exiting successfully. Buy a developer a beer!
