                               Psi4 1.3.2 release

  ==> Input File <==

--------------------------------------------------------------------------
#psi4
#
memory 32 gb

molecule  {
0 1
  N        0.0402460     1.4416600     0.0000620
  C       -0.0409422     0.1574661    -0.0002964
  C       -1.3400130    -0.5204670     0.0000250
  C        1.2044310    -0.7598510     0.0000030
  H       -2.1277100     0.2335740    -0.0000130
  H       -1.4495710    -1.1615970    -0.8813460
  H       -1.4493400    -1.1611390     0.8817800
  H        2.1385520    -0.1918070    -0.0030740
  H        1.1876380    -1.4127410    -0.8791240
  H        1.1905740    -1.4078120     0.8828600
  H        1.0180780     1.7593200     0.0001080
units angstrom
no_reorient  #important for SAPT in psi4, default
symmetry c1  #important for SAPT in psi4, default
}

set PROPERTIES_ORIGIN ["COM"]
properties('MP2/aug-cc-pvtz', properties = ['dipole'])
--------------------------------------------------------------------------

    Molecular point group: c1
  Charge       = 0
  Multiplicity = 1
  Basis Set: AUG-CC-PVTZ
    Blend: AUG-CC-PVTZ
  Basis Set: (AUG-CC-PVTZ AUX)
    Blend: AUG-CC-PVTZ-JKFIT

    Orbital Energies [Eh]
    ---------------------

    Doubly Occupied:

       1A    -15.541119     2A    -11.288663     3A    -11.236922
       4A    -11.224380     5A     -1.203232     6A     -1.012543
       7A     -0.957105     8A     -0.743142     9A     -0.647962
      10A     -0.607743    11A     -0.599039    12A     -0.551737
      13A     -0.548843    14A     -0.520165    15A     -0.410212
      16A     -0.408925

  @DF-RHF Final Energy:  -172.18015334025296

   => Energetics <=

    Nuclear Repulsion Energy =            120.0605659406790551
    One-Electron Energy =                -469.4779718638135364
    Two-Electron Energy =                 177.2372525828815242
    Total Energy =                       -172.1801533402529572
  Basis Set: (AUG-CC-PVTZ AUX)
    Blend: AUG-CC-PVTZ-RI
    Molecular point group: c1

    Geometry (in Angstrom), charge = 0, multiplicity = 1:

       Center              X                  Y                   Z               Mass
    ------------   -----------------  -----------------  -----------------  -----------------
         N            0.058517365850     1.383033639631     0.000082195115    14.003074004430
         C           -0.022670834150     0.098839739631    -0.000276204885    12.000000000000
         C           -1.321741634150    -0.579093360369     0.000045195115    12.000000000000
         C            1.222702365850    -0.818477360369     0.000023195115    12.000000000000
         H           -2.109438634150     0.174947639631     0.000007195115     1.007825032230
         H           -1.431299634150    -1.220223360369    -0.881325804885     1.007825032230
         H           -1.431068634150    -1.219765360369     0.881800195115     1.007825032230
         H            2.156823365850    -0.250433360369    -0.003053804885     1.007825032230
         H            1.205909365850    -1.471367360369    -0.879103804885     1.007825032230
         H            1.208845365850    -1.466438360369     0.882880195115     1.007825032230
         H            1.036349365850     1.700693639631     0.000128195115     1.007825032230

  Basis Set: AUG-CC-PVTZ
    Blend: AUG-CC-PVTZ
  Basis Set: (AUG-CC-PVTZ AUX)
    Blend: AUG-CC-PVTZ-JKFIT
	 Reference Energy          =    -172.1801533402529572 [Eh]
	 Singles Energy            =      -0.0000000000000000 [Eh]
	 Same-Spin Energy          =      -0.1775881360456833 [Eh]
	 Opposite-Spin Energy      =      -0.6270834447196381 [Eh]
	 Correlation Energy        =      -0.8046715807653213 [Eh]
	 Total Energy              =    -172.9848249210182871 [Eh]

	 ================> DF-SCS-MP2 Energies <==================
	-----------------------------------------------------------
	 SCS Same-Spin Scale       =       0.3333333333333333 [-]
	 SCS Opposite-Spin Scale   =       1.2000000000000000 [-]
	 SCS Same-Spin Energy      =      -0.0591960453485611 [Eh]
	 SCS Opposite-Spin Energy  =      -0.7525001336635656 [Eh]
	 SCS Correlation Energy    =      -0.8116961790121267 [Eh]
	 SCS Total Energy          =    -172.9918495192650880 [Eh]
	-----------------------------------------------------------

  Dipole Moment: [D]
     X:     1.0817      Y:    -2.1566      Z:     0.0004     Total:     2.4127

*** Psi4 exiting successfully. Buy a developer a beer!
