                               Psi4 1.3.2 release

  ==> Input File <==

--------------------------------------------------------------------------
#psi4
#
memory 32 gb

molecule  {
0 1
  N        0.0402460     1.4416600     0.0000620
  C        0.0039250     0.1554150    -0.0002990
  C       -1.2620019    -0.6572442     0.0000747
  C        1.2044310    -0.7598510     0.0000030
  H       -2.1277100     0.2335740    -0.0000130
  H       -1.4495710    -1.1615970    -0.8813460
  H       -1.4493400    -1.1611390     0.8817800
  H        2.1385520    -0.1918070    -0.0030740
  H        1.1876380    -1.4127410    -0.8791240
  H        1.1905740    -1.4078120     0.8828600
  H        1.0180780     1.7593200     0.0001080
units angstrom
no_reorient  #important for SAPT in psi4, default
symmetry c1  #important for SAPT in psi4, default
}

set PROPERTIES_ORIGIN ["COM"]
properties('MP2/aug-cc-pvtz', properties = ['dipole'])
--------------------------------------------------------------------------

    Molecular point group: c1
  Charge       = 0
  Multiplicity = 1
  Basis Set: AUG-CC-PVTZ
    Blend: AUG-CC-PVTZ
  Basis Set: (AUG-CC-PVTZ AUX)
    Blend: AUG-CC-PVTZ-JKFIT

    Orbital Energies [Eh]
    ---------------------

    Doubly Occupied:

       1A    -15.546664     2A    -11.291388     3A    -11.234322
       4A    -11.227257     5A     -1.205380     6A     -1.019250
       7A     -0.953935     8A     -0.746572     9A     -0.642638
      10A     -0.629806    11A     -0.604586    12A     -0.568352
      13A     -0.542024    14A     -0.474335    15A     -0.416638
      16A     -0.413799

  @DF-RHF Final Energy:  -172.15739914017584

   => Energetics <=

    Nuclear Repulsion Energy =            120.1283702921853376
    One-Electron Energy =                -469.5376451009029211
    Two-Electron Energy =                 177.2518756685417145
    Total Energy =                       -172.1573991401758406
  Basis Set: (AUG-CC-PVTZ AUX)
    Blend: AUG-CC-PVTZ-RI
    Molecular point group: c1

    Geometry (in Angstrom), charge = 0, multiplicity = 1:

       Center              X                  Y                   Z               Mass
    ------------   -----------------  -----------------  -----------------  -----------------
         N            0.032674477976     1.412231017774     0.000072289378    14.003074004430
         C           -0.003646522024     0.125986017774    -0.000288710622    12.000000000000
         C           -1.269573422024    -0.686673182226     0.000084989378    12.000000000000
         C            1.196859477976    -0.789279982226     0.000013289378    12.000000000000
         H           -2.135281522024     0.204145017774    -0.000002710622     1.007825032230
         H           -1.457142522024    -1.191025982226    -0.881335710622     1.007825032230
         H           -1.456911522024    -1.190567982226     0.881790289378     1.007825032230
         H            2.130980477976    -0.221235982226    -0.003063710622     1.007825032230
         H            1.180066477976    -1.442169982226    -0.879113710622     1.007825032230
         H            1.183002477976    -1.437240982226     0.882870289378     1.007825032230
         H            1.010506477976     1.729891017774     0.000118289378     1.007825032230

  Basis Set: AUG-CC-PVTZ
    Blend: AUG-CC-PVTZ
  Basis Set: (AUG-CC-PVTZ AUX)
    Blend: AUG-CC-PVTZ-JKFIT
	 Reference Energy          =    -172.1573991401758406 [Eh]
	 Singles Energy            =      -0.0000000000000000 [Eh]
	 Same-Spin Energy          =      -0.1781886063607785 [Eh]
	 Opposite-Spin Energy      =      -0.6288542062909914 [Eh]
	 Correlation Energy        =      -0.8070428126517699 [Eh]
	 Total Energy              =    -172.9644419528275989 [Eh]

	 ================> DF-SCS-MP2 Energies <==================
	-----------------------------------------------------------
	 SCS Same-Spin Scale       =       0.3333333333333333 [-]
	 SCS Opposite-Spin Scale   =       1.2000000000000000 [-]
	 SCS Same-Spin Energy      =      -0.0593962021202595 [Eh]
	 SCS Opposite-Spin Energy  =      -0.7546250475491897 [Eh]
	 SCS Correlation Energy    =      -0.8140212496694492 [Eh]
	 SCS Total Energy          =    -172.9714203898452922 [Eh]
	-----------------------------------------------------------

  Dipole Moment: [D]
     X:     1.2410      Y:    -2.1287      Z:     0.0004     Total:     2.4641

*** Psi4 exiting successfully. Buy a developer a beer!
