                               Psi4 1.3.2 release

  ==> Input File <==

--------------------------------------------------------------------------
#psi4
#
memory 32 gb

molecule  {
0 1
  N        0.0402460     1.4416600     0.0000620
  C        0.1385732     0.1586646    -0.0003041
  C       -1.3400130    -0.5204670     0.0000250
  C        1.2044310    -0.7598510     0.0000030
  H       -2.1277100     0.2335740    -0.0000130
  H       -1.4495710    -1.1615970    -0.8813460
  H       -1.4493400    -1.1611390     0.8817800
  H        2.1385520    -0.1918070    -0.0030740
  H        1.1876380    -1.4127410    -0.8791240
  H        1.1905740    -1.4078120     0.8828600
  H        1.0180780     1.7593200     0.0001080
units angstrom
no_reorient  #important for SAPT in psi4, default
symmetry c1  #important for SAPT in psi4, default
}

set PROPERTIES_ORIGIN ["COM"]
properties('MP2/aug-cc-pvtz', properties = ['dipole'])
--------------------------------------------------------------------------

    Molecular point group: c1
  Charge       = 0
  Multiplicity = 1
  Basis Set: AUG-CC-PVTZ
    Blend: AUG-CC-PVTZ
  Basis Set: (AUG-CC-PVTZ AUX)
    Blend: AUG-CC-PVTZ-JKFIT

    Orbital Energies [Eh]
    ---------------------

    Doubly Occupied:

       1A    -15.547031     2A    -11.290156     3A    -11.238956
       4A    -11.221961     5A     -1.211034     6A     -1.028335
       7A     -0.943269     8A     -0.737067     9A     -0.654839
      10A     -0.616333    11A     -0.613811    12A     -0.545355
      13A     -0.537081    14A     -0.494642    15A     -0.418678
      16A     -0.413990

  @DF-RHF Final Energy:  -172.16178321126915

   => Energetics <=

    Nuclear Repulsion Energy =            120.0489942312992184
    One-Electron Energy =                -469.3964770640989741
    Two-Electron Energy =                 177.1856996215306026
    Total Energy =                       -172.1617832112691531
  Basis Set: (AUG-CC-PVTZ AUX)
    Blend: AUG-CC-PVTZ-RI
    Molecular point group: c1

    Geometry (in Angstrom), charge = 0, multiplicity = 1:

       Center              X                  Y                   Z               Mass
    ------------   -----------------  -----------------  -----------------  -----------------
         N            0.020762966954     1.382781579657     0.000083814524    14.003074004430
         C            0.119090166954     0.099786179657    -0.000282285476    12.000000000000
         C           -1.359496033046    -0.579345420343     0.000046814524    12.000000000000
         C            1.184947966954    -0.818729420343     0.000024814524    12.000000000000
         H           -2.147193033046     0.174695579657     0.000008814524     1.007825032230
         H           -1.469054033046    -1.220475420343    -0.881324185476     1.007825032230
         H           -1.468823033046    -1.220017420343     0.881801814524     1.007825032230
         H            2.119068966954    -0.250685420343    -0.003052185476     1.007825032230
         H            1.168154966954    -1.471619420343    -0.879102185476     1.007825032230
         H            1.171090966954    -1.466690420343     0.882881814524     1.007825032230
         H            0.998594966954     1.700441579657     0.000129814524     1.007825032230

  Basis Set: AUG-CC-PVTZ
    Blend: AUG-CC-PVTZ
  Basis Set: (AUG-CC-PVTZ AUX)
    Blend: AUG-CC-PVTZ-JKFIT
	 Reference Energy          =    -172.1617832112691531 [Eh]
	 Singles Energy            =      -0.0000000000000000 [Eh]
	 Same-Spin Energy          =      -0.1785980132467767 [Eh]
	 Opposite-Spin Energy      =      -0.6291640552879776 [Eh]
	 Correlation Energy        =      -0.8077620685347543 [Eh]
	 Total Energy              =    -172.9695452798038957 [Eh]

	 ================> DF-SCS-MP2 Energies <==================
	-----------------------------------------------------------
	 SCS Same-Spin Scale       =       0.3333333333333333 [-]
	 SCS Opposite-Spin Scale   =       1.2000000000000000 [-]
	 SCS Same-Spin Energy      =      -0.0595326710822589 [Eh]
	 SCS Opposite-Spin Energy  =      -0.7549968663455731 [Eh]
	 SCS Correlation Energy    =      -0.8145295374278320 [Eh]
	 SCS Total Energy          =    -172.9763127486969836 [Eh]
	-----------------------------------------------------------

  Dipole Moment: [D]
     X:     1.6015      Y:    -2.1282      Z:     0.0006     Total:     2.6635

*** Psi4 exiting successfully. Buy a developer a beer!
