                               Psi4 1.4a3.dev225

  ==> Input File <==

--------------------------------------------------------------------------
#psi4
#
memory 32 gb

molecule  {
0 1
  N       -0.0401140     1.4416700     0.0000000
  C       -0.0039120     0.1553900     0.0000000
  C        1.3846880    -0.5430461     0.0000000
  C       -1.2045230    -0.7597350     0.0000000
  H        2.1276800     0.2334830     0.0000000
  H        1.4494410    -1.1614480     0.8815750
  H        1.4494420    -1.1614490    -0.8815740
  H       -2.1385970    -0.1915910    -0.0000020
  H       -1.1893680    -1.4102220     0.8809740
  H       -1.1893660    -1.4102240    -0.8809720
  H       -1.0179430     1.7593080     0.0000000
units angstrom
no_reorient  #important for SAPT in psi4, default
symmetry c1  #important for SAPT in psi4, default
}

set PROPERTIES_ORIGIN ["COM"]
properties('MP2/aug-cc-pvtz', properties = ['dipole'])
--------------------------------------------------------------------------

    Molecular point group: c1
  Charge       = 0
  Multiplicity = 1
  Basis Set: AUG-CC-PVTZ
    Blend: AUG-CC-PVTZ
  Basis Set: (AUG-CC-PVTZ AUX)
    Blend: AUG-CC-PVTZ-JKFIT

    Orbital Energies [Eh]
    ---------------------

    Doubly Occupied:

       1A    -15.542234     2A    -11.290619     3A    -11.237875
       4A    -11.222867     5A     -1.202008     6A     -1.008192
       7A     -0.956787     8A     -0.739083     9A     -0.646849
      10A     -0.608608    11A     -0.601223    12A     -0.556681
      13A     -0.548137    14A     -0.511973    15A     -0.412553
      16A     -0.411627

  @DF-RHF Final Energy:  -172.18027679258739

   => Energetics <=

    Nuclear Repulsion Energy =            119.4211703412648262
    One-Electron Energy =                -468.2082658397891919
    Two-Electron Energy =                 176.6068187059369734
    Total Energy =                       -172.1802767925873923
  Basis Set: (AUG-CC-PVTZ AUX)
    Blend: AUG-CC-PVTZ-RI
    Molecular point group: c1

    Geometry (in Angstrom), charge = 0, multiplicity = 1:

       Center              X                  Y                   Z               Mass
    ------------   -----------------  -----------------  -----------------  -----------------
         N           -0.058352069318     1.388201052880    -0.000000017663    14.003074004430
         C           -0.022150069318     0.101921052880    -0.000000017663    12.000000000000
         C            1.366449930682    -0.596515047120    -0.000000017663    12.000000000000
         C           -1.222761069318    -0.813203947120    -0.000000017663    12.000000000000
         H            2.109441930682     0.180014052880    -0.000000017663     1.007825032230
         H            1.431202930682    -1.214916947120     0.881574982337     1.007825032230
         H            1.431203930682    -1.214917947120    -0.881574017663     1.007825032230
         H           -2.156835069318    -0.245059947120    -0.000002017663     1.007825032230
         H           -1.207606069318    -1.463690947120     0.880973982337     1.007825032230
         H           -1.207604069318    -1.463692947120    -0.880972017663     1.007825032230
         H           -1.036181069318     1.705839052880    -0.000000017663     1.007825032230

  Basis Set: AUG-CC-PVTZ
    Blend: AUG-CC-PVTZ
  Basis Set: (AUG-CC-PVTZ AUX)
    Blend: AUG-CC-PVTZ-JKFIT
	 Reference Energy          =    -172.1802767925873923 [Eh]
	 Singles Energy            =      -0.0000000000000000 [Eh]
	 Same-Spin Energy          =      -0.1772871245466027 [Eh]
	 Opposite-Spin Energy      =      -0.6269153700137334 [Eh]
	 Correlation Energy        =      -0.8042024945603361 [Eh]
	 Total Energy              =    -172.9844792871477352 [Eh]

	 ================> DF-SCS-MP2 Energies <==================
	-----------------------------------------------------------
	 SCS Same-Spin Scale       =       0.3333333333333333 [-]
	 SCS Opposite-Spin Scale   =       1.2000000000000000 [-]
	 SCS Same-Spin Energy      =      -0.0590957081822009 [Eh]
	 SCS Opposite-Spin Energy  =      -0.7522984440164801 [Eh]
	 SCS Correlation Energy    =      -0.8113941521986809 [Eh]
	 SCS Total Energy          =    -172.9916709447860796 [Eh]
	-----------------------------------------------------------

  Dipole Moment: [D]
     X:    -1.2597      Y:    -2.1346      Z:    -0.0000     Total:     2.4785

*** Psi4 exiting successfully. Buy a developer a beer!
