                               Psi4 1.3.2 release

  ==> Input File <==

--------------------------------------------------------------------------
#psi4
#
memory 32 gb

molecule  {
0 1
  N        0.0402460     1.4416600     0.0000620
  C        0.0039250     0.1554150    -0.0002990
  C       -1.3400130    -0.5204670     0.0000250
  C        1.2044310    -0.7598510     0.0000030
  H       -2.1277100     0.2335740    -0.0000130
  H       -1.4495710    -1.1615970    -0.8813460
  H       -1.4493400    -1.1611390     0.8817800
  H        2.1385520    -0.1918070    -0.0030740
  H        1.1876380    -1.4127410    -0.8791240
  H        1.1905740    -1.4078120     0.8828600
  H        1.1131853     1.7902167     0.0001125
units angstrom
no_reorient  #important for SAPT in psi4, default
symmetry c1  #important for SAPT in psi4, default
}

set PROPERTIES_ORIGIN ["COM"]
properties('MP2/aug-cc-pvtz', properties = ['dipole'])
--------------------------------------------------------------------------

    Molecular point group: c1
  Charge       = 0
  Multiplicity = 1
  Basis Set: AUG-CC-PVTZ
    Blend: AUG-CC-PVTZ
  Basis Set: (AUG-CC-PVTZ AUX)
    Blend: AUG-CC-PVTZ-JKFIT

    Orbital Energies [Eh]
    ---------------------

    Doubly Occupied:

       1A    -15.553783     2A    -11.288473     3A    -11.237318
       4A    -11.225475     5A     -1.197566     6A     -1.006769
       7A     -0.957189     8A     -0.728286     9A     -0.639662
      10A     -0.608074    11A     -0.602625    12A     -0.551453
      13A     -0.539699    14A     -0.517924    15A     -0.411097
      16A     -0.410593

  @DF-RHF Final Energy:  -172.17206243781598

   => Energetics <=

    Nuclear Repulsion Energy =            119.6054214375465676
    One-Electron Energy =                -468.6029947045993822
    Two-Electron Energy =                 176.8255108292368334
    Total Energy =                       -172.1720624378159812
  Basis Set: (AUG-CC-PVTZ AUX)
    Blend: AUG-CC-PVTZ-RI
    Molecular point group: c1

    Geometry (in Angstrom), charge = 0, multiplicity = 1:

       Center              X                  Y                   Z               Mass
    ------------   -----------------  -----------------  -----------------  -----------------
         N            0.047401315627     1.382919277317     0.000082662443    14.003074004430
         C            0.011080315627     0.096674277317    -0.000278337557    12.000000000000
         C           -1.332857684373    -0.579207722683     0.000045662443    12.000000000000
         C            1.211586315627    -0.818591722683     0.000023662443    12.000000000000
         H           -2.120554684373     0.174833277317     0.000007662443     1.007825032230
         H           -1.442415684373    -1.220337722683    -0.881325337557     1.007825032230
         H           -1.442184684373    -1.219879722683     0.881800662443     1.007825032230
         H            2.145707315627    -0.250547722683    -0.003053337557     1.007825032230
         H            1.194793315627    -1.471481722683    -0.879103337557     1.007825032230
         H            1.197729315627    -1.466552722683     0.882880662443     1.007825032230
         H            1.120340615627     1.731475977317     0.000133162443     1.007825032230

  Basis Set: AUG-CC-PVTZ
    Blend: AUG-CC-PVTZ
  Basis Set: (AUG-CC-PVTZ AUX)
    Blend: AUG-CC-PVTZ-JKFIT
	 Reference Energy          =    -172.1720624378159812 [Eh]
	 Singles Energy            =      -0.0000000000000000 [Eh]
	 Same-Spin Energy          =      -0.1782182665369718 [Eh]
	 Opposite-Spin Energy      =      -0.6292309327873336 [Eh]
	 Correlation Energy        =      -0.8074491993243054 [Eh]
	 Total Energy              =    -172.9795116371402912 [Eh]

	 ================> DF-SCS-MP2 Energies <==================
	-----------------------------------------------------------
	 SCS Same-Spin Scale       =       0.3333333333333333 [-]
	 SCS Opposite-Spin Scale   =       1.2000000000000000 [-]
	 SCS Same-Spin Energy      =      -0.0594060888456572 [Eh]
	 SCS Opposite-Spin Energy  =      -0.7550771193448003 [Eh]
	 SCS Correlation Energy    =      -0.8144832081904575 [Eh]
	 SCS Total Energy          =    -172.9865456460064479 [Eh]
	-----------------------------------------------------------

  Dipole Moment: [D]
     X:     1.1687      Y:    -2.1722      Z:     0.0004     Total:     2.4666

*** Psi4 exiting successfully. Buy a developer a beer!
