                               Psi4 1.3.2 release

  ==> Input File <==

--------------------------------------------------------------------------
#psi4
#
memory 32 gb

molecule  {
0 1
  N       -0.0495664     1.4410604     0.0000209
  C        0.0039250     0.1554150    -0.0002990
  C       -1.3400130    -0.5204670     0.0000250
  C        1.2044310    -0.7598510     0.0000030
  H       -2.1277100     0.2335740    -0.0000130
  H       -1.4495710    -1.1615970    -0.8813460
  H       -1.4493400    -1.1611390     0.8817800
  H        2.1385520    -0.1918070    -0.0030740
  H        1.1876380    -1.4127410    -0.8791240
  H        1.1905740    -1.4078120     0.8828600
  H        1.0180780     1.7593200     0.0001080
units angstrom
no_reorient  #important for SAPT in psi4, default
symmetry c1  #important for SAPT in psi4, default
}

set PROPERTIES_ORIGIN ["COM"]
properties('MP2/aug-cc-pvtz', properties = ['dipole'])
--------------------------------------------------------------------------

    Molecular point group: c1
  Charge       = 0
  Multiplicity = 1
  Basis Set: AUG-CC-PVTZ
    Blend: AUG-CC-PVTZ
  Basis Set: (AUG-CC-PVTZ AUX)
    Blend: AUG-CC-PVTZ-JKFIT

    Orbital Energies [Eh]
    ---------------------

    Doubly Occupied:

       1A    -15.554585     2A    -11.288201     3A    -11.241759
       4A    -11.220978     5A     -1.202653     6A     -1.008899
       7A     -0.956935     8A     -0.726093     9A     -0.643051
      10A     -0.608955    11A     -0.603686    12A     -0.551141
      13A     -0.532962    14A     -0.516097    15A     -0.419536
      16A     -0.412476

  @DF-RHF Final Energy:  -172.17133848486995

   => Energetics <=

    Nuclear Repulsion Energy =            119.8340495628045517
    One-Electron Energy =                -469.0347617491323717
    Two-Electron Energy =                 177.0293737014578426
    Total Energy =                       -172.1713384848699491
  Basis Set: (AUG-CC-PVTZ AUX)
    Blend: AUG-CC-PVTZ-RI
    Molecular point group: c1

    Geometry (in Angstrom), charge = 0, multiplicity = 1:

       Center              X                  Y                   Z               Mass
    ------------   -----------------  -----------------  -----------------  -----------------
         N           -0.018689524243     1.383012565524     0.000051728644    14.003074004430
         C            0.034801875757     0.097367165524    -0.000268171356    12.000000000000
         C           -1.309136124243    -0.578514834476     0.000055828644    12.000000000000
         C            1.235307875757    -0.817898834476     0.000033828644    12.000000000000
         H           -2.096833124243     0.175526165524     0.000017828644     1.007825032230
         H           -1.418694124243    -1.219644834476    -0.881315171356     1.007825032230
         H           -1.418463124243    -1.219186834476     0.881810828644     1.007825032230
         H            2.169428875757    -0.249854834476    -0.003043171356     1.007825032230
         H            1.218514875757    -1.470788834476    -0.879093171356     1.007825032230
         H            1.221450875757    -1.465859834476     0.882890828644     1.007825032230
         H            1.048954875757     1.701272165524     0.000138828644     1.007825032230

  Basis Set: AUG-CC-PVTZ
    Blend: AUG-CC-PVTZ
  Basis Set: (AUG-CC-PVTZ AUX)
    Blend: AUG-CC-PVTZ-JKFIT
	 Reference Energy          =    -172.1713384848699491 [Eh]
	 Singles Energy            =      -0.0000000000000000 [Eh]
	 Same-Spin Energy          =      -0.1785084508275916 [Eh]
	 Opposite-Spin Energy      =      -0.6296602943485456 [Eh]
	 Correlation Energy        =      -0.8081687451761372 [Eh]
	 Total Energy              =    -172.9795072300460959 [Eh]

	 ================> DF-SCS-MP2 Energies <==================
	-----------------------------------------------------------
	 SCS Same-Spin Scale       =       0.3333333333333333 [-]
	 SCS Opposite-Spin Scale   =       1.2000000000000000 [-]
	 SCS Same-Spin Energy      =      -0.0595028169425305 [Eh]
	 SCS Opposite-Spin Energy  =      -0.7555923532182548 [Eh]
	 SCS Correlation Energy    =      -0.8150951701607854 [Eh]
	 SCS Total Energy          =    -172.9864336550307371 [Eh]
	-----------------------------------------------------------

  Dipole Moment: [D]
     X:     1.3279      Y:    -2.1824      Z:     0.0005     Total:     2.5547

*** Psi4 exiting successfully. Buy a developer a beer!
