                               Psi4 1.4a3.dev225

  ==> Input File <==

--------------------------------------------------------------------------
#psi4
#
memory 32 gb

molecule  {
0 1
  N       -0.0401140     1.4416700     0.0000000
  C       -0.0053187     0.2053702     0.0000000
  C        1.3400200    -0.5205790     0.0000000
  C       -1.2045230    -0.7597350     0.0000000
  H        2.1276800     0.2334830     0.0000000
  H        1.4494410    -1.1614480     0.8815750
  H        1.4494420    -1.1614490    -0.8815740
  H       -2.1385970    -0.1915910    -0.0000020
  H       -1.1893680    -1.4102220     0.8809740
  H       -1.1893660    -1.4102240    -0.8809720
  H       -1.0179430     1.7593080     0.0000000
units angstrom
no_reorient  #important for SAPT in psi4, default
symmetry c1  #important for SAPT in psi4, default
}

set PROPERTIES_ORIGIN ["COM"]
properties('MP2/aug-cc-pvtz', properties = ['dipole'])
--------------------------------------------------------------------------

    Molecular point group: c1
  Charge       = 0
  Multiplicity = 1
  Basis Set: AUG-CC-PVTZ
    Blend: AUG-CC-PVTZ
  Basis Set: (AUG-CC-PVTZ AUX)
    Blend: AUG-CC-PVTZ-JKFIT

    Orbital Energies [Eh]
    ---------------------

    Doubly Occupied:

       1A    -15.539406     2A    -11.283499     3A    -11.236361
       4A    -11.222384     5A     -1.225262     6A     -1.006042
       7A     -0.950845     8A     -0.741852     9A     -0.648978
      10A     -0.604183    11A     -0.601203    12A     -0.548432
      13A     -0.548167    14A     -0.512369    15A     -0.428958
      16A     -0.407599

  @DF-RHF Final Energy:  -172.18158536501326

   => Energetics <=

    Nuclear Repulsion Energy =            120.2334358821197924
    One-Electron Energy =                -469.8189630476913408
    Two-Electron Energy =                 177.4039418005582718
    Total Energy =                       -172.1815853650132624
  Basis Set: (AUG-CC-PVTZ AUX)
    Blend: AUG-CC-PVTZ-RI
    Molecular point group: c1

    Geometry (in Angstrom), charge = 0, multiplicity = 1:

       Center              X                  Y                   Z               Mass
    ------------   -----------------  -----------------  -----------------  -----------------
         N           -0.048661966949     1.372964453328    -0.000000017663    14.003074004430
         C           -0.013866666949     0.136664653328    -0.000000017663    12.000000000000
         C            1.331472033051    -0.589284546672    -0.000000017663    12.000000000000
         C           -1.213070966949    -0.828440546672    -0.000000017663    12.000000000000
         H            2.119132033051     0.164777453328    -0.000000017663     1.007825032230
         H            1.440893033051    -1.230153546672     0.881574982337     1.007825032230
         H            1.440894033051    -1.230154546672    -0.881574017663     1.007825032230
         H           -2.147144966949    -0.260296546672    -0.000002017663     1.007825032230
         H           -1.197915966949    -1.478927546672     0.880973982337     1.007825032230
         H           -1.197913966949    -1.478929546672    -0.880972017663     1.007825032230
         H           -1.026490966949     1.690602453328    -0.000000017663     1.007825032230

  Basis Set: AUG-CC-PVTZ
    Blend: AUG-CC-PVTZ
  Basis Set: (AUG-CC-PVTZ AUX)
    Blend: AUG-CC-PVTZ-JKFIT
	 Reference Energy          =    -172.1815853650132624 [Eh]
	 Singles Energy            =      -0.0000000000000000 [Eh]
	 Same-Spin Energy          =      -0.1765813056050064 [Eh]
	 Opposite-Spin Energy      =      -0.6250088441712516 [Eh]
	 Correlation Energy        =      -0.8015901497762580 [Eh]
	 Total Energy              =    -172.9831755147895080 [Eh]

	 ================> DF-SCS-MP2 Energies <==================
	-----------------------------------------------------------
	 SCS Same-Spin Scale       =       0.3333333333333333 [-]
	 SCS Opposite-Spin Scale   =       1.2000000000000000 [-]
	 SCS Same-Spin Energy      =      -0.0588604352016688 [Eh]
	 SCS Opposite-Spin Energy  =      -0.7500106130055019 [Eh]
	 SCS Correlation Energy    =      -0.8088710482071707 [Eh]
	 SCS Total Energy          =    -172.9904564132204428 [Eh]
	-----------------------------------------------------------

  Dipole Moment: [D]
     X:    -1.2285      Y:    -1.9935      Z:    -0.0000     Total:     2.3417

*** Psi4 exiting successfully. Buy a developer a beer!
