                               Psi4 1.3.2 release

  ==> Input File <==

--------------------------------------------------------------------------
#psi4
#
memory 32 gb

molecule  {
0 1
  N        0.0402460     1.4416600     0.0000620
  C        0.0039250     0.1554150    -0.0002990
  C       -1.3400130    -0.5204670     0.0000250
  C        1.2044310    -0.7598510     0.0000030
  H       -2.1277100     0.2335740    -0.0000130
  H       -1.4495710    -1.1615970    -0.8813460
  H       -1.4493400    -1.1611390     0.8817800
  H        2.1385520    -0.1918070    -0.0030740
  H        1.1876380    -1.4127410    -0.8791240
  H        1.1905740    -1.4078120     0.8828600
  H        0.9229707     1.7284233     0.0001035
units angstrom
no_reorient  #important for SAPT in psi4, default
symmetry c1  #important for SAPT in psi4, default
}

set PROPERTIES_ORIGIN ["COM"]
properties('MP2/aug-cc-pvtz', properties = ['dipole'])
--------------------------------------------------------------------------

    Molecular point group: c1
  Charge       = 0
  Multiplicity = 1
  Basis Set: AUG-CC-PVTZ
    Blend: AUG-CC-PVTZ
  Basis Set: (AUG-CC-PVTZ AUX)
    Blend: AUG-CC-PVTZ-JKFIT

    Orbital Energies [Eh]
    ---------------------

    Doubly Occupied:

       1A    -15.529323     2A    -11.288876     3A    -11.238095
       4A    -11.223258     5A     -1.215610     6A     -1.017934
       7A     -0.957506     8A     -0.758538     9A     -0.655611
      10A     -0.607903    11A     -0.604164    12A     -0.550930
      13A     -0.543378    14A     -0.517935    15A     -0.418364
      16A     -0.411563

  @DF-RHF Final Energy:  -172.17658950983656

   => Energetics <=

    Nuclear Repulsion Energy =            120.5458477982981549
    One-Electron Energy =                -470.3668960094361751
    Two-Electron Energy =                 177.6444587013014598
    Total Energy =                       -172.1765895098365604
  Basis Set: (AUG-CC-PVTZ AUX)
    Blend: AUG-CC-PVTZ-RI
    Molecular point group: c1

    Geometry (in Angstrom), charge = 0, multiplicity = 1:

       Center              X                  Y                   Z               Mass
    ------------   -----------------  -----------------  -----------------  -----------------
         N            0.050761116915     1.384010747398     0.000082821412    14.003074004430
         C            0.014440116915     0.097765747398    -0.000278178588    12.000000000000
         C           -1.329497883085    -0.578116252602     0.000045821412    12.000000000000
         C            1.214946116915    -0.817500252602     0.000023821412    12.000000000000
         H           -2.117194883085     0.175924747398     0.000007821412     1.007825032230
         H           -1.439055883085    -1.219246252602    -0.881325178588     1.007825032230
         H           -1.438824883085    -1.218788252602     0.881800821412     1.007825032230
         H            2.149067116915    -0.249456252602    -0.003053178588     1.007825032230
         H            1.198153116915    -1.470390252602    -0.879103178588     1.007825032230
         H            1.201089116915    -1.465461252602     0.882880821412     1.007825032230
         H            0.933485816915     1.670774047398     0.000124321412     1.007825032230

  Basis Set: AUG-CC-PVTZ
    Blend: AUG-CC-PVTZ
  Basis Set: (AUG-CC-PVTZ AUX)
    Blend: AUG-CC-PVTZ-JKFIT
	 Reference Energy          =    -172.1765895098365604 [Eh]
	 Singles Energy            =      -0.0000000000000000 [Eh]
	 Same-Spin Energy          =      -0.1769327519151194 [Eh]
	 Opposite-Spin Energy      =      -0.6253360324828057 [Eh]
	 Correlation Energy        =      -0.8022687843979250 [Eh]
	 Total Energy              =    -172.9788582942344988 [Eh]

	 ================> DF-SCS-MP2 Energies <==================
	-----------------------------------------------------------
	 SCS Same-Spin Scale       =       0.3333333333333333 [-]
	 SCS Opposite-Spin Scale   =       1.2000000000000000 [-]
	 SCS Same-Spin Energy      =      -0.0589775839717065 [Eh]
	 SCS Opposite-Spin Energy  =      -0.7504032389793668 [Eh]
	 SCS Correlation Energy    =      -0.8093808229510733 [Eh]
	 SCS Total Energy          =    -172.9859703327876446 [Eh]
	-----------------------------------------------------------

  Dipole Moment: [D]
     X:     1.2410      Y:    -2.1640      Z:     0.0004     Total:     2.4945

*** Psi4 exiting successfully. Buy a developer a beer!
