                               Psi4 1.3.2 release

  ==> Input File <==

--------------------------------------------------------------------------
#psi4
#
memory 32 gb

molecule  {
0 1
  N        0.0402460     1.4416600     0.0000620
  C        0.0067477     0.2553752    -0.0002709
  C       -1.3400130    -0.5204670     0.0000250
  C        1.2044310    -0.7598510     0.0000030
  H       -2.1277100     0.2335740    -0.0000130
  H       -1.4495710    -1.1615970    -0.8813460
  H       -1.4493400    -1.1611390     0.8817800
  H        2.1385520    -0.1918070    -0.0030740
  H        1.1876380    -1.4127410    -0.8791240
  H        1.1905740    -1.4078120     0.8828600
  H        1.0180780     1.7593200     0.0001080
units angstrom
no_reorient  #important for SAPT in psi4, default
symmetry c1  #important for SAPT in psi4, default
}

set PROPERTIES_ORIGIN ["COM"]
properties('MP2/aug-cc-pvtz', properties = ['dipole'])
--------------------------------------------------------------------------

    Molecular point group: c1
  Charge       = 0
  Multiplicity = 1
  Basis Set: AUG-CC-PVTZ
    Blend: AUG-CC-PVTZ
  Basis Set: (AUG-CC-PVTZ AUX)
    Blend: AUG-CC-PVTZ-JKFIT

    Orbital Energies [Eh]
    ---------------------

    Doubly Occupied:

       1A    -15.536164     2A    -11.278606     3A    -11.234974
       4A    -11.220513     5A     -1.249184     6A     -0.999790
       7A     -0.944866     8A     -0.743725     9A     -0.648966
      10A     -0.601240    11A     -0.599377    12A     -0.554269
      13A     -0.545286    14A     -0.509409    15A     -0.448128
      16A     -0.396918

  @DF-RHF Final Energy:  -172.17136175927882

   => Energetics <=

    Nuclear Repulsion Energy =            120.4877571125789757
    One-Electron Energy =                -470.2954072072472513
    Two-Electron Energy =                 177.6362883353894233
    Total Energy =                       -172.1713617592788239
  Basis Set: (AUG-CC-PVTZ AUX)
    Blend: AUG-CC-PVTZ-RI
    Molecular point group: c1

    Geometry (in Angstrom), charge = 0, multiplicity = 1:

       Center              X                  Y                   Z               Mass
    ------------   -----------------  -----------------  -----------------  -----------------
         N            0.048487566134     1.362442095858     0.000076832136    14.003074004430
         C            0.014989266134     0.176157295858    -0.000256067864    12.000000000000
         C           -1.331771433866    -0.599684904142     0.000039832136    12.000000000000
         C            1.212672566134    -0.839068904142     0.000017832136    12.000000000000
         H           -2.119468433866     0.154356095858     0.000001832136     1.007825032230
         H           -1.441329433866    -1.240814904142    -0.881331167864     1.007825032230
         H           -1.441098433866    -1.240356904142     0.881794832136     1.007825032230
         H            2.146793566134    -0.271024904142    -0.003059167864     1.007825032230
         H            1.195879566134    -1.491958904142    -0.879109167864     1.007825032230
         H            1.198815566134    -1.487029904142     0.882874832136     1.007825032230
         H            1.026319566134     1.680102095858     0.000122832136     1.007825032230

  Basis Set: AUG-CC-PVTZ
    Blend: AUG-CC-PVTZ
  Basis Set: (AUG-CC-PVTZ AUX)
    Blend: AUG-CC-PVTZ-JKFIT
	 Reference Energy          =    -172.1713617592788239 [Eh]
	 Singles Energy            =      -0.0000000000000000 [Eh]
	 Same-Spin Energy          =      -0.1758824367194707 [Eh]
	 Opposite-Spin Energy      =      -0.6233257606091913 [Eh]
	 Correlation Energy        =      -0.7992081973286620 [Eh]
	 Total Energy              =    -172.9705699566074770 [Eh]

	 ================> DF-SCS-MP2 Energies <==================
	-----------------------------------------------------------
	 SCS Same-Spin Scale       =       0.3333333333333333 [-]
	 SCS Opposite-Spin Scale   =       1.2000000000000000 [-]
	 SCS Same-Spin Energy      =      -0.0586274789064902 [Eh]
	 SCS Opposite-Spin Energy  =      -0.7479909127310296 [Eh]
	 SCS Correlation Energy    =      -0.8066183916375198 [Eh]
	 SCS Total Energy          =    -172.9779801509163519 [Eh]
	-----------------------------------------------------------

  Dipole Moment: [D]
     X:     1.2433      Y:    -1.8025      Z:     0.0003     Total:     2.1897

*** Psi4 exiting successfully. Buy a developer a beer!
