                               Psi4 1.3.2 release

  ==> Input File <==

--------------------------------------------------------------------------
#psi4
#
memory 32 gb

molecule  {
0 1
  N        0.0402460     1.4416600     0.0000620
  C        0.0039250     0.1554150    -0.0002990
  C       -1.3516041    -0.4969091     0.0000164
  C        1.2044310    -0.7598510     0.0000030
  H       -2.1277100     0.2335740    -0.0000130
  H       -1.4495710    -1.1615970    -0.8813460
  H       -1.4493400    -1.1611390     0.8817800
  H        2.1385520    -0.1918070    -0.0030740
  H        1.1876380    -1.4127410    -0.8791240
  H        1.1905740    -1.4078120     0.8828600
  H        1.0180780     1.7593200     0.0001080
units angstrom
no_reorient  #important for SAPT in psi4, default
symmetry c1  #important for SAPT in psi4, default
}

set PROPERTIES_ORIGIN ["COM"]
properties('MP2/aug-cc-pvtz', properties = ['dipole'])
--------------------------------------------------------------------------

    Molecular point group: c1
  Charge       = 0
  Multiplicity = 1
  Basis Set: AUG-CC-PVTZ
    Blend: AUG-CC-PVTZ
  Basis Set: (AUG-CC-PVTZ AUX)
    Blend: AUG-CC-PVTZ-JKFIT

    Orbital Energies [Eh]
    ---------------------

    Doubly Occupied:

       1A    -15.541433     2A    -11.288272     3A    -11.238280
       4A    -11.224416     5A     -1.204589     6A     -1.010295
       7A     -0.958076     8A     -0.741002     9A     -0.650049
      10A     -0.605651    11A     -0.603950    12A     -0.546681
      13A     -0.543092    14A     -0.521988    15A     -0.414797
      16A     -0.409911

  @DF-RHF Final Energy:  -172.18129452416548

   => Energetics <=

    Nuclear Repulsion Energy =            120.0337585919842809
    One-Electron Energy =                -469.4251424752010280
    Two-Electron Energy =                 177.2100893590512669
    Total Energy =                       -172.1812945241654802
  Basis Set: (AUG-CC-PVTZ AUX)
    Blend: AUG-CC-PVTZ-RI
    Molecular point group: c1

    Geometry (in Angstrom), charge = 0, multiplicity = 1:

       Center              X                  Y                   Z               Mass
    ------------   -----------------  -----------------  -----------------  -----------------
         N            0.051518973773     1.378510482809     0.000084550619    14.003074004430
         C            0.015197973773     0.092265482809    -0.000276449381    12.000000000000
         C           -1.340331126227    -0.560058617191     0.000038950619    12.000000000000
         C            1.215703973773    -0.823000517191     0.000025550619    12.000000000000
         H           -2.116437026227     0.170424482809     0.000009550619     1.007825032230
         H           -1.438298026227    -1.224746517191    -0.881323449381     1.007825032230
         H           -1.438067026227    -1.224288517191     0.881802550619     1.007825032230
         H            2.149824973773    -0.254956517191    -0.003051449381     1.007825032230
         H            1.198910973773    -1.475890517191    -0.879101449381     1.007825032230
         H            1.201846973773    -1.470961517191     0.882882550619     1.007825032230
         H            1.029350973773     1.696170482809     0.000130550619     1.007825032230

  Basis Set: AUG-CC-PVTZ
    Blend: AUG-CC-PVTZ
  Basis Set: (AUG-CC-PVTZ AUX)
    Blend: AUG-CC-PVTZ-JKFIT
	 Reference Energy          =    -172.1812945241654802 [Eh]
	 Singles Energy            =      -0.0000000000000000 [Eh]
	 Same-Spin Energy          =      -0.1775523473423099 [Eh]
	 Opposite-Spin Energy      =      -0.6270890375417189 [Eh]
	 Correlation Energy        =      -0.8046413848840288 [Eh]
	 Total Energy              =    -172.9859359090495161 [Eh]

	 ================> DF-SCS-MP2 Energies <==================
	-----------------------------------------------------------
	 SCS Same-Spin Scale       =       0.3333333333333333 [-]
	 SCS Opposite-Spin Scale   =       1.2000000000000000 [-]
	 SCS Same-Spin Energy      =      -0.0591841157807700 [Eh]
	 SCS Opposite-Spin Energy  =      -0.7525068450500626 [Eh]
	 SCS Correlation Energy    =      -0.8116909608308326 [Eh]
	 SCS Total Energy          =    -172.9929854849963249 [Eh]
	-----------------------------------------------------------

  Dipole Moment: [D]
     X:     1.2168      Y:    -2.1600      Z:     0.0004     Total:     2.4792

*** Psi4 exiting successfully. Buy a developer a beer!
