                               Psi4 1.3.2 release

  ==> Input File <==

--------------------------------------------------------------------------
#psi4
#
memory 32 gb

molecule  {
0 1
  N        0.0177924     1.4420980     0.0000519
  C        0.0039250     0.1554150    -0.0002990
  C       -1.3400130    -0.5204670     0.0000250
  C        1.2044310    -0.7598510     0.0000030
  H       -2.1277100     0.2335740    -0.0000130
  H       -1.4495710    -1.1615970    -0.8813460
  H       -1.4493400    -1.1611390     0.8817800
  H        2.1385520    -0.1918070    -0.0030740
  H        1.1876380    -1.4127410    -0.8791240
  H        1.1905740    -1.4078120     0.8828600
  H        1.0180780     1.7593200     0.0001080
units angstrom
no_reorient  #important for SAPT in psi4, default
symmetry c1  #important for SAPT in psi4, default
}

set PROPERTIES_ORIGIN ["COM"]
properties('MP2/aug-cc-pvtz', properties = ['dipole'])
--------------------------------------------------------------------------

    Molecular point group: c1
  Charge       = 0
  Multiplicity = 1
  Basis Set: AUG-CC-PVTZ
    Blend: AUG-CC-PVTZ
  Basis Set: (AUG-CC-PVTZ AUX)
    Blend: AUG-CC-PVTZ-JKFIT

    Orbital Energies [Eh]
    ---------------------

    Doubly Occupied:

       1A    -15.545230     2A    -11.288244     3A    -11.238617
       4A    -11.223278     5A     -1.203851     6A     -1.010529
       7A     -0.957211     8A     -0.736819     9A     -0.647065
      10A     -0.608060    11A     -0.603455    12A     -0.551042
      13A     -0.539354    14A     -0.517415    15A     -0.416428
      16A     -0.411305

  @DF-RHF Final Energy:  -172.18048557201712

   => Energetics <=

    Nuclear Repulsion Energy =            119.9801666058865948
    One-Electron Energy =                -469.3254996856614980
    Two-Electron Energy =                 177.1648475077577700
    Total Energy =                       -172.1804855720171190
  Basis Set: (AUG-CC-PVTZ AUX)
    Blend: AUG-CC-PVTZ-RI
    Molecular point group: c1

    Geometry (in Angstrom), charge = 0, multiplicity = 1:

       Center              X                  Y                   Z               Mass
    ------------   -----------------  -----------------  -----------------  -----------------
         N            0.032138153852     1.383795518884     0.000075120659    14.003074004430
         C            0.018270753852     0.097112518884    -0.000275779341    12.000000000000
         C           -1.325667246148    -0.578769481116     0.000048220659    12.000000000000
         C            1.218776753852    -0.818153481116     0.000026220659    12.000000000000
         H           -2.113364246148     0.175271518884     0.000010220659     1.007825032230
         H           -1.435225246148    -1.219899481116    -0.881322779341     1.007825032230
         H           -1.434994246148    -1.219441481116     0.881803220659     1.007825032230
         H            2.152897753852    -0.250109481116    -0.003050779341     1.007825032230
         H            1.201983753852    -1.471043481116    -0.879100779341     1.007825032230
         H            1.204919753852    -1.466114481116     0.882883220659     1.007825032230
         H            1.032423753852     1.701017518884     0.000131220659     1.007825032230

  Basis Set: AUG-CC-PVTZ
    Blend: AUG-CC-PVTZ
  Basis Set: (AUG-CC-PVTZ AUX)
    Blend: AUG-CC-PVTZ-JKFIT
	 Reference Energy          =    -172.1804855720171190 [Eh]
	 Singles Energy            =      -0.0000000000000000 [Eh]
	 Same-Spin Energy          =      -0.1777767389624316 [Eh]
	 Opposite-Spin Energy      =      -0.6276841981799096 [Eh]
	 Correlation Energy        =      -0.8054609371423411 [Eh]
	 Total Energy              =    -172.9859465091594473 [Eh]

	 ================> DF-SCS-MP2 Energies <==================
	-----------------------------------------------------------
	 SCS Same-Spin Scale       =       0.3333333333333333 [-]
	 SCS Opposite-Spin Scale   =       1.2000000000000000 [-]
	 SCS Same-Spin Energy      =      -0.0592589129874772 [Eh]
	 SCS Opposite-Spin Energy  =      -0.7532210378158916 [Eh]
	 SCS Correlation Energy    =      -0.8124799508033688 [Eh]
	 SCS Total Energy          =    -172.9929655228204979 [Eh]
	-----------------------------------------------------------

  Dipole Moment: [D]
     X:     1.2468      Y:    -2.1621      Z:     0.0005     Total:     2.4958

*** Psi4 exiting successfully. Buy a developer a beer!
