                               Psi4 1.3.2 release

  ==> Input File <==

--------------------------------------------------------------------------
#psi4
#
memory 32 gb

molecule  {
0 1
  N        0.0402460     1.4416600     0.0000620
  C       -0.0234083     0.2016522     0.0899232
  C       -1.3400130    -0.5204670     0.0000250
  C        1.2044310    -0.7598510     0.0000030
  H       -2.1277100     0.2335740    -0.0000130
  H       -1.4495710    -1.1615970    -0.8813460
  H       -1.4493400    -1.1611390     0.8817800
  H        2.1385520    -0.1918070    -0.0030740
  H        1.1876380    -1.4127410    -0.8791240
  H        1.1905740    -1.4078120     0.8828600
  H        1.0180780     1.7593200     0.0001080
units angstrom
no_reorient  #important for SAPT in psi4, default
symmetry c1  #important for SAPT in psi4, default
}

set PROPERTIES_ORIGIN ["COM"]
properties('MP2/aug-cc-pvtz', properties = ['dipole'])
--------------------------------------------------------------------------

    Molecular point group: c1
  Charge       = 0
  Multiplicity = 1
  Basis Set: AUG-CC-PVTZ
    Blend: AUG-CC-PVTZ
  Basis Set: (AUG-CC-PVTZ AUX)
    Blend: AUG-CC-PVTZ-JKFIT

    Orbital Energies [Eh]
    ---------------------

    Doubly Occupied:

       1A    -15.540363     2A    -11.284931     3A    -11.235985
       4A    -11.223229     5A     -1.221049     6A     -1.006329
       7A     -0.951220     8A     -0.743444     9A     -0.647733
      10A     -0.603613    11A     -0.598666    12A     -0.552594
      13A     -0.548021    14A     -0.513197    15A     -0.426030
      16A     -0.404814

  @DF-RHF Final Energy:  -172.17788944647580

   => Energetics <=

    Nuclear Repulsion Energy =            120.1280862415364794
    One-Electron Energy =                -469.6095167238124191
    Two-Electron Energy =                 177.3035410358001229
    Total Energy =                       -172.1778894464758025
  Basis Set: (AUG-CC-PVTZ AUX)
    Blend: AUG-CC-PVTZ-RI
    Molecular point group: c1

    Geometry (in Angstrom), charge = 0, multiplicity = 1:

       Center              X                  Y                   Z               Mass
    ------------   -----------------  -----------------  -----------------  -----------------
         N            0.054829761027     1.373740734147    -0.018892147848    14.003074004430
         C           -0.008824538973     0.133732934147     0.070969052152    12.000000000000
         C           -1.325429238973    -0.588386265853    -0.018929147848    12.000000000000
         C            1.219014761027    -0.827770265853    -0.018951147848    12.000000000000
         H           -2.113126238973     0.165654734147    -0.018967147848     1.007825032230
         H           -1.434987238973    -1.229516265853    -0.900300147848     1.007825032230
         H           -1.434756238973    -1.229058265853     0.862825852152     1.007825032230
         H            2.153135761027    -0.259726265853    -0.022028147848     1.007825032230
         H            1.202221761027    -1.480660265853    -0.898078147848     1.007825032230
         H            1.205157761027    -1.475731265853     0.863905852152     1.007825032230
         H            1.032661761027     1.691400734147    -0.018846147848     1.007825032230

  Basis Set: AUG-CC-PVTZ
    Blend: AUG-CC-PVTZ
  Basis Set: (AUG-CC-PVTZ AUX)
    Blend: AUG-CC-PVTZ-JKFIT
	 Reference Energy          =    -172.1778894464758025 [Eh]
	 Singles Energy            =      -0.0000000000000000 [Eh]
	 Same-Spin Energy          =      -0.1768289326760810 [Eh]
	 Opposite-Spin Energy      =      -0.6257216387575315 [Eh]
	 Correlation Energy        =      -0.8025505714336125 [Eh]
	 Total Energy              =    -172.9804400179094159 [Eh]

	 ================> DF-SCS-MP2 Energies <==================
	-----------------------------------------------------------
	 SCS Same-Spin Scale       =       0.3333333333333333 [-]
	 SCS Opposite-Spin Scale   =       1.2000000000000000 [-]
	 SCS Same-Spin Energy      =      -0.0589429775586937 [Eh]
	 SCS Opposite-Spin Energy  =      -0.7508659665090378 [Eh]
	 SCS Correlation Energy    =      -0.8098089440677314 [Eh]
	 SCS Total Energy          =    -172.9876983905435281 [Eh]
	-----------------------------------------------------------

  Dipole Moment: [D]
     X:     1.1387      Y:    -1.9920      Z:    -0.0217     Total:     2.2946

*** Psi4 exiting successfully. Buy a developer a beer!
