                               Psi4 1.3.2 release

  ==> Input File <==

--------------------------------------------------------------------------
#psi4
#
memory 32 gb

molecule  {
0 1
  N        0.0626885     1.4408302     0.0000720
  C        0.0039250     0.1554150    -0.0002990
  C       -1.3400130    -0.5204670     0.0000250
  C        1.2044310    -0.7598510     0.0000030
  H       -2.1277100     0.2335740    -0.0000130
  H       -1.4495710    -1.1615970    -0.8813460
  H       -1.4493400    -1.1611390     0.8817800
  H        2.1385520    -0.1918070    -0.0030740
  H        1.1876380    -1.4127410    -0.8791240
  H        1.1905740    -1.4078120     0.8828600
  H        1.0180780     1.7593200     0.0001080
units angstrom
no_reorient  #important for SAPT in psi4, default
symmetry c1  #important for SAPT in psi4, default
}

set PROPERTIES_ORIGIN ["COM"]
properties('MP2/aug-cc-pvtz', properties = ['dipole'])
--------------------------------------------------------------------------

    Molecular point group: c1
  Charge       = 0
  Multiplicity = 1
  Basis Set: AUG-CC-PVTZ
    Blend: AUG-CC-PVTZ
  Basis Set: (AUG-CC-PVTZ AUX)
    Blend: AUG-CC-PVTZ-JKFIT

    Orbital Energies [Eh]
    ---------------------

    Doubly Occupied:

       1A    -15.538958     2A    -11.288693     3A    -11.236529
       4A    -11.224998     5A     -1.205320     6A     -1.012273
       7A     -0.957106     8A     -0.746099     9A     -0.649572
      10A     -0.607625    11A     -0.603277    12A     -0.551044
      13A     -0.544047    14A     -0.518103    15A     -0.412871
      16A     -0.410733

  @DF-RHF Final Energy:  -172.18257351733087

   => Energetics <=

    Nuclear Repulsion Energy =            120.1047491600797059
    One-Electron Energy =                -469.5601485879257666
    Two-Electron Energy =                 177.2728259105151665
    Total Energy =                       -172.1825735173308658
  Basis Set: (AUG-CC-PVTZ AUX)
    Blend: AUG-CC-PVTZ-RI
    Molecular point group: c1

    Geometry (in Angstrom), charge = 0, multiplicity = 1:

       Center              X                  Y                   Z               Mass
    ------------   -----------------  -----------------  -----------------  -----------------
         N            0.066015902840     1.382838860952     0.000090287739    14.003074004430
         C            0.007252402840     0.097423660952    -0.000280712261    12.000000000000
         C           -1.336685597160    -0.578458339048     0.000043287739    12.000000000000
         C            1.207758402840    -0.817842339048     0.000021287739    12.000000000000
         H           -2.124382597160     0.175582660952     0.000005287739     1.007825032230
         H           -1.446243597160    -1.219588339048    -0.881327712261     1.007825032230
         H           -1.446012597160    -1.219130339048     0.881798287739     1.007825032230
         H            2.141879402840    -0.249798339048    -0.003055712261     1.007825032230
         H            1.190965402840    -1.470732339048    -0.879105712261     1.007825032230
         H            1.193901402840    -1.465803339048     0.882878287739     1.007825032230
         H            1.021405402840     1.701328660952     0.000126287739     1.007825032230

  Basis Set: AUG-CC-PVTZ
    Blend: AUG-CC-PVTZ
  Basis Set: (AUG-CC-PVTZ AUX)
    Blend: AUG-CC-PVTZ-JKFIT
	 Reference Energy          =    -172.1825735173308658 [Eh]
	 Singles Energy            =      -0.0000000000000000 [Eh]
	 Same-Spin Energy          =      -0.1773683988698974 [Eh]
	 Opposite-Spin Energy      =      -0.6265878167609806 [Eh]
	 Correlation Energy        =      -0.8039562156308780 [Eh]
	 Total Energy              =    -172.9865297329617420 [Eh]

	 ================> DF-SCS-MP2 Energies <==================
	-----------------------------------------------------------
	 SCS Same-Spin Scale       =       0.3333333333333333 [-]
	 SCS Opposite-Spin Scale   =       1.2000000000000000 [-]
	 SCS Same-Spin Energy      =      -0.0591227996232991 [Eh]
	 SCS Opposite-Spin Energy  =      -0.7519053801131768 [Eh]
	 SCS Correlation Energy    =      -0.8110281797364759 [Eh]
	 SCS Total Energy          =    -172.9936016970673336 [Eh]
	-----------------------------------------------------------

  Dipole Moment: [D]
     X:     1.1804      Y:    -2.1518      Z:     0.0004     Total:     2.4543

*** Psi4 exiting successfully. Buy a developer a beer!
