                               Psi4 1.3.2 release

  ==> Input File <==

--------------------------------------------------------------------------
#psi4
#
memory 32 gb

molecule  {
0 1
  N        0.0402460     1.4416600     0.0000620
  C       -0.0185175     0.1562448    -0.0002978
  C       -1.3400130    -0.5204670     0.0000250
  C        1.2044310    -0.7598510     0.0000030
  H       -2.1277100     0.2335740    -0.0000130
  H       -1.4495710    -1.1615970    -0.8813460
  H       -1.4493400    -1.1611390     0.8817800
  H        2.1385520    -0.1918070    -0.0030740
  H        1.1876380    -1.4127410    -0.8791240
  H        1.1905740    -1.4078120     0.8828600
  H        1.0180780     1.7593200     0.0001080
units angstrom
no_reorient  #important for SAPT in psi4, default
symmetry c1  #important for SAPT in psi4, default
}

set PROPERTIES_ORIGIN ["COM"]
properties('MP2/aug-cc-pvtz', properties = ['dipole'])
--------------------------------------------------------------------------

    Molecular point group: c1
  Charge       = 0
  Multiplicity = 1
  Basis Set: AUG-CC-PVTZ
    Blend: AUG-CC-PVTZ
  Basis Set: (AUG-CC-PVTZ AUX)
    Blend: AUG-CC-PVTZ-JKFIT

    Orbital Energies [Eh]
    ---------------------

    Doubly Occupied:

       1A    -15.541567     2A    -11.288497     3A    -11.237274
       4A    -11.224265     5A     -1.203819     6A     -1.011411
       7A     -0.957539     8A     -0.742173     9A     -0.648031
      10A     -0.607648    11A     -0.601120    12A     -0.551477
      13A     -0.544877    14A     -0.519523    15A     -0.412041
      16A     -0.410595

  @DF-RHF Final Energy:  -172.18161581121905

   => Energetics <=

    Nuclear Repulsion Energy =            120.0485043091878907
    One-Electron Energy =                -469.4565227327460093
    Two-Electron Energy =                 177.2264026123390863
    Total Energy =                       -172.1816158112190465
  Basis Set: (AUG-CC-PVTZ AUX)
    Blend: AUG-CC-PVTZ-RI
    Molecular point group: c1

    Geometry (in Angstrom), charge = 0, multiplicity = 1:

       Center              X                  Y                   Z               Mass
    ------------   -----------------  -----------------  -----------------  -----------------
         N            0.053801162845     1.383290494738     0.000082489553    14.003074004430
         C           -0.004962337155     0.097875294738    -0.000277310447    12.000000000000
         C           -1.326457837155    -0.578836505262     0.000045489553    12.000000000000
         C            1.217986162845    -0.818220505262     0.000023489553    12.000000000000
         H           -2.114154837155     0.175204494738     0.000007489553     1.007825032230
         H           -1.436015837155    -1.219966505262    -0.881325510447     1.007825032230
         H           -1.435784837155    -1.219508505262     0.881800489553     1.007825032230
         H            2.152107162845    -0.250176505262    -0.003053510447     1.007825032230
         H            1.201193162845    -1.471110505262    -0.879103510447     1.007825032230
         H            1.204129162845    -1.466181505262     0.882880489553     1.007825032230
         H            1.031633162845     1.700950494738     0.000128489553     1.007825032230

  Basis Set: AUG-CC-PVTZ
    Blend: AUG-CC-PVTZ
  Basis Set: (AUG-CC-PVTZ AUX)
    Blend: AUG-CC-PVTZ-JKFIT
	 Reference Energy          =    -172.1816158112190465 [Eh]
	 Singles Energy            =      -0.0000000000000000 [Eh]
	 Same-Spin Energy          =      -0.1775526327970565 [Eh]
	 Opposite-Spin Energy      =      -0.6270564106175073 [Eh]
	 Correlation Energy        =      -0.8046090434145637 [Eh]
	 Total Energy              =    -172.9862248546336048 [Eh]

	 ================> DF-SCS-MP2 Energies <==================
	-----------------------------------------------------------
	 SCS Same-Spin Scale       =       0.3333333333333333 [-]
	 SCS Opposite-Spin Scale   =       1.2000000000000000 [-]
	 SCS Same-Spin Energy      =      -0.0591842109323522 [Eh]
	 SCS Opposite-Spin Energy  =      -0.7524676927410087 [Eh]
	 SCS Correlation Energy    =      -0.8116519036733608 [Eh]
	 SCS Total Energy          =    -172.9932677148923972 [Eh]
	-----------------------------------------------------------

  Dipole Moment: [D]
     X:     1.1488      Y:    -2.1573      Z:     0.0004     Total:     2.4441

*** Psi4 exiting successfully. Buy a developer a beer!
