                               Psi4 1.3.2 release

  ==> Input File <==

--------------------------------------------------------------------------
#psi4
#
memory 32 gb

molecule  {
0 1
  N        0.0402460     1.4416600     0.0000620
  C        0.0263786     0.1549770    -0.0003001
  C       -1.3400130    -0.5204670     0.0000250
  C        1.2044310    -0.7598510     0.0000030
  H       -2.1277100     0.2335740    -0.0000130
  H       -1.4495710    -1.1615970    -0.8813460
  H       -1.4493400    -1.1611390     0.8817800
  H        2.1385520    -0.1918070    -0.0030740
  H        1.1876380    -1.4127410    -0.8791240
  H        1.1905740    -1.4078120     0.8828600
  H        1.0180780     1.7593200     0.0001080
units angstrom
no_reorient  #important for SAPT in psi4, default
symmetry c1  #important for SAPT in psi4, default
}

set PROPERTIES_ORIGIN ["COM"]
properties('MP2/aug-cc-pvtz', properties = ['dipole'])
--------------------------------------------------------------------------

    Molecular point group: c1
  Charge       = 0
  Multiplicity = 1
  Basis Set: AUG-CC-PVTZ
    Blend: AUG-CC-PVTZ
  Basis Set: (AUG-CC-PVTZ AUX)
    Blend: AUG-CC-PVTZ-JKFIT

    Orbital Energies [Eh]
    ---------------------

    Doubly Occupied:

       1A    -15.542703     2A    -11.288452     3A    -11.237830
       4A    -11.223935     5A     -1.205330     6A     -1.012299
       7A     -0.956069     8A     -0.740376     9A     -0.648889
      10A     -0.608267    11A     -0.605675    12A     -0.550430
      13A     -0.539503    14A     -0.514852    15A     -0.417078
      16A     -0.411426

  @DF-RHF Final Energy:  -172.18125839433912

   => Energetics <=

    Nuclear Repulsion Energy =            120.0341327629544850
    One-Electron Energy =                -469.4245556348106447
    Two-Electron Energy =                 177.2091644775170494
    Total Energy =                       -172.1812583943391246
  Basis Set: (AUG-CC-PVTZ AUX)
    Blend: AUG-CC-PVTZ-RI
    Molecular point group: c1

    Geometry (in Angstrom), charge = 0, multiplicity = 1:

       Center              X                  Y                   Z               Mass
    ------------   -----------------  -----------------  -----------------  -----------------
         N            0.044358935224     1.383557129394     0.000082973272    14.003074004430
         C            0.030491535224     0.096874129394    -0.000279126728    12.000000000000
         C           -1.335900064776    -0.578569870606     0.000045973272    12.000000000000
         C            1.208543935224    -0.817953870606     0.000023973272    12.000000000000
         H           -2.123597064776     0.175471129394     0.000007973272     1.007825032230
         H           -1.445458064776    -1.219699870606    -0.881325026728     1.007825032230
         H           -1.445227064776    -1.219241870606     0.881800973272     1.007825032230
         H            2.142664935224    -0.249909870606    -0.003053026728     1.007825032230
         H            1.191750935224    -1.470843870606    -0.879103026728     1.007825032230
         H            1.194686935224    -1.465914870606     0.882880973272     1.007825032230
         H            1.022190935224     1.701217129394     0.000128973272     1.007825032230

  Basis Set: AUG-CC-PVTZ
    Blend: AUG-CC-PVTZ
  Basis Set: (AUG-CC-PVTZ AUX)
    Blend: AUG-CC-PVTZ-JKFIT
	 Reference Energy          =    -172.1812583943391246 [Eh]
	 Singles Energy            =      -0.0000000000000000 [Eh]
	 Same-Spin Energy          =      -0.1776218632294943 [Eh]
	 Opposite-Spin Energy      =      -0.6272532110570219 [Eh]
	 Correlation Energy        =      -0.8048750742865163 [Eh]
	 Total Energy              =    -172.9861334686256384 [Eh]

	 ================> DF-SCS-MP2 Energies <==================
	-----------------------------------------------------------
	 SCS Same-Spin Scale       =       0.3333333333333333 [-]
	 SCS Opposite-Spin Scale   =       1.2000000000000000 [-]
	 SCS Same-Spin Energy      =      -0.0592072877431648 [Eh]
	 SCS Opposite-Spin Energy  =      -0.7527038532684263 [Eh]
	 SCS Correlation Energy    =      -0.8119111410115910 [Eh]
	 SCS Total Energy          =    -172.9931695353507166 [Eh]
	-----------------------------------------------------------

  Dipole Moment: [D]
     X:     1.2800      Y:    -2.1549      Z:     0.0004     Total:     2.5064

*** Psi4 exiting successfully. Buy a developer a beer!
