                               Psi4 1.3.2 release

  ==> Input File <==

--------------------------------------------------------------------------
#psi4
#
memory 32 gb

molecule  {
0 1
  N        0.0851132     1.4396089     0.0000819
  C        0.0039250     0.1554150    -0.0002990
  C       -1.3400130    -0.5204670     0.0000250
  C        1.2044310    -0.7598510     0.0000030
  H       -2.1277100     0.2335740    -0.0000130
  H       -1.4495710    -1.1615970    -0.8813460
  H       -1.4493400    -1.1611390     0.8817800
  H        2.1385520    -0.1918070    -0.0030740
  H        1.1876380    -1.4127410    -0.8791240
  H        1.1905740    -1.4078120     0.8828600
  H        1.0180780     1.7593200     0.0001080
units angstrom
no_reorient  #important for SAPT in psi4, default
symmetry c1  #important for SAPT in psi4, default
}

set PROPERTIES_ORIGIN ["COM"]
properties('MP2/aug-cc-pvtz', properties = ['dipole'])
--------------------------------------------------------------------------

    Molecular point group: c1
  Charge       = 0
  Multiplicity = 1
  Basis Set: AUG-CC-PVTZ
    Blend: AUG-CC-PVTZ
  Basis Set: (AUG-CC-PVTZ AUX)
    Blend: AUG-CC-PVTZ-JKFIT

    Orbital Energies [Eh]
    ---------------------

    Doubly Occupied:

       1A    -15.535825     2A    -11.289042     3A    -11.235487
       4A    -11.225906     5A     -1.206253     6A     -1.013341
       7A     -0.956972     8A     -0.751351     9A     -0.650749
      10A     -0.607455    11A     -0.603201    12A     -0.551057
      13A     -0.546387    14A     -0.518400    15A     -0.410738
      16A     -0.410504

  @DF-RHF Final Energy:  -172.18217818725026

   => Energetics <=

    Nuclear Repulsion Energy =            120.1753042962042315
    One-Electron Energy =                -469.6896306543133619
    Two-Electron Energy =                 177.3321481708588863
    Total Energy =                       -172.1821781872502584
  Basis Set: (AUG-CC-PVTZ AUX)
    Blend: AUG-CC-PVTZ-RI
    Molecular point group: c1

    Geometry (in Angstrom), charge = 0, multiplicity = 1:

       Center              X                  Y                   Z               Mass
    ------------   -----------------  -----------------  -----------------  -----------------
         N            0.082937157865     1.381917291042     0.000097758092    14.003074004430
         C            0.001748957865     0.097723391042    -0.000283141908    12.000000000000
         C           -1.342189042135    -0.578158608958     0.000040858092    12.000000000000
         C            1.202254957865    -0.817542608958     0.000018858092    12.000000000000
         H           -2.129886042135     0.175882391042     0.000002858092     1.007825032230
         H           -1.451747042135    -1.219288608958    -0.881330141908     1.007825032230
         H           -1.451516042135    -1.218830608958     0.881795858092     1.007825032230
         H            2.136375957865    -0.249498608958    -0.003058141908     1.007825032230
         H            1.185461957865    -1.470432608958    -0.879108141908     1.007825032230
         H            1.188397957865    -1.465503608958     0.882875858092     1.007825032230
         H            1.015901957865     1.701628391042     0.000123858092     1.007825032230

  Basis Set: AUG-CC-PVTZ
    Blend: AUG-CC-PVTZ
  Basis Set: (AUG-CC-PVTZ AUX)
    Blend: AUG-CC-PVTZ-JKFIT
	 Reference Energy          =    -172.1821781872502584 [Eh]
	 Singles Energy            =      -0.0000000000000000 [Eh]
	 Same-Spin Energy          =      -0.1771910692930379 [Eh]
	 Opposite-Spin Energy      =      -0.6261091508240796 [Eh]
	 Correlation Energy        =      -0.8033002201171175 [Eh]
	 Total Energy              =    -172.9854784073673670 [Eh]

	 ================> DF-SCS-MP2 Energies <==================
	-----------------------------------------------------------
	 SCS Same-Spin Scale       =       0.3333333333333333 [-]
	 SCS Opposite-Spin Scale   =       1.2000000000000000 [-]
	 SCS Same-Spin Energy      =      -0.0590636897643460 [Eh]
	 SCS Opposite-Spin Energy  =      -0.7513309809888955 [Eh]
	 SCS Correlation Energy    =      -0.8103946707532415 [Eh]
	 SCS Total Energy          =    -172.9925728580035127 [Eh]
	-----------------------------------------------------------

  Dipole Moment: [D]
     X:     1.1436      Y:    -2.1474      Z:     0.0004     Total:     2.4329

*** Psi4 exiting successfully. Buy a developer a beer!
