                               Psi4 1.3.2 release

  ==> Input File <==

--------------------------------------------------------------------------
#psi4
#
memory 32 gb

molecule  {
0 1
  O       -2.1484710    -1.7769200    -0.0056360
  N       -0.1180990    -0.7430760    -0.2511680
  C        0.7299860     0.3339780    -0.2958210
  C        2.1818620     0.0407190    -0.5352160
  C        0.2450079     1.5562363     0.1706637
  C        2.8433400    -0.6629840     0.6549670
  C       -1.5021630    -0.7229610    -0.0075890
  C       -1.1865830     1.7077900     0.1829230
  C       -2.0093520     0.6149060     0.2198470
  H        2.2852110    -0.5739760    -1.4389020
  H        2.6915310     0.9874470    -0.7394040
  H        0.2447490    -1.6791740    -0.4204020
  H        0.8548030     2.4492830    -0.1032540
  H        3.9041830    -0.8397700     0.4571160
  H        2.3740450    -1.6291400     0.8604190
  H        2.7566000    -0.0487500     1.5548580
  H       -1.6048580     2.6974250     0.3552120
  H       -3.0731340     0.7034120     0.4140280
units angstrom
no_reorient  #important for SAPT in psi4, default
symmetry c1  #important for SAPT in psi4, default
}

set PROPERTIES_ORIGIN ["COM"]
properties('MP2/aug-cc-pvtz', properties = ['dipole'])
--------------------------------------------------------------------------

    Molecular point group: c1
  Charge       = 0
  Multiplicity = 1
  Basis Set: AUG-CC-PVTZ
    Blend: AUG-CC-PVTZ
  Basis Set: (AUG-CC-PVTZ AUX)
    Blend: AUG-CC-PVTZ-JKFIT

    Orbital Energies [Eh]
    ---------------------

    Doubly Occupied:

       1A    -20.509396     2A    -15.622964     3A    -11.352792
       4A    -11.323147     5A    -11.272064     6A    -11.263086
       7A    -11.243199     8A    -11.239461     9A    -11.232681
      10A     -1.369027    11A     -1.274275    12A     -1.099437
      13A     -1.088512    14A     -1.001817    15A     -0.902334
      16A     -0.866030    17A     -0.834182    18A     -0.734898
      19A     -0.689072    20A     -0.661316    21A     -0.636904
      22A     -0.623756    23A     -0.607079    24A     -0.603623
      25A     -0.561934    26A     -0.544710    27A     -0.542356
      28A     -0.525244    29A     -0.509273    30A     -0.468616
      31A     -0.423831    32A     -0.417309    33A     -0.308103

  @DF-RHF Final Energy:  -399.76627530828341

   => Energetics <=

    Nuclear Repulsion Energy =            426.1313667692001559
    One-Electron Energy =               -1387.0904296245507794
    Two-Electron Energy =                 561.1927875470671552
    Total Energy =                       -399.7662753082834115
  Basis Set: (AUG-CC-PVTZ AUX)
    Blend: AUG-CC-PVTZ-RI
    Molecular point group: c1

    Geometry (in Angstrom), charge = 0, multiplicity = 1:

       Center              X                  Y                   Z               Mass
    ------------   -----------------  -----------------  -----------------  -----------------
         O           -2.068203329752    -1.757972076724    -0.022025655651    15.994914619570
         N           -0.037831329752    -0.724128076724    -0.267557655651    14.003074004430
         C            0.810253670248     0.352925923276    -0.312210655651    12.000000000000
         C            2.262129670248     0.059666923276    -0.551605655651    12.000000000000
         C            0.325275570248     1.575184223276     0.154274044349    12.000000000000
         C            2.923607670248    -0.644036076724     0.638577344349    12.000000000000
         C           -1.421895329752    -0.704013076724    -0.023978655651    12.000000000000
         C           -1.106315329752     1.726737923276     0.166533344349    12.000000000000
         C           -1.929084329752     0.633853923276     0.203457344349    12.000000000000
         H            2.365478670248    -0.555028076724    -1.455291655651     1.007825032230
         H            2.771798670248     1.006394923276    -0.755793655651     1.007825032230
         H            0.325016670248    -1.660226076724    -0.436791655651     1.007825032230
         H            0.935070670248     2.468230923276    -0.119643655651     1.007825032230
         H            3.984450670248    -0.820822076724     0.440726344349     1.007825032230
         H            2.454312670248    -1.610192076724     0.844029344349     1.007825032230
         H            2.836867670248    -0.029802076724     1.538468344349     1.007825032230
         H           -1.524590329752     2.716372923276     0.338822344349     1.007825032230
         H           -2.992866329752     0.722359923276     0.397638344349     1.007825032230

  Basis Set: AUG-CC-PVTZ
    Blend: AUG-CC-PVTZ
  Basis Set: (AUG-CC-PVTZ AUX)
    Blend: AUG-CC-PVTZ-JKFIT
	 Reference Energy          =    -399.7662753082834115 [Eh]
	 Singles Energy            =      -0.0000000000000000 [Eh]
	 Same-Spin Energy          =      -0.4228354125752362 [Eh]
	 Opposite-Spin Energy      =      -1.3392548777438829 [Eh]
	 Correlation Energy        =      -1.7620902903191191 [Eh]
	 Total Energy              =    -401.5283655986025337 [Eh]

	 ================> DF-SCS-MP2 Energies <==================
	-----------------------------------------------------------
	 SCS Same-Spin Scale       =       0.3333333333333333 [-]
	 SCS Opposite-Spin Scale   =       1.2000000000000000 [-]
	 SCS Same-Spin Energy      =      -0.1409451375250787 [Eh]
	 SCS Opposite-Spin Energy  =      -1.6071058532926594 [Eh]
	 SCS Correlation Energy    =      -1.7480509908177382 [Eh]
	 SCS Total Energy          =    -401.5143262991011284 [Eh]
	-----------------------------------------------------------

  Dipole Moment: [D]
     X:     4.0008      Y:     2.4105      Z:    -0.4682     Total:     4.6943

*** Psi4 exiting successfully. Buy a developer a beer!
