                               Psi4 1.3.2 release

  ==> Input File <==

--------------------------------------------------------------------------
#psi4
#
memory 32 gb

molecule  {
0 1
  O       -2.1484710    -1.7769200    -0.0056360
  N       -0.1180990    -0.7430760    -0.2511680
  C        0.7299860     0.3339780    -0.2958210
  C        2.1818620     0.0407190    -0.5352160
  C        0.2527165     1.5514349     0.2198320
  C        2.8433400    -0.6629840     0.6549670
  C       -1.5021630    -0.7229610    -0.0075890
  C       -1.1865830     1.7077900     0.1829230
  C       -2.0093520     0.6149060     0.2198470
  H        2.2852110    -0.5739760    -1.4389020
  H        2.6915310     0.9874470    -0.7394040
  H        0.2447490    -1.6791740    -0.4204020
  H        0.8548030     2.4492830    -0.1032540
  H        3.9041830    -0.8397700     0.4571160
  H        2.3740450    -1.6291400     0.8604190
  H        2.7566000    -0.0487500     1.5548580
  H       -1.6048580     2.6974250     0.3552120
  H       -3.0731340     0.7034120     0.4140280
units angstrom
no_reorient  #important for SAPT in psi4, default
symmetry c1  #important for SAPT in psi4, default
}

set PROPERTIES_ORIGIN ["COM"]
properties('MP2/aug-cc-pvtz', properties = ['dipole'])
--------------------------------------------------------------------------

    Molecular point group: c1
  Charge       = 0
  Multiplicity = 1
  Basis Set: AUG-CC-PVTZ
    Blend: AUG-CC-PVTZ
  Basis Set: (AUG-CC-PVTZ AUX)
    Blend: AUG-CC-PVTZ-JKFIT

    Orbital Energies [Eh]
    ---------------------

    Doubly Occupied:

       1A    -20.510657     2A    -15.624102     3A    -11.353608
       4A    -11.326413     5A    -11.272789     6A    -11.263720
       7A    -11.243656     8A    -11.241295     9A    -11.232275
      10A     -1.370002    11A     -1.275062    12A     -1.098021
      13A     -1.088956    14A     -1.000852    15A     -0.902163
      16A     -0.865541    17A     -0.834407    18A     -0.734132
      19A     -0.687602    20A     -0.661243    21A     -0.636639
      22A     -0.623137    23A     -0.606552    24A     -0.604063
      25A     -0.561923    26A     -0.544066    27A     -0.539539
      28A     -0.525202    29A     -0.508484    30A     -0.468378
      31A     -0.424820    32A     -0.416421    33A     -0.308599

  @DF-RHF Final Energy:  -399.75871104643466

   => Energetics <=

    Nuclear Repulsion Energy =            425.8756830691450546
    One-Electron Energy =               -1386.5601463532652815
    Two-Electron Energy =                 560.9257522376856286
    Total Energy =                       -399.7587110464346551
  Basis Set: (AUG-CC-PVTZ AUX)
    Blend: AUG-CC-PVTZ-RI
    Molecular point group: c1

    Geometry (in Angstrom), charge = 0, multiplicity = 1:

       Center              X                  Y                   Z               Mass
    ------------   -----------------  -----------------  -----------------  -----------------
         O           -2.068954970218    -1.757503907856    -0.026819896360    15.994914619570
         N           -0.038582970218    -0.723659907856    -0.272351896360    14.003074004430
         C            0.809502029782     0.353394092144    -0.317004896360    12.000000000000
         C            2.261378029782     0.060135092144    -0.556399896360    12.000000000000
         C            0.332232529782     1.570850992144     0.198648103640    12.000000000000
         C            2.922856029782    -0.643567907856     0.633783103640    12.000000000000
         C           -1.422646970218    -0.703544907856    -0.028772896360    12.000000000000
         C           -1.107066970218     1.727206092144     0.161739103640    12.000000000000
         C           -1.929835970218     0.634322092144     0.198663103640    12.000000000000
         H            2.364727029782    -0.554559907856    -1.460085896360     1.007825032230
         H            2.771047029782     1.006863092144    -0.760587896360     1.007825032230
         H            0.324265029782    -1.659757907856    -0.441585896360     1.007825032230
         H            0.934319029782     2.468699092144    -0.124437896360     1.007825032230
         H            3.983699029782    -0.820353907856     0.435932103640     1.007825032230
         H            2.453561029782    -1.609723907856     0.839235103640     1.007825032230
         H            2.836116029782    -0.029333907856     1.533674103640     1.007825032230
         H           -1.525341970218     2.716841092144     0.334028103640     1.007825032230
         H           -2.993617970218     0.722828092144     0.392844103640     1.007825032230

  Basis Set: AUG-CC-PVTZ
    Blend: AUG-CC-PVTZ
  Basis Set: (AUG-CC-PVTZ AUX)
    Blend: AUG-CC-PVTZ-JKFIT
	 Reference Energy          =    -399.7587110464346551 [Eh]
	 Singles Energy            =      -0.0000000000000000 [Eh]
	 Same-Spin Energy          =      -0.4230367050565216 [Eh]
	 Opposite-Spin Energy      =      -1.3401666987960901 [Eh]
	 Correlation Energy        =      -1.7632034038526117 [Eh]
	 Total Energy              =    -401.5219144502872837 [Eh]

	 ================> DF-SCS-MP2 Energies <==================
	-----------------------------------------------------------
	 SCS Same-Spin Scale       =       0.3333333333333333 [-]
	 SCS Opposite-Spin Scale   =       1.2000000000000000 [-]
	 SCS Same-Spin Energy      =      -0.1410122350188405 [Eh]
	 SCS Opposite-Spin Energy  =      -1.6082000385553081 [Eh]
	 SCS Correlation Energy    =      -1.7492122735741487 [Eh]
	 SCS Total Energy          =    -401.5079233200087856 [Eh]
	-----------------------------------------------------------

  Dipole Moment: [D]
     X:     3.9641      Y:     2.3345      Z:    -0.5103     Total:     4.6287

*** Psi4 exiting successfully. Buy a developer a beer!
