                               Psi4 1.3.2 release

  ==> Input File <==

--------------------------------------------------------------------------
#psi4
#
memory 32 gb

molecule  {
0 1
  O       -2.1484710    -1.7769200    -0.0056360
  N       -0.1180990    -0.7430760    -0.2511680
  C        0.7299860     0.3339780    -0.2958210
  C        2.1818620     0.0407190    -0.5352160
  C        0.2372993     1.5610376     0.1214953
  C        2.8433400    -0.6629840     0.6549670
  C       -1.5021630    -0.7229610    -0.0075890
  C       -1.1865830     1.7077900     0.1829230
  C       -2.0093520     0.6149060     0.2198470
  H        2.2852110    -0.5739760    -1.4389020
  H        2.6915310     0.9874470    -0.7394040
  H        0.2447490    -1.6791740    -0.4204020
  H        0.8548030     2.4492830    -0.1032540
  H        3.9041830    -0.8397700     0.4571160
  H        2.3740450    -1.6291400     0.8604190
  H        2.7566000    -0.0487500     1.5548580
  H       -1.6048580     2.6974250     0.3552120
  H       -3.0731340     0.7034120     0.4140280
units angstrom
no_reorient  #important for SAPT in psi4, default
symmetry c1  #important for SAPT in psi4, default
}

set PROPERTIES_ORIGIN ["COM"]
properties('MP2/aug-cc-pvtz', properties = ['dipole'])
--------------------------------------------------------------------------

    Molecular point group: c1
  Charge       = 0
  Multiplicity = 1
  Basis Set: AUG-CC-PVTZ
    Blend: AUG-CC-PVTZ
  Basis Set: (AUG-CC-PVTZ AUX)
    Blend: AUG-CC-PVTZ-JKFIT

    Orbital Energies [Eh]
    ---------------------

    Doubly Occupied:

       1A    -20.508391     2A    -15.622017     3A    -11.352142
       4A    -11.320364     5A    -11.271452     6A    -11.262541
       7A    -11.242822     8A    -11.237924     9A    -11.233067
      10A     -1.368244    11A     -1.273631    12A     -1.100606
      13A     -1.088137    14A     -1.002633    15A     -0.902488
      16A     -0.866436    17A     -0.834007    18A     -0.735644
      19A     -0.690337    20A     -0.661469    21A     -0.637146
      22A     -0.624315    23A     -0.607983    24A     -0.602870
      25A     -0.562050    26A     -0.547207    27A     -0.542669
      28A     -0.525114    29A     -0.509870    30A     -0.468827
      31A     -0.422990    32A     -0.418083    33A     -0.307762

  @DF-RHF Final Energy:  -399.77242248805015

   => Energetics <=

    Nuclear Repulsion Energy =            426.3363412711869955
    One-Electron Energy =               -1387.5150472190123310
    Two-Electron Energy =                 561.4062834597751817
    Total Energy =                       -399.7724224880502106
  Basis Set: (AUG-CC-PVTZ AUX)
    Blend: AUG-CC-PVTZ-RI
    Molecular point group: c1

    Geometry (in Angstrom), charge = 0, multiplicity = 1:

       Center              X                  Y                   Z               Mass
    ------------   -----------------  -----------------  -----------------  -----------------
         O           -2.067451689286    -1.758440235841    -0.017231405191    15.994914619570
         N           -0.037079689286    -0.724596235841    -0.262763405191    14.003074004430
         C            0.811005310714     0.352457764159    -0.307416405191    12.000000000000
         C            2.262881310714     0.059198764159    -0.546811405191    12.000000000000
         C            0.318318610714     1.579517364159     0.109899894809    12.000000000000
         C            2.924359310714    -0.644504235841     0.643371594809    12.000000000000
         C           -1.421143689286    -0.704481235841    -0.019184405191    12.000000000000
         C           -1.105563689286     1.726269764159     0.171327594809    12.000000000000
         C           -1.928332689286     0.633385764159     0.208251594809    12.000000000000
         H            2.366230310714    -0.555496235841    -1.450497405191     1.007825032230
         H            2.772550310714     1.005926764159    -0.750999405191     1.007825032230
         H            0.325768310714    -1.660694235841    -0.431997405191     1.007825032230
         H            0.935822310714     2.467762764159    -0.114849405191     1.007825032230
         H            3.985202310714    -0.821290235841     0.445520594809     1.007825032230
         H            2.455064310714    -1.610660235841     0.848823594809     1.007825032230
         H            2.837619310714    -0.030270235841     1.543262594809     1.007825032230
         H           -1.523838689286     2.715904764159     0.343616594809     1.007825032230
         H           -2.992114689286     0.721891764159     0.402432594809     1.007825032230

  Basis Set: AUG-CC-PVTZ
    Blend: AUG-CC-PVTZ
  Basis Set: (AUG-CC-PVTZ AUX)
    Blend: AUG-CC-PVTZ-JKFIT
	 Reference Energy          =    -399.7724224880501538 [Eh]
	 Singles Energy            =      -0.0000000000000000 [Eh]
	 Same-Spin Energy          =      -0.4226536115405502 [Eh]
	 Opposite-Spin Energy      =      -1.3384981137846002 [Eh]
	 Correlation Energy        =      -1.7611517253251503 [Eh]
	 Total Energy              =    -401.5335742133752888 [Eh]

	 ================> DF-SCS-MP2 Energies <==================
	-----------------------------------------------------------
	 SCS Same-Spin Scale       =       0.3333333333333333 [-]
	 SCS Opposite-Spin Scale   =       1.2000000000000000 [-]
	 SCS Same-Spin Energy      =      -0.1408845371801834 [Eh]
	 SCS Opposite-Spin Energy  =      -1.6061977365415201 [Eh]
	 SCS Correlation Energy    =      -1.7470822737217035 [Eh]
	 SCS Total Energy          =    -401.5195047617718842 [Eh]
	-----------------------------------------------------------

  Dipole Moment: [D]
     X:     4.0316      Y:     2.4729      Z:    -0.4273     Total:     4.7489

*** Psi4 exiting successfully. Buy a developer a beer!
