                               Psi4 1.3.2 release

  ==> Input File <==

--------------------------------------------------------------------------
#psi4
#
memory 32 gb

molecule  {
0 1
  O       -2.1484710    -1.7769200    -0.0056360
  N       -0.1180990    -0.7430760    -0.2511680
  C        0.7299860     0.3339780    -0.2958210
  C        2.1818620     0.0407190    -0.5352160
  C        0.2295907     1.5658390     0.0723270
  C        2.8433400    -0.6629840     0.6549670
  C       -1.5021630    -0.7229610    -0.0075890
  C       -1.1865830     1.7077900     0.1829230
  C       -2.0093520     0.6149060     0.2198470
  H        2.2852110    -0.5739760    -1.4389020
  H        2.6915310     0.9874470    -0.7394040
  H        0.2447490    -1.6791740    -0.4204020
  H        0.8548030     2.4492830    -0.1032540
  H        3.9041830    -0.8397700     0.4571160
  H        2.3740450    -1.6291400     0.8604190
  H        2.7566000    -0.0487500     1.5548580
  H       -1.6048580     2.6974250     0.3552120
  H       -3.0731340     0.7034120     0.4140280
units angstrom
no_reorient  #important for SAPT in psi4, default
symmetry c1  #important for SAPT in psi4, default
}

set PROPERTIES_ORIGIN ["COM"]
properties('MP2/aug-cc-pvtz', properties = ['dipole'])
--------------------------------------------------------------------------

    Molecular point group: c1
  Charge       = 0
  Multiplicity = 1
  Basis Set: AUG-CC-PVTZ
    Blend: AUG-CC-PVTZ
  Basis Set: (AUG-CC-PVTZ AUX)
    Blend: AUG-CC-PVTZ-JKFIT

    Orbital Energies [Eh]
    ---------------------

    Doubly Occupied:

       1A    -20.507636     2A    -15.621262     3A    -11.351654
       4A    -11.318115     5A    -11.270978     6A    -11.262094
       7A    -11.242531     8A    -11.236705     9A    -11.233414
      10A     -1.367649    11A     -1.273128    12A     -1.101510
      13A     -1.087837    14A     -1.003305    15A     -0.902616
      16A     -0.866746    17A     -0.833876    18A     -0.736308
      19A     -0.691345    20A     -0.661687    21A     -0.637329
      22A     -0.624841    23A     -0.608989    24A     -0.602008
      25A     -0.562258    26A     -0.549582    27A     -0.542395
      28A     -0.524936    29A     -0.510319    30A     -0.469001
      31A     -0.422279    32A     -0.418750    33A     -0.307556

  @DF-RHF Final Energy:  -399.77718506643328

   => Energetics <=

    Nuclear Repulsion Energy =            426.4883571740525667
    One-Electron Energy =               -1387.8298056842904771
    Two-Electron Energy =                 561.5642634438046343
    Total Energy =                       -399.7771850664332760
  Basis Set: (AUG-CC-PVTZ AUX)
    Blend: AUG-CC-PVTZ-RI
    Molecular point group: c1

    Geometry (in Angstrom), charge = 0, multiplicity = 1:

       Center              X                  Y                   Z               Mass
    ------------   -----------------  -----------------  -----------------  -----------------
         O           -2.066700048820    -1.758908404709    -0.012437164482    15.994914619570
         N           -0.036328048820    -0.725064404709    -0.257969164482    14.003074004430
         C            0.811756951180     0.351989595291    -0.302622164482    12.000000000000
         C            2.263632951180     0.058730595291    -0.542017164482    12.000000000000
         C            0.311361651180     1.583850595291     0.065525835518    12.000000000000
         C            2.925110951180    -0.644972404709     0.648165835518    12.000000000000
         C           -1.420392048820    -0.704949404709    -0.014390164482    12.000000000000
         C           -1.104812048820     1.725801595291     0.176121835518    12.000000000000
         C           -1.927581048820     0.632917595291     0.213045835518    12.000000000000
         H            2.366981951180    -0.555964404709    -1.445703164482     1.007825032230
         H            2.773301951180     1.005458595291    -0.746205164482     1.007825032230
         H            0.326519951180    -1.661162404709    -0.427203164482     1.007825032230
         H            0.936573951180     2.467294595291    -0.110055164482     1.007825032230
         H            3.985953951180    -0.821758404709     0.450314835518     1.007825032230
         H            2.455815951180    -1.611128404709     0.853617835518     1.007825032230
         H            2.838370951180    -0.030738404709     1.548056835518     1.007825032230
         H           -1.523087048820     2.715436595291     0.348410835518     1.007825032230
         H           -2.991363048820     0.721423595291     0.407226835518     1.007825032230

  Basis Set: AUG-CC-PVTZ
    Blend: AUG-CC-PVTZ
  Basis Set: (AUG-CC-PVTZ AUX)
    Blend: AUG-CC-PVTZ-JKFIT
	 Reference Energy          =    -399.7771850664332760 [Eh]
	 Singles Energy            =      -0.0000000000000000 [Eh]
	 Same-Spin Energy          =      -0.4224966121459660 [Eh]
	 Opposite-Spin Energy      =      -1.3379116923340828 [Eh]
	 Correlation Energy        =      -1.7604083044800487 [Eh]
	 Total Energy              =    -401.5375933709133278 [Eh]

	 ================> DF-SCS-MP2 Energies <==================
	-----------------------------------------------------------
	 SCS Same-Spin Scale       =       0.3333333333333333 [-]
	 SCS Opposite-Spin Scale   =       1.2000000000000000 [-]
	 SCS Same-Spin Energy      =      -0.1408322040486553 [Eh]
	 SCS Opposite-Spin Energy  =      -1.6054940308008994 [Eh]
	 SCS Correlation Energy    =      -1.7463262348495547 [Eh]
	 SCS Total Energy          =    -401.5235113012828378 [Eh]
	-----------------------------------------------------------

  Dipole Moment: [D]
     X:     4.0562      Y:     2.5213      Z:    -0.3876     Total:     4.7917

*** Psi4 exiting successfully. Buy a developer a beer!
