                               Psi4 1.3.2 release

  ==> Input File <==

--------------------------------------------------------------------------
#psi4
#
memory 32 gb

molecule  {
0 1
  O       -2.1484710    -1.7769200    -0.0056360
  N       -0.1180990    -0.7430760    -0.2511680
  C        0.7299860     0.3339780    -0.2958210
  C        2.1818620     0.0407190    -0.5352160
  C        0.2141736     1.5754417    -0.0260097
  C        2.8433400    -0.6629840     0.6549670
  C       -1.5021630    -0.7229610    -0.0075890
  C       -1.1865830     1.7077900     0.1829230
  C       -2.0093520     0.6149060     0.2198470
  H        2.2852110    -0.5739760    -1.4389020
  H        2.6915310     0.9874470    -0.7394040
  H        0.2447490    -1.6791740    -0.4204020
  H        0.8548030     2.4492830    -0.1032540
  H        3.9041830    -0.8397700     0.4571160
  H        2.3740450    -1.6291400     0.8604190
  H        2.7566000    -0.0487500     1.5548580
  H       -1.6048580     2.6974250     0.3552120
  H       -3.0731340     0.7034120     0.4140280
units angstrom
no_reorient  #important for SAPT in psi4, default
symmetry c1  #important for SAPT in psi4, default
}

set PROPERTIES_ORIGIN ["COM"]
properties('MP2/aug-cc-pvtz', properties = ['dipole'])
--------------------------------------------------------------------------

    Molecular point group: c1
  Charge       = 0
  Multiplicity = 1
  Basis Set: AUG-CC-PVTZ
    Blend: AUG-CC-PVTZ
  Basis Set: (AUG-CC-PVTZ AUX)
    Blend: AUG-CC-PVTZ-JKFIT

    Orbital Energies [Eh]
    ---------------------

    Doubly Occupied:

       1A    -20.506855     2A    -15.620319     3A    -11.351149
       4A    -11.315373     5A    -11.270511     6A    -11.261521
       7A    -11.242229     8A    -11.235289     9A    -11.233912
      10A     -1.367010    11A     -1.272537    12A     -1.102481
      13A     -1.087475    14A     -1.004240    15A     -0.902754
      16A     -0.867059    17A     -0.833714    18A     -0.737158
      19A     -0.692421    20A     -0.662274    21A     -0.637416
      22A     -0.625897    23A     -0.610827    24A     -0.600164
      25A     -0.562875    26A     -0.552510    27A     -0.541674
      28A     -0.524618    29A     -0.510881    30A     -0.469197
      31A     -0.421171    32A     -0.419798    33A     -0.307480

  @DF-RHF Final Energy:  -399.78269199373233

   => Energetics <=

    Nuclear Repulsion Energy =            426.6267449156989642
    One-Electron Energy =               -1388.1172942255163889
    Two-Electron Energy =                 561.7078573160850965
    Total Energy =                       -399.7826919937323282
  Basis Set: (AUG-CC-PVTZ AUX)
    Blend: AUG-CC-PVTZ-RI
    Molecular point group: c1

    Geometry (in Angstrom), charge = 0, multiplicity = 1:

       Center              X                  Y                   Z               Mass
    ------------   -----------------  -----------------  -----------------  -----------------
         O           -2.065196777638    -1.759844732693    -0.002848673313    15.994914619570
         N           -0.034824777638    -0.726000732693    -0.248380673313    14.003074004430
         C            0.813260222362     0.351053267307    -0.293033673313    12.000000000000
         C            2.265136222362     0.057794267307    -0.532428673313    12.000000000000
         C            0.297447822362     1.592516967307    -0.023222373313    12.000000000000
         C            2.926614222362    -0.645908732693     0.657754326687    12.000000000000
         C           -1.418888777638    -0.705885732693    -0.004801673313    12.000000000000
         C           -1.103308777638     1.724865267307     0.185710326687    12.000000000000
         C           -1.926077777638     0.631981267307     0.222634326687    12.000000000000
         H            2.368485222362    -0.556900732693    -1.436114673313     1.007825032230
         H            2.774805222362     1.004522267307    -0.736616673313     1.007825032230
         H            0.328023222362    -1.662098732693    -0.417614673313     1.007825032230
         H            0.938077222362     2.466358267307    -0.100466673313     1.007825032230
         H            3.987457222362    -0.822694732693     0.459903326687     1.007825032230
         H            2.457319222362    -1.612064732693     0.863206326687     1.007825032230
         H            2.839874222362    -0.031674732693     1.557645326687     1.007825032230
         H           -1.521583777638     2.714500267307     0.357999326687     1.007825032230
         H           -2.989859777638     0.720487267307     0.416815326687     1.007825032230

  Basis Set: AUG-CC-PVTZ
    Blend: AUG-CC-PVTZ
  Basis Set: (AUG-CC-PVTZ AUX)
    Blend: AUG-CC-PVTZ-JKFIT
	 Reference Energy          =    -399.7826919937323282 [Eh]
	 Singles Energy            =      -0.0000000000000000 [Eh]
	 Same-Spin Energy          =      -0.4222722709308130 [Eh]
	 Opposite-Spin Energy      =      -1.3372703726348090 [Eh]
	 Correlation Energy        =      -1.7595426435656221 [Eh]
	 Total Energy              =    -401.5422346372979518 [Eh]

	 ================> DF-SCS-MP2 Energies <==================
	-----------------------------------------------------------
	 SCS Same-Spin Scale       =       0.3333333333333333 [-]
	 SCS Opposite-Spin Scale   =       1.2000000000000000 [-]
	 SCS Same-Spin Energy      =      -0.1407574236436043 [Eh]
	 SCS Opposite-Spin Energy  =      -1.6047244471617708 [Eh]
	 SCS Correlation Energy    =      -1.7454818708053752 [Eh]
	 SCS Total Energy          =    -401.5281738645376777 [Eh]
	-----------------------------------------------------------

  Dipole Moment: [D]
     X:     4.0866      Y:     2.5744      Z:    -0.3111     Total:     4.8399

*** Psi4 exiting successfully. Buy a developer a beer!
