                               Psi4 1.3.2 release

  ==> Input File <==

--------------------------------------------------------------------------
#psi4
#
memory 32 gb

molecule  {
0 1
  O       -2.1484710    -1.7769200    -0.0056360
  N       -0.1180990    -0.7430760    -0.2511680
  C        0.7299860     0.3339780    -0.2958210
  C        2.1818620     0.0407190    -0.5352160
  C        0.2218822     1.5706403     0.0231587
  C        2.8433400    -0.6629840     0.6549670
  C       -1.5021630    -0.7229610    -0.0075890
  C       -1.1865830     1.7077900     0.1829230
  C       -2.0093520     0.6149060     0.2198470
  H        2.2852110    -0.5739760    -1.4389020
  H        2.6915310     0.9874470    -0.7394040
  H        0.2447490    -1.6791740    -0.4204020
  H        0.8548030     2.4492830    -0.1032540
  H        3.9041830    -0.8397700     0.4571160
  H        2.3740450    -1.6291400     0.8604190
  H        2.7566000    -0.0487500     1.5548580
  H       -1.6048580     2.6974250     0.3552120
  H       -3.0731340     0.7034120     0.4140280
units angstrom
no_reorient  #important for SAPT in psi4, default
symmetry c1  #important for SAPT in psi4, default
}

set PROPERTIES_ORIGIN ["COM"]
properties('MP2/aug-cc-pvtz', properties = ['dipole'])
--------------------------------------------------------------------------

    Molecular point group: c1
  Charge       = 0
  Multiplicity = 1
  Basis Set: AUG-CC-PVTZ
    Blend: AUG-CC-PVTZ
  Basis Set: (AUG-CC-PVTZ AUX)
    Blend: AUG-CC-PVTZ-JKFIT

    Orbital Energies [Eh]
    ---------------------

    Doubly Occupied:

       1A    -20.507126     2A    -15.620697     3A    -11.351324
       4A    -11.316442     5A    -11.270660     6A    -11.261752
       7A    -11.242331     8A    -11.235822     9A    -11.233700
      10A     -1.367239    11A     -1.272764    12A     -1.102137
      13A     -1.087616    14A     -1.003839    15A     -0.902708
      16A     -0.866955    17A     -0.833781    18A     -0.736829
      19A     -0.692051    20A     -0.661959    21A     -0.637424
      22A     -0.625362    23A     -0.609963    24A     -0.601099
      25A     -0.562540    26A     -0.551356    27A     -0.542039
      28A     -0.524762    29A     -0.510650    30A     -0.469128
      31A     -0.421676    32A     -0.419322    33A     -0.307466

  @DF-RHF Final Energy:  -399.78059789299334

   => Energetics <=

    Nuclear Repulsion Energy =            426.5856018476393956
    One-Electron Energy =               -1388.0313583818822281
    Two-Electron Energy =                 561.6651586412494908
    Total Energy =                       -399.7805978929933417
  Basis Set: (AUG-CC-PVTZ AUX)
    Blend: AUG-CC-PVTZ-RI
    Molecular point group: c1

    Geometry (in Angstrom), charge = 0, multiplicity = 1:

       Center              X                  Y                   Z               Mass
    ------------   -----------------  -----------------  -----------------  -----------------
         O           -2.065948418105    -1.759376563826    -0.007642923772    15.994914619570
         N           -0.035576418105    -0.725532563826    -0.253174923772    14.003074004430
         C            0.812508581895     0.351521436174    -0.297827923772    12.000000000000
         C            2.264384581895     0.058262436174    -0.537222923772    12.000000000000
         C            0.304404781895     1.588183736174     0.021151776228    12.000000000000
         C            2.925862581895    -0.645440563826     0.652960076228    12.000000000000
         C           -1.419640418105    -0.705417563826    -0.009595923772    12.000000000000
         C           -1.104060418105     1.725333436174     0.180916076228    12.000000000000
         C           -1.926829418105     0.632449436174     0.217840076228    12.000000000000
         H            2.367733581895    -0.556432563826    -1.440908923772     1.007825032230
         H            2.774053581895     1.004990436174    -0.741410923772     1.007825032230
         H            0.327271581895    -1.661630563826    -0.422408923772     1.007825032230
         H            0.937325581895     2.466826436174    -0.105260923772     1.007825032230
         H            3.986705581895    -0.822226563826     0.455109076228     1.007825032230
         H            2.456567581895    -1.611596563826     0.858412076228     1.007825032230
         H            2.839122581895    -0.031206563826     1.552851076228     1.007825032230
         H           -1.522335418105     2.714968436174     0.353205076228     1.007825032230
         H           -2.990611418105     0.720955436174     0.412021076228     1.007825032230

  Basis Set: AUG-CC-PVTZ
    Blend: AUG-CC-PVTZ
  Basis Set: (AUG-CC-PVTZ AUX)
    Blend: AUG-CC-PVTZ-JKFIT
	 Reference Energy          =    -399.7805978929933417 [Eh]
	 Singles Energy            =      -0.0000000000000000 [Eh]
	 Same-Spin Energy          =      -0.4223685848026141 [Eh]
	 Opposite-Spin Energy      =      -1.3375041824250964 [Eh]
	 Correlation Energy        =      -1.7598727672277104 [Eh]
	 Total Energy              =    -401.5404706602210467 [Eh]

	 ================> DF-SCS-MP2 Energies <==================
	-----------------------------------------------------------
	 SCS Same-Spin Scale       =       0.3333333333333333 [-]
	 SCS Opposite-Spin Scale   =       1.2000000000000000 [-]
	 SCS Same-Spin Energy      =      -0.1407895282675380 [Eh]
	 SCS Opposite-Spin Energy  =      -1.6050050189101157 [Eh]
	 SCS Correlation Energy    =      -1.7457945471776537 [Eh]
	 SCS Total Energy          =    -401.5263924401709801 [Eh]
	-----------------------------------------------------------

  Dipole Moment: [D]
     X:     4.0746      Y:     2.5552      Z:    -0.3490     Total:     4.8221

*** Psi4 exiting successfully. Buy a developer a beer!
