                               Psi4 1.3.2 release

  ==> Input File <==

--------------------------------------------------------------------------
#psi4
#
memory 32 gb

molecule  {
-1 1
  S       -0.7080521    -0.0018098     0.0158706
  C        1.1215500     0.0000090    -0.0000220
  H        1.5247856    -0.1156277     1.0124457
  H        1.5334330    -0.8163610    -0.6041830
  H        1.5335600     0.9315010    -0.4047020
units angstrom
no_reorient  #important for SAPT in psi4, default
symmetry c1  #important for SAPT in psi4, default
}

set PROPERTIES_ORIGIN ["COM"]
properties('MP2/aug-cc-pvtz', properties = ['dipole'])
--------------------------------------------------------------------------

    Molecular point group: c1
  Charge       = -1
  Multiplicity = 1
  Basis Set: AUG-CC-PVTZ
    Blend: AUG-CC-PVTZ
  Basis Set: (AUG-CC-PVTZ AUX)
    Blend: AUG-CC-PVTZ-JKFIT

    Orbital Energies [Eh]
    ---------------------

    Doubly Occupied:

       1A    -91.662065     2A    -11.047072     3A     -8.661900
       4A     -6.343555     5A     -6.341785     6A     -6.341783
       7A     -0.780612     8A     -0.578247     9A     -0.369977
      10A     -0.369334    11A     -0.233471    12A     -0.083217
      13A     -0.083001

  @DF-RHF Final Energy:  -437.17587747012561

   => Energetics <=

    Nuclear Repulsion Energy =             47.6884614472395540
    One-Electron Energy =                -703.9366406781813339
    Two-Electron Energy =                 219.0723017608161740
    Total Energy =                       -437.1758774701256129
  Basis Set: (AUG-CC-PVTZ AUX)
    Blend: AUG-CC-PVTZ-RI
    Molecular point group: c1

    Geometry (in Angstrom), charge = -1, multiplicity = 1:

       Center              X                  Y                   Z               Mass
    ------------   -----------------  -----------------  -----------------  -----------------
         S           -0.611200736797    -0.000570393816     0.005002750685    31.972071174400
         C            1.218401363203     0.001248406184    -0.010889849315    12.000000000000
         H            1.621636963203    -0.114388293816     1.001577850685     1.007825032230
         H            1.630284363203    -0.815121593816    -0.615050849315     1.007825032230
         H            1.630411363203     0.932740406184    -0.415569849315     1.007825032230

  Basis Set: AUG-CC-PVTZ
    Blend: AUG-CC-PVTZ
  Basis Set: (AUG-CC-PVTZ AUX)
    Blend: AUG-CC-PVTZ-JKFIT
	 Reference Energy          =    -437.1758774701256129 [Eh]
	 Singles Energy            =      -0.0000000000000000 [Eh]
	 Same-Spin Energy          =      -0.0993621116711756 [Eh]
	 Opposite-Spin Energy      =      -0.3344378669909578 [Eh]
	 Correlation Energy        =      -0.4337999786621334 [Eh]
	 Total Energy              =    -437.6096774487877497 [Eh]

	 ================> DF-SCS-MP2 Energies <==================
	-----------------------------------------------------------
	 SCS Same-Spin Scale       =       0.3333333333333333 [-]
	 SCS Opposite-Spin Scale   =       1.2000000000000000 [-]
	 SCS Same-Spin Energy      =      -0.0331207038903919 [Eh]
	 SCS Opposite-Spin Energy  =      -0.4013254403891494 [Eh]
	 SCS Correlation Energy    =      -0.4344461442795412 [Eh]
	 SCS Total Energy          =    -437.6103236144051607 [Eh]
	-----------------------------------------------------------

  Dipole Moment: [D]
     X:     2.9208      Y:     0.0015      Z:    -0.0140     Total:     2.9208

*** Psi4 exiting successfully. Buy a developer a beer!
