                               Psi4 1.4a3.dev225

  ==> Input File <==

--------------------------------------------------------------------------
#psi4
#
memory 32 gb

molecule  {
-1 1
  S        0.7083620     0.0000000     0.0000000
  C       -1.1184100     0.0000000    -0.0000010
  H       -1.5218997     0.8492226    -0.4682595
  H       -1.5411080    -0.8696550    -0.5251800
  H       -1.5411220    -0.0199950     1.0157280
units angstrom
no_reorient  #important for SAPT in psi4, default
symmetry c1  #important for SAPT in psi4, default
}

set PROPERTIES_ORIGIN ["COM"]
properties('MP2/aug-cc-pvtz', properties = ['dipole'])
--------------------------------------------------------------------------

    Molecular point group: c1
  Charge       = -1
  Multiplicity = 1
  Basis Set: AUG-CC-PVTZ
    Blend: AUG-CC-PVTZ
  Basis Set: (AUG-CC-PVTZ AUX)
    Blend: AUG-CC-PVTZ-JKFIT

    Orbital Energies [Eh]
    ---------------------

    Doubly Occupied:

       1A    -91.661905     2A    -11.041895     3A     -8.661754
       4A     -6.343420     5A     -6.341646     6A     -6.341643
       7A     -0.784201     8A     -0.581088     9A     -0.376394
      10A     -0.366025    11A     -0.234882    12A     -0.083238
      13A     -0.082892

  @DF-RHF Final Energy:  -437.17478456162246

   => Energetics <=

    Nuclear Repulsion Energy =             47.8611165630941287
    One-Electron Energy =                -704.2698343173385638
    Two-Electron Energy =                 219.2339331926219756
    Total Energy =                       -437.1747845616224595
  Basis Set: (AUG-CC-PVTZ AUX)
    Blend: AUG-CC-PVTZ-RI
    Molecular point group: c1

    Geometry (in Angstrom), charge = -1, multiplicity = 1:

       Center              X                  Y                   Z               Mass
    ------------   -----------------  -----------------  -----------------  -----------------
         S            0.610762897917     0.000866970361    -0.000477724168    31.972071174400
         C           -1.216009102083     0.000866970361    -0.000478724168    12.000000000000
         H           -1.619498802083     0.850089570361    -0.468737224168     1.007825032230
         H           -1.638707102083    -0.868788029639    -0.525657724168     1.007825032230
         H           -1.638721102083    -0.019128029639     1.015250275832     1.007825032230

  Basis Set: AUG-CC-PVTZ
    Blend: AUG-CC-PVTZ
  Basis Set: (AUG-CC-PVTZ AUX)
    Blend: AUG-CC-PVTZ-JKFIT
	 Reference Energy          =    -437.1747845616224595 [Eh]
	 Singles Energy            =      -0.0000000000000000 [Eh]
	 Same-Spin Energy          =      -0.0993945919658730 [Eh]
	 Opposite-Spin Energy      =      -0.3342660713547250 [Eh]
	 Correlation Energy        =      -0.4336606633205979 [Eh]
	 Total Energy              =    -437.6084452249430683 [Eh]

	 ================> DF-SCS-MP2 Energies <==================
	-----------------------------------------------------------
	 SCS Same-Spin Scale       =       0.3333333333333333 [-]
	 SCS Opposite-Spin Scale   =       1.2000000000000000 [-]
	 SCS Same-Spin Energy      =      -0.0331315306552910 [Eh]
	 SCS Opposite-Spin Energy  =      -0.4011192856256700 [Eh]
	 SCS Correlation Energy    =      -0.4342508162809610 [Eh]
	 SCS Total Energy          =    -437.6090353779034103 [Eh]
	-----------------------------------------------------------

  Dipole Moment: [D]
     X:    -2.9473      Y:     0.0285      Z:    -0.0157     Total:     2.9474

*** Psi4 exiting successfully. Buy a developer a beer!
