                               Psi4 1.3.2 release

  ==> Input File <==

--------------------------------------------------------------------------
#psi4
#
memory 32 gb

molecule  {
-1 1
  S       -0.7081220     0.0000020     0.0000070
  C        1.0215500     0.0000086    -0.0000204
  H        1.5336630    -0.1152240     1.0089110
  H        1.5334330    -0.8163610    -0.6041830
  H        1.5335600     0.9315010    -0.4047020
units angstrom
no_reorient  #important for SAPT in psi4, default
symmetry c1  #important for SAPT in psi4, default
}

set PROPERTIES_ORIGIN ["COM"]
properties('MP2/aug-cc-pvtz', properties = ['dipole'])
--------------------------------------------------------------------------

    Molecular point group: c1
  Charge       = -1
  Multiplicity = 1
  Basis Set: AUG-CC-PVTZ
    Blend: AUG-CC-PVTZ
  Basis Set: (AUG-CC-PVTZ AUX)
    Blend: AUG-CC-PVTZ-JKFIT

    Orbital Energies [Eh]
    ---------------------

    Doubly Occupied:

       1A    -91.659125     2A    -11.055907     3A     -8.661139
       4A     -6.343128     5A     -6.341045     6A     -6.341045
       7A     -0.790172     8A     -0.579729     9A     -0.350295
      10A     -0.350246    11A     -0.257783    12A     -0.082539
      13A     -0.082535

  @DF-RHF Final Energy:  -437.16670770092452

   => Energetics <=

    Nuclear Repulsion Energy =             48.9690990556173915
    One-Electron Energy =                -706.4822376681088372
    Two-Electron Energy =                 220.3464309115669550
    Total Energy =                       -437.1667077009245759
  Basis Set: (AUG-CC-PVTZ AUX)
    Blend: AUG-CC-PVTZ-RI
    Molecular point group: c1

    Geometry (in Angstrom), charge = -1, multiplicity = 1:

       Center              X                  Y                   Z               Mass
    ------------   -----------------  -----------------  -----------------  -----------------
         S           -0.585879124696     0.000000244795     0.000006889182    31.972071174400
         C            1.143792875304     0.000006844795    -0.000020510818    12.000000000000
         H            1.655905875304    -0.115225755205     1.008910889182     1.007825032230
         H            1.655675875304    -0.816362755205    -0.604183110818     1.007825032230
         H            1.655802875304     0.931499244795    -0.404702110818     1.007825032230

  Basis Set: AUG-CC-PVTZ
    Blend: AUG-CC-PVTZ
  Basis Set: (AUG-CC-PVTZ AUX)
    Blend: AUG-CC-PVTZ-JKFIT
	 Reference Energy          =    -437.1667077009245190 [Eh]
	 Singles Energy            =      -0.0000000000000000 [Eh]
	 Same-Spin Energy          =      -0.1004314266345925 [Eh]
	 Opposite-Spin Energy      =      -0.3352976636375569 [Eh]
	 Correlation Energy        =      -0.4357290902721493 [Eh]
	 Total Energy              =    -437.6024367911966806 [Eh]

	 ================> DF-SCS-MP2 Energies <==================
	-----------------------------------------------------------
	 SCS Same-Spin Scale       =       0.3333333333333333 [-]
	 SCS Opposite-Spin Scale   =       1.2000000000000000 [-]
	 SCS Same-Spin Energy      =      -0.0334771422115308 [Eh]
	 SCS Opposite-Spin Energy  =      -0.4023571963650682 [Eh]
	 SCS Correlation Energy    =      -0.4358343385765990 [Eh]
	 SCS Total Energy          =    -437.6025420395011452 [Eh]
	-----------------------------------------------------------

  Dipole Moment: [D]
     X:     2.5210      Y:    -0.0001      Z:    -0.0000     Total:     2.5210

*** Psi4 exiting successfully. Buy a developer a beer!
