                               Psi4 1.3.2 release

  ==> Input File <==

--------------------------------------------------------------------------
#psi4
#
memory 32 gb

molecule  {
-1 1
  S       -0.7081220     0.0000020     0.0000070
  C        1.1215500     0.0000090    -0.0000220
  H        1.5712670    -0.1257386     1.1009728
  H        1.5334330    -0.8163610    -0.6041830
  H        1.5335600     0.9315010    -0.4047020
units angstrom
no_reorient  #important for SAPT in psi4, default
symmetry c1  #important for SAPT in psi4, default
}

set PROPERTIES_ORIGIN ["COM"]
properties('MP2/aug-cc-pvtz', properties = ['dipole'])
--------------------------------------------------------------------------

    Molecular point group: c1
  Charge       = -1
  Multiplicity = 1
  Basis Set: AUG-CC-PVTZ
    Blend: AUG-CC-PVTZ
  Basis Set: (AUG-CC-PVTZ AUX)
    Blend: AUG-CC-PVTZ-JKFIT

    Orbital Energies [Eh]
    ---------------------

    Doubly Occupied:

       1A    -91.663922     2A    -11.060115     3A     -8.663729
       4A     -6.345378     5A     -6.343602     6A     -6.343592
       7A     -0.774353     8A     -0.575869     9A     -0.371690
      10A     -0.350093    11A     -0.235349    12A     -0.084722
      13A     -0.083946

  @DF-RHF Final Energy:  -437.17007785243334

   => Energetics <=

    Nuclear Repulsion Energy =             47.3115742836631554
    One-Electron Energy =                -703.1705854862680098
    Two-Electron Energy =                 218.6889333501715100
    Total Energy =                       -437.1700778524333373
  Basis Set: (AUG-CC-PVTZ AUX)
    Blend: AUG-CC-PVTZ-RI
    Molecular point group: c1

    Geometry (in Angstrom), charge = -1, multiplicity = 1:

       Center              X                  Y                   Z               Mass
    ------------   -----------------  -----------------  -----------------  -----------------
         S           -0.612219881442     0.000225629494    -0.001966978427    31.972071174400
         C            1.217452118558     0.000232629494    -0.001995978427    12.000000000000
         H            1.667169118558    -0.125514970506     1.098998821573     1.007825032230
         H            1.629335118558    -0.816137370506    -0.606156978427     1.007825032230
         H            1.629462118558     0.931724629494    -0.406675978427     1.007825032230

  Basis Set: AUG-CC-PVTZ
    Blend: AUG-CC-PVTZ
  Basis Set: (AUG-CC-PVTZ AUX)
    Blend: AUG-CC-PVTZ-JKFIT
	 Reference Energy          =    -437.1700778524333373 [Eh]
	 Singles Energy            =      -0.0000000000000000 [Eh]
	 Same-Spin Energy          =      -0.0993363841282382 [Eh]
	 Opposite-Spin Energy      =      -0.3350495913445057 [Eh]
	 Correlation Energy        =      -0.4343859754727439 [Eh]
	 Total Energy              =    -437.6044638279061019 [Eh]

	 ================> DF-SCS-MP2 Energies <==================
	-----------------------------------------------------------
	 SCS Same-Spin Scale       =       0.3333333333333333 [-]
	 SCS Opposite-Spin Scale   =       1.2000000000000000 [-]
	 SCS Same-Spin Energy      =      -0.0331121280427461 [Eh]
	 SCS Opposite-Spin Energy  =      -0.4020595096134069 [Eh]
	 SCS Correlation Energy    =      -0.4351716376561529 [Eh]
	 SCS Total Energy          =    -437.6052494900894771 [Eh]
	-----------------------------------------------------------

  Dipole Moment: [D]
     X:     2.7612      Y:     0.0103      Z:    -0.0907     Total:     2.7627

*** Psi4 exiting successfully. Buy a developer a beer!
