                               Psi4 1.3.2 release

  ==> Input File <==

--------------------------------------------------------------------------
#psi4
#
memory 32 gb

molecule  {
-1 1
  S       -0.7081220     0.0000020     0.0000070
  C        1.2215500     0.0000094    -0.0000236
  H        1.5336630    -0.1152240     1.0089110
  H        1.5334330    -0.8163610    -0.6041830
  H        1.5335600     0.9315010    -0.4047020
units angstrom
no_reorient  #important for SAPT in psi4, default
symmetry c1  #important for SAPT in psi4, default
}

set PROPERTIES_ORIGIN ["COM"]
properties('MP2/aug-cc-pvtz', properties = ['dipole'])
--------------------------------------------------------------------------

    Molecular point group: c1
  Charge       = -1
  Multiplicity = 1
  Basis Set: AUG-CC-PVTZ
    Blend: AUG-CC-PVTZ
  Basis Set: (AUG-CC-PVTZ AUX)
    Blend: AUG-CC-PVTZ-JKFIT

    Orbital Energies [Eh]
    ---------------------

    Doubly Occupied:

       1A    -91.665604     2A    -11.041384     3A     -8.663960
       4A     -6.345371     5A     -6.343749     6A     -6.343749
       7A     -0.776836     8A     -0.576146     9A     -0.388365
      10A     -0.388320    11A     -0.209137    12A     -0.084153
      13A     -0.084152

  @DF-RHF Final Energy:  -437.17123001156904

   => Energetics <=

    Nuclear Repulsion Energy =             46.5156056706457477
    One-Electron Energy =                -701.5518169714549686
    Two-Electron Energy =                 217.8649812892402338
    Total Energy =                       -437.1712300115689800
  Basis Set: (AUG-CC-PVTZ AUX)
    Blend: AUG-CC-PVTZ-RI
    Molecular point group: c1

    Geometry (in Angstrom), charge = -1, multiplicity = 1:

       Center              X                  Y                   Z               Mass
    ------------   -----------------  -----------------  -----------------  -----------------
         S           -0.636947793760     0.000000040520     0.000007706281    31.972071174400
         C            1.292724206240     0.000007440520    -0.000022893719    12.000000000000
         H            1.604837206240    -0.115225959480     1.008911706281     1.007825032230
         H            1.604607206240    -0.816362959480    -0.604182293719     1.007825032230
         H            1.604734206240     0.931499040520    -0.404701293719     1.007825032230

  Basis Set: AUG-CC-PVTZ
    Blend: AUG-CC-PVTZ
  Basis Set: (AUG-CC-PVTZ AUX)
    Blend: AUG-CC-PVTZ-JKFIT
	 Reference Energy          =    -437.1712300115690368 [Eh]
	 Singles Energy            =      -0.0000000000000000 [Eh]
	 Same-Spin Energy          =      -0.0989868825152452 [Eh]
	 Opposite-Spin Energy      =      -0.3346080201580021 [Eh]
	 Correlation Energy        =      -0.4335949026732473 [Eh]
	 Total Energy              =    -437.6048249142422719 [Eh]

	 ================> DF-SCS-MP2 Energies <==================
	-----------------------------------------------------------
	 SCS Same-Spin Scale       =       0.3333333333333333 [-]
	 SCS Opposite-Spin Scale   =       1.2000000000000000 [-]
	 SCS Same-Spin Energy      =      -0.0329956275050817 [Eh]
	 SCS Opposite-Spin Energy  =      -0.4015296241896025 [Eh]
	 SCS Correlation Energy    =      -0.4345252516946842 [Eh]
	 SCS Total Energy          =    -437.6057552632637453 [Eh]
	-----------------------------------------------------------

  Dipole Moment: [D]
     X:     3.1288      Y:    -0.0001      Z:    -0.0000     Total:     3.1288

*** Psi4 exiting successfully. Buy a developer a beer!
