                               Psi4 1.3.2 release

  ==> Input File <==

--------------------------------------------------------------------------
#psi4
#
memory 32 gb

molecule  {
-1 1
  S       -0.7081220     0.0000020     0.0000070
  C        0.9215500     0.0000082    -0.0000188
  H        1.5336630    -0.1152240     1.0089110
  H        1.5334330    -0.8163610    -0.6041830
  H        1.5335600     0.9315010    -0.4047020
units angstrom
no_reorient  #important for SAPT in psi4, default
symmetry c1  #important for SAPT in psi4, default
}

set PROPERTIES_ORIGIN ["COM"]
properties('MP2/aug-cc-pvtz', properties = ['dipole'])
--------------------------------------------------------------------------

    Molecular point group: c1
  Charge       = -1
  Multiplicity = 1
  Basis Set: AUG-CC-PVTZ
    Blend: AUG-CC-PVTZ
  Basis Set: (AUG-CC-PVTZ AUX)
    Blend: AUG-CC-PVTZ-JKFIT

    Orbital Energies [Eh]
    ---------------------

    Doubly Occupied:

       1A    -91.656887     2A    -11.066820     3A     -8.662063
       4A     -6.344493     5A     -6.341866     6A     -6.341866
       7A     -0.808792     8A     -0.577149     9A     -0.333601
      10A     -0.333554    11A     -0.279970    12A     -0.081810
      13A     -0.081804

  @DF-RHF Final Energy:  -437.13952222218870

   => Energetics <=

    Nuclear Repulsion Energy =             50.4295670612048923
    One-Electron Energy =                -709.3168265392273497
    Two-Electron Energy =                 221.7477372558337549
    Total Energy =                       -437.1395222221887025
  Basis Set: (AUG-CC-PVTZ AUX)
    Blend: AUG-CC-PVTZ-RI
    Molecular point group: c1

    Geometry (in Angstrom), charge = -1, multiplicity = 1:

       Center              X                  Y                   Z               Mass
    ------------   -----------------  -----------------  -----------------  -----------------
         S           -0.560344790164     0.000000346932     0.000006480633    31.972071174400
         C            1.069327209836     0.000006546932    -0.000019319367    12.000000000000
         H            1.681440209836    -0.115225653068     1.008910480633     1.007825032230
         H            1.681210209836    -0.816362653068    -0.604183519367     1.007825032230
         H            1.681337209836     0.931499346932    -0.404702519367     1.007825032230

  Basis Set: AUG-CC-PVTZ
    Blend: AUG-CC-PVTZ
  Basis Set: (AUG-CC-PVTZ AUX)
    Blend: AUG-CC-PVTZ-JKFIT
	 Reference Energy          =    -437.1395222221887025 [Eh]
	 Singles Energy            =      -0.0000000000000000 [Eh]
	 Same-Spin Energy          =      -0.1023488145989687 [Eh]
	 Opposite-Spin Energy      =      -0.3373704157821574 [Eh]
	 Correlation Energy        =      -0.4397192303811261 [Eh]
	 Total Energy              =    -437.5792414525698177 [Eh]

	 ================> DF-SCS-MP2 Energies <==================
	-----------------------------------------------------------
	 SCS Same-Spin Scale       =       0.3333333333333333 [-]
	 SCS Opposite-Spin Scale   =       1.2000000000000000 [-]
	 SCS Same-Spin Energy      =      -0.0341162715329896 [Eh]
	 SCS Opposite-Spin Energy  =      -0.4048444989385889 [Eh]
	 SCS Correlation Energy    =      -0.4389607704715785 [Eh]
	 SCS Total Energy          =    -437.5784829926602697 [Eh]
	-----------------------------------------------------------

  Dipole Moment: [D]
     X:     1.8807      Y:    -0.0001      Z:    -0.0001     Total:     1.8807

*** Psi4 exiting successfully. Buy a developer a beer!
