                               Psi4 1.4a3.dev225

  ==> Input File <==

--------------------------------------------------------------------------
#psi4
#
memory 32 gb

molecule  {
-1 1
  S        0.7083620     0.0000000     0.0000000
  C       -1.1384100     0.0000000    -0.0000010
  H       -1.5411070     0.8896480    -0.4905500
  H       -1.5411080    -0.8696550    -0.5251800
  H       -1.5411220    -0.0199950     1.0157280
units angstrom
no_reorient  #important for SAPT in psi4, default
symmetry c1  #important for SAPT in psi4, default
}

set PROPERTIES_ORIGIN ["COM"]
properties('MP2/aug-cc-pvtz', properties = ['dipole'])
--------------------------------------------------------------------------

    Molecular point group: c1
  Charge       = -1
  Multiplicity = 1
  Basis Set: AUG-CC-PVTZ
    Blend: AUG-CC-PVTZ
  Basis Set: (AUG-CC-PVTZ AUX)
    Blend: AUG-CC-PVTZ-JKFIT

    Orbital Energies [Eh]
    ---------------------

    Doubly Occupied:

       1A    -91.663192     2A    -11.047088     3A     -8.662690
       4A     -6.344298     5A     -6.342559     6A     -6.342559
       7A     -0.778697     8A     -0.578594     9A     -0.370858
      10A     -0.370855    11A     -0.230566    12A     -0.083614
      13A     -0.083613

  @DF-RHF Final Energy:  -437.17588219297858

   => Energetics <=

    Nuclear Repulsion Energy =             47.4171741676698275
    One-Electron Energy =                -703.3877505421595515
    Two-Electron Energy =                 218.7946941815111472
    Total Energy =                       -437.1758821929785768
  Basis Set: (AUG-CC-PVTZ AUX)
    Blend: AUG-CC-PVTZ-RI
    Molecular point group: c1

    Geometry (in Angstrom), charge = -1, multiplicity = 1:

       Center              X                  Y                   Z               Mass
    ------------   -----------------  -----------------  -----------------  -----------------
         S            0.616281667637     0.000000042890     0.000000298234    31.972071174400
         C           -1.230490332363     0.000000042890    -0.000000701766    12.000000000000
         H           -1.633187332363     0.889648042890    -0.490549701766     1.007825032230
         H           -1.633188332363    -0.869654957110    -0.525179701766     1.007825032230
         H           -1.633202332363    -0.019994957110     1.015728298234     1.007825032230

  Basis Set: AUG-CC-PVTZ
    Blend: AUG-CC-PVTZ
  Basis Set: (AUG-CC-PVTZ AUX)
    Blend: AUG-CC-PVTZ-JKFIT
	 Reference Energy          =    -437.1758821929785768 [Eh]
	 Singles Energy            =      -0.0000000000000000 [Eh]
	 Same-Spin Energy          =      -0.0992431889862716 [Eh]
	 Opposite-Spin Energy      =      -0.3344398428696322 [Eh]
	 Correlation Energy        =      -0.4336830318559038 [Eh]
	 Total Energy              =    -437.6095652248344550 [Eh]

	 ================> DF-SCS-MP2 Energies <==================
	-----------------------------------------------------------
	 SCS Same-Spin Scale       =       0.3333333333333333 [-]
	 SCS Opposite-Spin Scale   =       1.2000000000000000 [-]
	 SCS Same-Spin Energy      =      -0.0330810629954239 [Eh]
	 SCS Opposite-Spin Energy  =      -0.4013278114435587 [Eh]
	 SCS Correlation Energy    =      -0.4344088744389825 [Eh]
	 SCS Total Energy          =    -437.6102910674175632 [Eh]
	-----------------------------------------------------------

  Dipole Moment: [D]
     X:    -2.9446      Y:     0.0000      Z:    -0.0000     Total:     2.9446

*** Psi4 exiting successfully. Buy a developer a beer!
