                               Psi4 1.3.2 release

  ==> Input File <==

--------------------------------------------------------------------------
#psi4
#
memory 32 gb

molecule  {
-1 1
  S       -0.7081220     0.0000020     0.0000070
  C        1.1215500     0.0000090    -0.0000220
  H        1.4960590    -0.1047094     0.9168492
  H        1.5334330    -0.8163610    -0.6041830
  H        1.5335600     0.9315010    -0.4047020
units angstrom
no_reorient  #important for SAPT in psi4, default
symmetry c1  #important for SAPT in psi4, default
}

set PROPERTIES_ORIGIN ["COM"]
properties('MP2/aug-cc-pvtz', properties = ['dipole'])
--------------------------------------------------------------------------

    Molecular point group: c1
  Charge       = -1
  Multiplicity = 1
  Basis Set: AUG-CC-PVTZ
    Blend: AUG-CC-PVTZ
  Basis Set: (AUG-CC-PVTZ AUX)
    Blend: AUG-CC-PVTZ-JKFIT

    Orbital Energies [Eh]
    ---------------------

    Doubly Occupied:

       1A    -91.661088     2A    -11.033656     3A     -8.660911
       4A     -6.342568     5A     -6.340810     6A     -6.340806
       7A     -0.790377     8A     -0.583073     9A     -0.388098
      10A     -0.367601    11A     -0.232773    12A     -0.082861
      13A     -0.082189

  @DF-RHF Final Energy:  -437.16971406938978

   => Energetics <=

    Nuclear Repulsion Energy =             48.1022412735909271
    One-Electron Energy =                -704.7302870046136150
    Two-Electron Energy =                 219.4583316616328545
    Total Energy =                       -437.1697140693897836
  Basis Set: (AUG-CC-PVTZ AUX)
    Blend: AUG-CC-PVTZ-RI
    Molecular point group: c1

    Geometry (in Angstrom), charge = -1, multiplicity = 1:

       Center              X                  Y                   Z               Mass
    ------------   -----------------  -----------------  -----------------  -----------------
         S           -0.610607037013    -0.000225344180     0.001981573890    31.972071174400
         C            1.219064962987    -0.000218344180     0.001952573890    12.000000000000
         H            1.593573962987    -0.104936744180     0.918823773890     1.007825032230
         H            1.630947962987    -0.816588344180    -0.602208426110     1.007825032230
         H            1.631074962987     0.931273655820    -0.402727426110     1.007825032230

  Basis Set: AUG-CC-PVTZ
    Blend: AUG-CC-PVTZ
  Basis Set: (AUG-CC-PVTZ AUX)
    Blend: AUG-CC-PVTZ-JKFIT
	 Reference Energy          =    -437.1697140693897836 [Eh]
	 Singles Energy            =      -0.0000000000000000 [Eh]
	 Same-Spin Energy          =      -0.0994062666343477 [Eh]
	 Opposite-Spin Energy      =      -0.3340477383789066 [Eh]
	 Correlation Energy        =      -0.4334540050132543 [Eh]
	 Total Energy              =    -437.6031680744030155 [Eh]

	 ================> DF-SCS-MP2 Energies <==================
	-----------------------------------------------------------
	 SCS Same-Spin Scale       =       0.3333333333333333 [-]
	 SCS Opposite-Spin Scale   =       1.2000000000000000 [-]
	 SCS Same-Spin Energy      =      -0.0331354222114492 [Eh]
	 SCS Opposite-Spin Energy  =      -0.4008572860546879 [Eh]
	 SCS Correlation Energy    =      -0.4339927082661371 [Eh]
	 SCS Total Energy          =    -437.6037067776559297 [Eh]
	-----------------------------------------------------------

  Dipole Moment: [D]
     X:     3.0257      Y:    -0.0060      Z:     0.0518     Total:     3.0261

*** Psi4 exiting successfully. Buy a developer a beer!
