                               Psi4 1.3.2 release

  ==> Input File <==

--------------------------------------------------------------------------
#psi4
#
memory 32 gb

molecule  {
-1 1
  S       -0.7081220     0.0000020     0.0000070
  C        1.1215500     0.0000090    -0.0000220
  H        1.5527445    -0.1461120     0.9968639
  H        1.5525213    -0.8286269    -0.5733843
  H        1.5335600     0.9315010    -0.4047020
units angstrom
no_reorient  #important for SAPT in psi4, default
symmetry c1  #important for SAPT in psi4, default
}

set PROPERTIES_ORIGIN ["COM"]
properties('MP2/aug-cc-pvtz', properties = ['dipole'])
--------------------------------------------------------------------------

    Molecular point group: c1
  Charge       = -1
  Multiplicity = 1
  Basis Set: AUG-CC-PVTZ
    Blend: AUG-CC-PVTZ
  Basis Set: (AUG-CC-PVTZ AUX)
    Blend: AUG-CC-PVTZ-JKFIT

    Orbital Energies [Eh]
    ---------------------

    Doubly Occupied:

       1A    -91.662804     2A    -11.047028     3A     -8.662574
       4A     -6.344230     5A     -6.342455     6A     -6.342454
       7A     -0.780420     8A     -0.580097     9A     -0.373727
      10A     -0.361134    11A     -0.235384    12A     -0.083902
      13A     -0.083264

  @DF-RHF Final Energy:  -437.17532838661680

   => Energetics <=

    Nuclear Repulsion Energy =             47.6458302826909090
    One-Electron Energy =                -703.8433676999960653
    Two-Electron Energy =                 219.0222090306883729
    Total Energy =                       -437.1753283866167976
  Basis Set: (AUG-CC-PVTZ AUX)
    Blend: AUG-CC-PVTZ-RI
    Molecular point group: c1

    Geometry (in Angstrom), charge = -1, multiplicity = 1:

       Center              X                  Y                   Z               Mass
    ------------   -----------------  -----------------  -----------------  -----------------
         S           -0.612232015090     0.000925583132    -0.000394832542    31.972071174400
         C            1.217439984910     0.000932583132    -0.000423832542    12.000000000000
         H            1.648634484910    -0.145188416868     0.996462067458     1.007825032230
         H            1.648411284910    -0.827703316868    -0.573786132542     1.007825032230
         H            1.629449984910     0.932424583132    -0.405103832542     1.007825032230

  Basis Set: AUG-CC-PVTZ
    Blend: AUG-CC-PVTZ
  Basis Set: (AUG-CC-PVTZ AUX)
    Blend: AUG-CC-PVTZ-JKFIT
	 Reference Energy          =    -437.1753283866167976 [Eh]
	 Singles Energy            =      -0.0000000000000000 [Eh]
	 Same-Spin Energy          =      -0.0993803005891218 [Eh]
	 Opposite-Spin Energy      =      -0.3344660633148848 [Eh]
	 Correlation Energy        =      -0.4338463639040065 [Eh]
	 Total Energy              =    -437.6091747505208218 [Eh]

	 ================> DF-SCS-MP2 Energies <==================
	-----------------------------------------------------------
	 SCS Same-Spin Scale       =       0.3333333333333333 [-]
	 SCS Opposite-Spin Scale   =       1.2000000000000000 [-]
	 SCS Same-Spin Energy      =      -0.0331267668630406 [Eh]
	 SCS Opposite-Spin Energy  =      -0.4013592759778617 [Eh]
	 SCS Correlation Energy    =      -0.4344860428409023 [Eh]
	 SCS Total Energy          =    -437.6098144294576855 [Eh]
	-----------------------------------------------------------

  Dipole Moment: [D]
     X:     2.8988      Y:    -0.0081      Z:     0.0035     Total:     2.8988

*** Psi4 exiting successfully. Buy a developer a beer!
