                               Psi4 1.3.2 release

  ==> Input File <==

--------------------------------------------------------------------------
#psi4
#
memory 32 gb

molecule  {
-1 1
  S       -0.7081220     0.0000020     0.0000070
  C        1.1215500     0.0000090    -0.0000220
  H        1.5384814    -0.1229606     1.0060139
  H        1.5382531    -0.8195213    -0.5965509
  H        1.5335600     0.9315010    -0.4047020
units angstrom
no_reorient  #important for SAPT in psi4, default
symmetry c1  #important for SAPT in psi4, default
}

set PROPERTIES_ORIGIN ["COM"]
properties('MP2/aug-cc-pvtz', properties = ['dipole'])
--------------------------------------------------------------------------

    Molecular point group: c1
  Charge       = -1
  Multiplicity = 1
  Basis Set: AUG-CC-PVTZ
    Blend: AUG-CC-PVTZ
  Basis Set: (AUG-CC-PVTZ AUX)
    Blend: AUG-CC-PVTZ-JKFIT

    Orbital Energies [Eh]
    ---------------------

    Doubly Occupied:

       1A    -91.662348     2A    -11.047052     3A     -8.662157
       4A     -6.343813     5A     -6.342040     6A     -6.342040
       7A     -0.780507     8A     -0.578948     9A     -0.370377
      10A     -0.367251    11A     -0.234233    12A     -0.083375
      13A     -0.083221

  @DF-RHF Final Energy:  -437.17583047834029

   => Energetics <=

    Nuclear Repulsion Energy =             47.6712411891602343
    One-Electron Energy =                -703.8994186647589686
    Two-Electron Energy =                 219.0523469972584394
    Total Energy =                       -437.1758304783402878
  Basis Set: (AUG-CC-PVTZ AUX)
    Blend: AUG-CC-PVTZ-RI
    Molecular point group: c1

    Geometry (in Angstrom), charge = -1, multiplicity = 1:

       Center              X                  Y                   Z               Mass
    ------------   -----------------  -----------------  -----------------  -----------------
         S           -0.611620157997     0.000233827963    -0.000094244902    31.972071174400
         C            1.218051842003     0.000240827963    -0.000123244902    12.000000000000
         H            1.634983242003    -0.122728772037     1.005912655098     1.007825032230
         H            1.634754942003    -0.819289472037    -0.596652144902     1.007825032230
         H            1.630061842003     0.931732827963    -0.404803244902     1.007825032230

  Basis Set: AUG-CC-PVTZ
    Blend: AUG-CC-PVTZ
  Basis Set: (AUG-CC-PVTZ AUX)
    Blend: AUG-CC-PVTZ-JKFIT
	 Reference Energy          =    -437.1758304783402878 [Eh]
	 Singles Energy            =      -0.0000000000000000 [Eh]
	 Same-Spin Energy          =      -0.0993611851796984 [Eh]
	 Opposite-Spin Energy      =      -0.3344372946839840 [Eh]
	 Correlation Energy        =      -0.4337984798636824 [Eh]
	 Total Energy              =    -437.6096289582039844 [Eh]

	 ================> DF-SCS-MP2 Energies <==================
	-----------------------------------------------------------
	 SCS Same-Spin Scale       =       0.3333333333333333 [-]
	 SCS Opposite-Spin Scale   =       1.2000000000000000 [-]
	 SCS Same-Spin Energy      =      -0.0331203950598995 [Eh]
	 SCS Opposite-Spin Energy  =      -0.4013247536207808 [Eh]
	 SCS Correlation Energy    =      -0.4344451486806803 [Eh]
	 SCS Total Energy          =    -437.6102756270209397 [Eh]
	-----------------------------------------------------------

  Dipole Moment: [D]
     X:     2.9125      Y:    -0.0021      Z:     0.0009     Total:     2.9125

*** Psi4 exiting successfully. Buy a developer a beer!
