                               Psi4 1.3.2 release

  ==> Input File <==

--------------------------------------------------------------------------
#psi4
#
memory 32 gb

molecule  {
-1 1
  S       -0.7081220     0.0000020     0.0000070
  C        1.1215500     0.0000090    -0.0000220
  H        1.6088709    -0.1362533     1.1930347
  H        1.5334330    -0.8163610    -0.6041830
  H        1.5335600     0.9315010    -0.4047020
units angstrom
no_reorient  #important for SAPT in psi4, default
symmetry c1  #important for SAPT in psi4, default
}

set PROPERTIES_ORIGIN ["COM"]
properties('MP2/aug-cc-pvtz', properties = ['dipole'])
--------------------------------------------------------------------------

    Molecular point group: c1
  Charge       = -1
  Multiplicity = 1
  Basis Set: AUG-CC-PVTZ
    Blend: AUG-CC-PVTZ
  Basis Set: (AUG-CC-PVTZ AUX)
    Blend: AUG-CC-PVTZ-JKFIT

    Orbital Energies [Eh]
    ---------------------

    Doubly Occupied:

       1A    -91.666354     2A    -11.072606     3A     -8.666131
       4A     -6.347769     5A     -6.345996     6A     -6.345967
       7A     -0.771066     8A     -0.574879     9A     -0.374829
      10A     -0.331484    11A     -0.237186    12A     -0.086836
      13A     -0.085124

  @DF-RHF Final Energy:  -437.15785764793281

   => Energetics <=

    Nuclear Repulsion Energy =             46.9856404869456625
    One-Electron Energy =                -702.4745418825713159
    Two-Electron Energy =                 218.3310437476928314
    Total Energy =                       -437.1578576479328717
  Basis Set: (AUG-CC-PVTZ AUX)
    Blend: AUG-CC-PVTZ-RI
    Molecular point group: c1

    Geometry (in Angstrom), charge = -1, multiplicity = 1:

       Center              X                  Y                   Z               Mass
    ------------   -----------------  -----------------  -----------------  -----------------
         S           -0.613026301513     0.000451118476    -0.003941256730    31.972071174400
         C            1.216645698487     0.000458118476    -0.003970256730    12.000000000000
         H            1.703966598487    -0.135804181524     1.189086443270     1.007825032230
         H            1.628528698487    -0.815911881524    -0.608131256730     1.007825032230
         H            1.628655698487     0.931950118476    -0.408650256730     1.007825032230

  Basis Set: AUG-CC-PVTZ
    Blend: AUG-CC-PVTZ
  Basis Set: (AUG-CC-PVTZ AUX)
    Blend: AUG-CC-PVTZ-JKFIT
	 Reference Energy          =    -437.1578576479328149 [Eh]
	 Singles Energy            =      -0.0000000000000000 [Eh]
	 Same-Spin Energy          =      -0.0993053769098779 [Eh]
	 Opposite-Spin Energy      =      -0.3357969731774745 [Eh]
	 Correlation Energy        =      -0.4351023500873524 [Eh]
	 Total Energy              =    -437.5929599980201488 [Eh]

	 ================> DF-SCS-MP2 Energies <==================
	-----------------------------------------------------------
	 SCS Same-Spin Scale       =       0.3333333333333333 [-]
	 SCS Opposite-Spin Scale   =       1.2000000000000000 [-]
	 SCS Same-Spin Energy      =      -0.0331017923032926 [Eh]
	 SCS Opposite-Spin Energy  =      -0.4029563678129693 [Eh]
	 SCS Correlation Energy    =      -0.4360581601162620 [Eh]
	 SCS Total Energy          =    -437.5939158080490756 [Eh]
	-----------------------------------------------------------

  Dipole Moment: [D]
     X:     2.5539      Y:     0.0256      Z:    -0.2248     Total:     2.5639

*** Psi4 exiting successfully. Buy a developer a beer!
