                               Psi4 1.3.2 release

  ==> Input File <==

--------------------------------------------------------------------------
#psi4
#
memory 32 gb

molecule  {
-1 1
  S       -0.7081220     0.0000020     0.0000070
  C        1.3215500     0.0000098    -0.0000252
  H        1.5336630    -0.1152240     1.0089110
  H        1.5334330    -0.8163610    -0.6041830
  H        1.5335600     0.9315010    -0.4047020
units angstrom
no_reorient  #important for SAPT in psi4, default
symmetry c1  #important for SAPT in psi4, default
}

set PROPERTIES_ORIGIN ["COM"]
properties('MP2/aug-cc-pvtz', properties = ['dipole'])
--------------------------------------------------------------------------

    Molecular point group: c1
  Charge       = -1
  Multiplicity = 1
  Basis Set: AUG-CC-PVTZ
    Blend: AUG-CC-PVTZ
  Basis Set: (AUG-CC-PVTZ AUX)
    Blend: AUG-CC-PVTZ-JKFIT

    Orbital Energies [Eh]
    ---------------------

    Doubly Occupied:

       1A    -91.669379     2A    -11.039138     3A     -8.666811
       4A     -6.348049     5A     -6.346458     6A     -6.346458
       7A     -0.776140     8A     -0.574257     9A     -0.405381
      10A     -0.405340    11A     -0.185184    12A     -0.085750
      13A     -0.085749

  @DF-RHF Final Energy:  -437.15714460760483

   => Energetics <=

    Nuclear Repulsion Energy =             45.4341867659206358
    One-Electron Energy =                -699.3144709353435928
    Two-Electron Energy =                 216.7231395618180443
    Total Energy =                       -437.1571446076048915
  Basis Set: (AUG-CC-PVTZ AUX)
    Blend: AUG-CC-PVTZ-RI
    Molecular point group: c1

    Geometry (in Angstrom), charge = -1, multiplicity = 1:

       Center              X                  Y                   Z               Mass
    ------------   -----------------  -----------------  -----------------  -----------------
         S           -0.662482128292    -0.000000061617     0.000008114830    31.972071174400
         C            1.367189871708     0.000007738383    -0.000024085170    12.000000000000
         H            1.579302871708    -0.115226061617     1.008912114830     1.007825032230
         H            1.579072871708    -0.816363061617    -0.604181885170     1.007825032230
         H            1.579199871708     0.931498938383    -0.404700885170     1.007825032230

  Basis Set: AUG-CC-PVTZ
    Blend: AUG-CC-PVTZ
  Basis Set: (AUG-CC-PVTZ AUX)
    Blend: AUG-CC-PVTZ-JKFIT
	 Reference Energy          =    -437.1571446076048346 [Eh]
	 Singles Energy            =      -0.0000000000000000 [Eh]
	 Same-Spin Energy          =      -0.0991377187941994 [Eh]
	 Opposite-Spin Energy      =      -0.3356871478691427 [Eh]
	 Correlation Energy        =      -0.4348248666633421 [Eh]
	 Total Energy              =    -437.5919694742681827 [Eh]

	 ================> DF-SCS-MP2 Energies <==================
	-----------------------------------------------------------
	 SCS Same-Spin Scale       =       0.3333333333333333 [-]
	 SCS Opposite-Spin Scale   =       1.2000000000000000 [-]
	 SCS Same-Spin Energy      =      -0.0330459062647331 [Eh]
	 SCS Opposite-Spin Energy  =      -0.4028245774429712 [Eh]
	 SCS Correlation Energy    =      -0.4358704837077044 [Eh]
	 SCS Total Energy          =    -437.5930150913125658 [Eh]
	-----------------------------------------------------------

  Dipole Moment: [D]
     X:     3.1873      Y:    -0.0000      Z:     0.0000     Total:     3.1873

*** Psi4 exiting successfully. Buy a developer a beer!
