                               Psi4 1.3.2 release

  ==> Input File <==

--------------------------------------------------------------------------
#psi4
#
memory 32 gb

molecule  {
-1 1
  S       -0.7080526     0.0018138    -0.0158566
  C        1.1215500     0.0000090    -0.0000220
  H        1.5425090    -0.1148115     1.0052995
  H        1.5334330    -0.8163610    -0.6041830
  H        1.5335600     0.9315010    -0.4047020
units angstrom
no_reorient  #important for SAPT in psi4, default
symmetry c1  #important for SAPT in psi4, default
}

set PROPERTIES_ORIGIN ["COM"]
properties('MP2/aug-cc-pvtz', properties = ['dipole'])
--------------------------------------------------------------------------

    Molecular point group: c1
  Charge       = -1
  Multiplicity = 1
  Basis Set: AUG-CC-PVTZ
    Blend: AUG-CC-PVTZ
  Basis Set: (AUG-CC-PVTZ AUX)
    Blend: AUG-CC-PVTZ-JKFIT

    Orbital Energies [Eh]
    ---------------------

    Doubly Occupied:

       1A    -91.662338     2A    -11.047049     3A     -8.662149
       4A     -6.343805     5A     -6.342033     6A     -6.342031
       7A     -0.780511     8A     -0.578916     9A     -0.369226
      10A     -0.368479    11A     -0.234196    12A     -0.083389
      13A     -0.083190

  @DF-RHF Final Energy:  -437.17583209980364

   => Energetics <=

    Nuclear Repulsion Energy =             47.6721691050093952
    One-Electron Energy =                -703.9013815912015843
    Two-Electron Energy =                 219.0533803863885396
    Total Energy =                       -437.1758320998036424
  Basis Set: (AUG-CC-PVTZ AUX)
    Blend: AUG-CC-PVTZ-RI
    Molecular point group: c1

    Geometry (in Angstrom), charge = -1, multiplicity = 1:

       Center              X                  Y                   Z               Mass
    ------------   -----------------  -----------------  -----------------  -----------------
         S           -0.611580977039     0.000570490413    -0.004986508237    31.972071174400
         C            1.218021622961    -0.001234309587     0.010848091763    12.000000000000
         H            1.638980622961    -0.116054809587     1.016169591763     1.007825032230
         H            1.629904622961    -0.817604309587    -0.593312908237     1.007825032230
         H            1.630031622961     0.930257690413    -0.393831908237     1.007825032230

  Basis Set: AUG-CC-PVTZ
    Blend: AUG-CC-PVTZ
  Basis Set: (AUG-CC-PVTZ AUX)
    Blend: AUG-CC-PVTZ-JKFIT
	 Reference Energy          =    -437.1758320998036424 [Eh]
	 Singles Energy            =      -0.0000000000000000 [Eh]
	 Same-Spin Energy          =      -0.0993611562004733 [Eh]
	 Opposite-Spin Energy      =      -0.3344377168369564 [Eh]
	 Correlation Energy        =      -0.4337988730374298 [Eh]
	 Total Energy              =    -437.6096309728410461 [Eh]

	 ================> DF-SCS-MP2 Energies <==================
	-----------------------------------------------------------
	 SCS Same-Spin Scale       =       0.3333333333333333 [-]
	 SCS Opposite-Spin Scale   =       1.2000000000000000 [-]
	 SCS Same-Spin Energy      =      -0.0331203854001578 [Eh]
	 SCS Opposite-Spin Energy  =      -0.4013252602043477 [Eh]
	 SCS Correlation Energy    =      -0.4344456456045055 [Eh]
	 SCS Total Energy          =    -437.6102777454081547 [Eh]
	-----------------------------------------------------------

  Dipole Moment: [D]
     X:     2.9128      Y:    -0.0017      Z:     0.0137     Total:     2.9128

*** Psi4 exiting successfully. Buy a developer a beer!
