                               Psi4 1.4a3.dev225

  ==> Input File <==

--------------------------------------------------------------------------
#psi4
#
memory 32 gb

molecule  {
-1 1
  S        0.7083620     0.0000000     0.0000000
  C       -1.1684100     0.0000000    -0.0000010
  H       -1.5411070     0.8896480    -0.4905500
  H       -1.5411080    -0.8696550    -0.5251800
  H       -1.5411220    -0.0199950     1.0157280
units angstrom
no_reorient  #important for SAPT in psi4, default
symmetry c1  #important for SAPT in psi4, default
}

set PROPERTIES_ORIGIN ["COM"]
properties('MP2/aug-cc-pvtz', properties = ['dipole'])
--------------------------------------------------------------------------

    Molecular point group: c1
  Charge       = -1
  Multiplicity = 1
  Basis Set: AUG-CC-PVTZ
    Blend: AUG-CC-PVTZ
  Basis Set: (AUG-CC-PVTZ AUX)
    Blend: AUG-CC-PVTZ-JKFIT

    Orbital Energies [Eh]
    ---------------------

    Doubly Occupied:

       1A    -91.664171     2A    -11.045114     3A     -8.663196
       4A     -6.344726     5A     -6.343040     6A     -6.343040
       7A     -0.777360     8A     -0.577879     9A     -0.376693
      10A     -0.376691    11A     -0.223145    12A     -0.083851
      13A     -0.083851

  @DF-RHF Final Energy:  -437.17527553799647

   => Energetics <=

    Nuclear Repulsion Energy =             47.0636078854743616
    One-Electron Energy =                -702.6722504092078907
    Two-Electron Energy =                 218.4333669857371092
    Total Energy =                       -437.1752755379964697
  Basis Set: (AUG-CC-PVTZ AUX)
    Blend: AUG-CC-PVTZ-RI
    Molecular point group: c1

    Geometry (in Angstrom), charge = -1, multiplicity = 1:

       Center              X                  Y                   Z               Mass
    ------------   -----------------  -----------------  -----------------  -----------------
         S            0.623941967997     0.000000042890     0.000000298234    31.972071174400
         C           -1.252830032003     0.000000042890    -0.000000701766    12.000000000000
         H           -1.625527032003     0.889648042890    -0.490549701766     1.007825032230
         H           -1.625528032003    -0.869654957110    -0.525179701766     1.007825032230
         H           -1.625542032003    -0.019994957110     1.015728298234     1.007825032230

  Basis Set: AUG-CC-PVTZ
    Blend: AUG-CC-PVTZ
  Basis Set: (AUG-CC-PVTZ AUX)
    Blend: AUG-CC-PVTZ-JKFIT
	 Reference Energy          =    -437.1752755379964697 [Eh]
	 Singles Energy            =      -0.0000000000000000 [Eh]
	 Same-Spin Energy          =      -0.0990894231533244 [Eh]
	 Opposite-Spin Energy      =      -0.3344253816483982 [Eh]
	 Correlation Energy        =      -0.4335148048017226 [Eh]
	 Total Energy              =    -437.6087903427982155 [Eh]

	 ================> DF-SCS-MP2 Energies <==================
	-----------------------------------------------------------
	 SCS Same-Spin Scale       =       0.3333333333333333 [-]
	 SCS Opposite-Spin Scale   =       1.2000000000000000 [-]
	 SCS Same-Spin Energy      =      -0.0330298077177748 [Eh]
	 SCS Opposite-Spin Energy  =      -0.4013104579780778 [Eh]
	 SCS Correlation Energy    =      -0.4343402656958526 [Eh]
	 SCS Total Energy          =    -437.6096158036923498 [Eh]
	-----------------------------------------------------------

  Dipole Moment: [D]
     X:    -3.0198      Y:     0.0000      Z:    -0.0000     Total:     3.0198

*** Psi4 exiting successfully. Buy a developer a beer!
