                               Psi4 1.3.2 release

  ==> Input File <==

--------------------------------------------------------------------------
#psi4
#
memory 32 gb

molecule  {
-1 1
  S       -0.7081220     0.0000020     0.0000070
  C        1.1215500     0.0000090    -0.0000220
  H        1.5239325    -0.0997250     1.0144745
  H        1.5236992    -0.8098541    -0.6193086
  H        1.5335600     0.9315010    -0.4047020
units angstrom
no_reorient  #important for SAPT in psi4, default
symmetry c1  #important for SAPT in psi4, default
}

set PROPERTIES_ORIGIN ["COM"]
properties('MP2/aug-cc-pvtz', properties = ['dipole'])
--------------------------------------------------------------------------

    Molecular point group: c1
  Charge       = -1
  Multiplicity = 1
  Basis Set: AUG-CC-PVTZ
    Blend: AUG-CC-PVTZ
  Basis Set: (AUG-CC-PVTZ AUX)
    Blend: AUG-CC-PVTZ-JKFIT

    Orbital Energies [Eh]
    ---------------------

    Doubly Occupied:

       1A    -91.661903     2A    -11.047092     3A     -8.661752
       4A     -6.343407     5A     -6.341637     6A     -6.341637
       7A     -0.780686     8A     -0.577864     9A     -0.373157
      10A     -0.367072    11A     -0.233039    12A     -0.083145
      13A     -0.082857

  @DF-RHF Final Energy:  -437.17582140186943

   => Energetics <=

    Nuclear Repulsion Energy =             47.6981516570675836
    One-Electron Energy =                -703.9574499253461681
    Two-Electron Energy =                 219.0834768664091996
    Total Energy =                       -437.1758214018693707
  Basis Set: (AUG-CC-PVTZ AUX)
    Blend: AUG-CC-PVTZ-RI
    Molecular point group: c1

    Geometry (in Angstrom), charge = -1, multiplicity = 1:

       Center              X                  Y                   Z               Mass
    ------------   -----------------  -----------------  -----------------  -----------------
         S           -0.610996045019    -0.000471776464     0.000212358094    31.972071174400
         C            1.218675954981    -0.000464776464     0.000183358094    12.000000000000
         H            1.621058454981    -0.100198776464     1.014679858094     1.007825032230
         H            1.620825154981    -0.810327876464    -0.619103241906     1.007825032230
         H            1.630685954981     0.931027223536    -0.404496641906     1.007825032230

  Basis Set: AUG-CC-PVTZ
    Blend: AUG-CC-PVTZ
  Basis Set: (AUG-CC-PVTZ AUX)
    Blend: AUG-CC-PVTZ-JKFIT
	 Reference Energy          =    -437.1758214018694275 [Eh]
	 Singles Energy            =      -0.0000000000000000 [Eh]
	 Same-Spin Energy          =      -0.0993667117201603 [Eh]
	 Opposite-Spin Energy      =      -0.3344430138858343 [Eh]
	 Correlation Energy        =      -0.4338097256059946 [Eh]
	 Total Energy              =    -437.6096311274754385 [Eh]

	 ================> DF-SCS-MP2 Energies <==================
	-----------------------------------------------------------
	 SCS Same-Spin Scale       =       0.3333333333333333 [-]
	 SCS Opposite-Spin Scale   =       1.2000000000000000 [-]
	 SCS Same-Spin Energy      =      -0.0331222372400534 [Eh]
	 SCS Opposite-Spin Energy  =      -0.4013316166630012 [Eh]
	 SCS Correlation Energy    =      -0.4344538539030546 [Eh]
	 SCS Total Energy          =    -437.6102752557724784 [Eh]
	-----------------------------------------------------------

  Dipole Moment: [D]
     X:     2.9255      Y:     0.0041      Z:    -0.0018     Total:     2.9255

*** Psi4 exiting successfully. Buy a developer a beer!
