                               Psi4 1.4a3.dev225

  ==> Input File <==

--------------------------------------------------------------------------
#psi4
#
memory 32 gb

molecule  {
-1 1
  S        0.7083620     0.0000000     0.0000000
  C       -1.1184100     0.0000000    -0.0000010
  H       -1.5603143     0.9300734    -0.5128405
  H       -1.5411080    -0.8696550    -0.5251800
  H       -1.5411220    -0.0199950     1.0157280
units angstrom
no_reorient  #important for SAPT in psi4, default
symmetry c1  #important for SAPT in psi4, default
}

set PROPERTIES_ORIGIN ["COM"]
properties('MP2/aug-cc-pvtz', properties = ['dipole'])
--------------------------------------------------------------------------

    Molecular point group: c1
  Charge       = -1
  Multiplicity = 1
  Basis Set: AUG-CC-PVTZ
    Blend: AUG-CC-PVTZ
  Basis Set: (AUG-CC-PVTZ AUX)
    Blend: AUG-CC-PVTZ-JKFIT

    Orbital Energies [Eh]
    ---------------------

    Doubly Occupied:

       1A    -91.663354     2A    -11.055147     3A     -8.663195
       4A     -6.344857     5A     -6.343073     6A     -6.343068
       7A     -0.776411     8A     -0.577414     9A     -0.368071
      10A     -0.357459    11A     -0.236199    12A     -0.084181
      13A     -0.083809

  @DF-RHF Final Energy:  -437.17362183298519

   => Energetics <=

    Nuclear Repulsion Energy =             47.4695468316756291
    One-Electron Energy =                -703.4938621906253502
    Two-Electron Energy =                 218.8506935259645729
    Total Energy =                       -437.1736218329851340
  Basis Set: (AUG-CC-PVTZ AUX)
    Blend: AUG-CC-PVTZ-RI
    Molecular point group: c1

    Geometry (in Angstrom), charge = -1, multiplicity = 1:

       Center              X                  Y                   Z               Mass
    ------------   -----------------  -----------------  -----------------  -----------------
         S            0.611586703545    -0.000866884580     0.000478320635    31.972071174400
         C           -1.215185296455    -0.000866884580     0.000477320635    12.000000000000
         H           -1.657089596455     0.929206515420    -0.512362179365     1.007825032230
         H           -1.637883296455    -0.870521884580    -0.524701679365     1.007825032230
         H           -1.637897296455    -0.020861884580     1.016206320635     1.007825032230

  Basis Set: AUG-CC-PVTZ
    Blend: AUG-CC-PVTZ
  Basis Set: (AUG-CC-PVTZ AUX)
    Blend: AUG-CC-PVTZ-JKFIT
	 Reference Energy          =    -437.1736218329851908 [Eh]
	 Singles Energy            =      -0.0000000000000000 [Eh]
	 Same-Spin Energy          =      -0.0993685675239514 [Eh]
	 Opposite-Spin Energy      =      -0.3347882238498728 [Eh]
	 Correlation Energy        =      -0.4341567913738242 [Eh]
	 Total Energy              =    -437.6077786243590140 [Eh]

	 ================> DF-SCS-MP2 Energies <==================
	-----------------------------------------------------------
	 SCS Same-Spin Scale       =       0.3333333333333333 [-]
	 SCS Opposite-Spin Scale   =       1.2000000000000000 [-]
	 SCS Same-Spin Energy      =      -0.0331228558413171 [Eh]
	 SCS Opposite-Spin Energy  =      -0.4017458686198474 [Eh]
	 SCS Correlation Energy    =      -0.4348687244611645 [Eh]
	 SCS Total Energy          =    -437.6084905574463733 [Eh]
	-----------------------------------------------------------

  Dipole Moment: [D]
     X:    -2.8124      Y:    -0.0372      Z:     0.0205     Total:     2.8127

*** Psi4 exiting successfully. Buy a developer a beer!
