                               Psi4 1.3.2 release

  ==> Input File <==

--------------------------------------------------------------------------
#psi4
#
memory 32 gb

molecule  {
-1 1
  S       -0.7056129    -0.0108642     0.0951461
  C        1.1215500     0.0000090    -0.0000220
  H        1.4799515    -0.1175137     1.0289573
  H        1.5334330    -0.8163610    -0.6041830
  H        1.5335600     0.9315010    -0.4047020
units angstrom
no_reorient  #important for SAPT in psi4, default
symmetry c1  #important for SAPT in psi4, default
}

set PROPERTIES_ORIGIN ["COM"]
properties('MP2/aug-cc-pvtz', properties = ['dipole'])
--------------------------------------------------------------------------

    Molecular point group: c1
  Charge       = -1
  Multiplicity = 1
  Basis Set: AUG-CC-PVTZ
    Blend: AUG-CC-PVTZ
  Basis Set: (AUG-CC-PVTZ AUX)
    Blend: AUG-CC-PVTZ-JKFIT

    Orbital Energies [Eh]
    ---------------------

    Doubly Occupied:

       1A    -91.661518     2A    -11.046988     3A     -8.661417
       4A     -6.343071     5A     -6.341303     6A     -6.341291
       7A     -0.781038     8A     -0.576656     9A     -0.373544
      10A     -0.369565    11A     -0.231438    12A     -0.083387
      13A     -0.081872

  @DF-RHF Final Energy:  -437.17496854829255

   => Energetics <=

    Nuclear Repulsion Energy =             47.7389361503765173
    One-Electron Energy =                -704.0416326039550086
    Two-Electron Energy =                 219.1277279052859797
    Total Energy =                       -437.1749685482925543
  Basis Set: (AUG-CC-PVTZ AUX)
    Blend: AUG-CC-PVTZ-RI
    Molecular point group: c1

    Geometry (in Angstrom), charge = -1, multiplicity = 1:

       Center              X                  Y                   Z               Mass
    ------------   -----------------  -----------------  -----------------  -----------------
         S           -0.609459503952    -0.003424447137     0.029991346188    31.972071174400
         C            1.217703396048     0.007448752863    -0.065176753812    12.000000000000
         H            1.576104896048    -0.110073947137     0.963802546188     1.007825032230
         H            1.629586396048    -0.808921247137    -0.669337753812     1.007825032230
         H            1.629713396048     0.938940752863    -0.469856753812     1.007825032230

  Basis Set: AUG-CC-PVTZ
    Blend: AUG-CC-PVTZ
  Basis Set: (AUG-CC-PVTZ AUX)
    Blend: AUG-CC-PVTZ-JKFIT
	 Reference Energy          =    -437.1749685482925543 [Eh]
	 Singles Energy            =      -0.0000000000000000 [Eh]
	 Same-Spin Energy          =      -0.0994119275122606 [Eh]
	 Opposite-Spin Energy      =      -0.3345187705006230 [Eh]
	 Correlation Energy        =      -0.4339306980128835 [Eh]
	 Total Energy              =    -437.6088992463054410 [Eh]

	 ================> DF-SCS-MP2 Energies <==================
	-----------------------------------------------------------
	 SCS Same-Spin Scale       =       0.3333333333333333 [-]
	 SCS Opposite-Spin Scale   =       1.2000000000000000 [-]
	 SCS Same-Spin Energy      =      -0.0331373091707535 [Eh]
	 SCS Opposite-Spin Energy  =      -0.4014225246007475 [Eh]
	 SCS Correlation Energy    =      -0.4345598337715010 [Eh]
	 SCS Total Energy          =    -437.6095283820640702 [Eh]
	-----------------------------------------------------------

  Dipole Moment: [D]
     X:     2.9357      Y:     0.0099      Z:    -0.0878     Total:     2.9371

*** Psi4 exiting successfully. Buy a developer a beer!
