                               Psi4 1.3.2 release

  ==> Input File <==

--------------------------------------------------------------------------
#psi4
#
memory 32 gb

molecule  {
-1 1
  S       -0.7056160     0.0108682    -0.0951322
  C        1.1215500     0.0000090    -0.0000220
  H        1.5862450    -0.1126185     0.9860993
  H        1.5334330    -0.8163610    -0.6041830
  H        1.5335600     0.9315010    -0.4047020
units angstrom
no_reorient  #important for SAPT in psi4, default
symmetry c1  #important for SAPT in psi4, default
}

set PROPERTIES_ORIGIN ["COM"]
properties('MP2/aug-cc-pvtz', properties = ['dipole'])
--------------------------------------------------------------------------

    Molecular point group: c1
  Charge       = -1
  Multiplicity = 1
  Basis Set: AUG-CC-PVTZ
    Blend: AUG-CC-PVTZ
  Basis Set: (AUG-CC-PVTZ AUX)
    Blend: AUG-CC-PVTZ-JKFIT

    Orbital Energies [Eh]
    ---------------------

    Doubly Occupied:

       1A    -91.663141     2A    -11.046870     3A     -8.662890
       4A     -6.344546     5A     -6.342769     6A     -6.342756
       7A     -0.780416     8A     -0.580638     9A     -0.368935
      10A     -0.364584    11A     -0.235768    12A     -0.084206
      13A     -0.083206

  @DF-RHF Final Energy:  -437.17472467411869

   => Energetics <=

    Nuclear Repulsion Energy =             47.6406027502413423
    One-Electron Energy =                -703.8292064684734441
    Two-Electron Energy =                 219.0138790441134233
    Total Energy =                       -437.1747246741186927
  Basis Set: (AUG-CC-PVTZ AUX)
    Blend: AUG-CC-PVTZ-RI
    Molecular point group: c1

    Geometry (in Angstrom), charge = -1, multiplicity = 1:

       Center              X                  Y                   Z               Mass
    ------------   -----------------  -----------------  -----------------  -----------------
         S           -0.611739971599     0.003417960083    -0.029917478364    31.972071174400
         C            1.215426028401    -0.007441239917     0.065192721636    12.000000000000
         H            1.680121028401    -0.120068739917     1.051314021636     1.007825032230
         H            1.627309028401    -0.823811239917    -0.538968278364     1.007825032230
         H            1.627436028401     0.924050760083    -0.339487278364     1.007825032230

  Basis Set: AUG-CC-PVTZ
    Blend: AUG-CC-PVTZ
  Basis Set: (AUG-CC-PVTZ AUX)
    Blend: AUG-CC-PVTZ-JKFIT
	 Reference Energy          =    -437.1747246741186927 [Eh]
	 Singles Energy            =      -0.0000000000000000 [Eh]
	 Same-Spin Energy          =      -0.0994027714972672 [Eh]
	 Opposite-Spin Energy      =      -0.3345178907906185 [Eh]
	 Correlation Energy        =      -0.4339206622878857 [Eh]
	 Total Energy              =    -437.6086453364065960 [Eh]

	 ================> DF-SCS-MP2 Energies <==================
	-----------------------------------------------------------
	 SCS Same-Spin Scale       =       0.3333333333333333 [-]
	 SCS Opposite-Spin Scale   =       1.2000000000000000 [-]
	 SCS Same-Spin Energy      =      -0.0331342571657557 [Eh]
	 SCS Opposite-Spin Energy  =      -0.4014214689487422 [Eh]
	 SCS Correlation Energy    =      -0.4345557261144979 [Eh]
	 SCS Total Energy          =    -437.6092804002332173 [Eh]
	-----------------------------------------------------------

  Dipole Moment: [D]
     X:     2.8890      Y:    -0.0091      Z:     0.0787     Total:     2.8901

*** Psi4 exiting successfully. Buy a developer a beer!
