                               Psi4 1.3.2 release

  ==> Input File <==

--------------------------------------------------------------------------
#psi4
#
memory 32 gb

molecule  {
-1 1
  S       -0.7081220     0.0000020     0.0000070
  C        1.1215500     0.0000090    -0.0000220
  H        1.5432680    -0.1306879     1.0030402
  H        1.5430414    -0.8226192    -0.5888733
  H        1.5335600     0.9315010    -0.4047020
units angstrom
no_reorient  #important for SAPT in psi4, default
symmetry c1  #important for SAPT in psi4, default
}

set PROPERTIES_ORIGIN ["COM"]
properties('MP2/aug-cc-pvtz', properties = ['dipole'])
--------------------------------------------------------------------------

    Molecular point group: c1
  Charge       = -1
  Multiplicity = 1
  Basis Set: AUG-CC-PVTZ
    Blend: AUG-CC-PVTZ
  Basis Set: (AUG-CC-PVTZ AUX)
    Blend: AUG-CC-PVTZ-JKFIT

    Orbital Energies [Eh]
    ---------------------

    Doubly Occupied:

       1A    -91.662499     2A    -11.047043     3A     -8.662295
       4A     -6.343951     5A     -6.342177     6A     -6.342177
       7A     -0.780467     8A     -0.579324     9A     -0.371488
      10A     -0.365236    11A     -0.234621    12A     -0.083550
      13A     -0.083240

  @DF-RHF Final Energy:  -437.17572057528531

   => Energetics <=

    Nuclear Repulsion Energy =             47.6626032647699489
    One-Electron Energy =                -703.8805142374532124
    Two-Electron Energy =                 219.0421903973979454
    Total Energy =                       -437.1757205752853679
  Basis Set: (AUG-CC-PVTZ AUX)
    Blend: AUG-CC-PVTZ-RI
    Molecular point group: c1

    Geometry (in Angstrom), charge = -1, multiplicity = 1:

       Center              X                  Y                   Z               Mass
    ------------   -----------------  -----------------  -----------------  -----------------
         S           -0.611825492857     0.000465975654    -0.000195120592    31.972071174400
         C            1.217846507143     0.000472975654    -0.000224120592    12.000000000000
         H            1.639564507143    -0.130223924346     1.002838079408     1.007825032230
         H            1.639337907143    -0.822155224346    -0.589075420592     1.007825032230
         H            1.629856507143     0.931964975654    -0.404904120592     1.007825032230

  Basis Set: AUG-CC-PVTZ
    Blend: AUG-CC-PVTZ
  Basis Set: (AUG-CC-PVTZ AUX)
    Blend: AUG-CC-PVTZ-JKFIT
	 Reference Energy          =    -437.1757205752853110 [Eh]
	 Singles Energy            =      -0.0000000000000000 [Eh]
	 Same-Spin Energy          =      -0.0993647761206484 [Eh]
	 Opposite-Spin Energy      =      -0.3344429248202194 [Eh]
	 Correlation Energy        =      -0.4338077009408677 [Eh]
	 Total Energy              =    -437.6095282762261718 [Eh]

	 ================> DF-SCS-MP2 Energies <==================
	-----------------------------------------------------------
	 SCS Same-Spin Scale       =       0.3333333333333333 [-]
	 SCS Opposite-Spin Scale   =       1.2000000000000000 [-]
	 SCS Same-Spin Energy      =      -0.0331215920402161 [Eh]
	 SCS Opposite-Spin Energy  =      -0.4013315097842632 [Eh]
	 SCS Correlation Energy    =      -0.4344531018244794 [Eh]
	 SCS Total Energy          =    -437.6101736771097990 [Eh]
	-----------------------------------------------------------

  Dipole Moment: [D]
     X:     2.9080      Y:    -0.0041      Z:     0.0017     Total:     2.9080

*** Psi4 exiting successfully. Buy a developer a beer!
