                               Psi4 1.3.2 release

  ==> Input File <==

--------------------------------------------------------------------------
#psi4
#
memory 32 gb

molecule  {
-1 1
  S       -0.7081220     0.0000020     0.0000070
  C        1.1215500     0.0000090    -0.0000220
  H        1.5620897    -0.1614916     0.9903839
  H        1.5618700    -0.8343822    -0.5577206
  H        1.5335600     0.9315010    -0.4047020
units angstrom
no_reorient  #important for SAPT in psi4, default
symmetry c1  #important for SAPT in psi4, default
}

set PROPERTIES_ORIGIN ["COM"]
properties('MP2/aug-cc-pvtz', properties = ['dipole'])
--------------------------------------------------------------------------

    Molecular point group: c1
  Charge       = -1
  Multiplicity = 1
  Basis Set: AUG-CC-PVTZ
    Blend: AUG-CC-PVTZ
  Basis Set: (AUG-CC-PVTZ AUX)
    Blend: AUG-CC-PVTZ-JKFIT

    Orbital Energies [Eh]
    ---------------------

    Doubly Occupied:

       1A    -91.663114     2A    -11.047021     3A     -8.662857
       4A     -6.344514     5A     -6.342736     6A     -6.342735
       7A     -0.780418     8A     -0.580902     9A     -0.375987
      10A     -0.356941    11A     -0.236129    12A     -0.084257
      13A     -0.083271

  @DF-RHF Final Energy:  -437.17470301227991

   => Energetics <=

    Nuclear Repulsion Energy =             47.6297348544485288
    One-Electron Energy =                -703.8071109559056140
    Two-Electron Energy =                 219.0026730891771649
    Total Energy =                       -437.1747030122799060
  Basis Set: (AUG-CC-PVTZ AUX)
    Blend: AUG-CC-PVTZ-RI
    Molecular point group: c1

    Geometry (in Angstrom), charge = -1, multiplicity = 1:

       Center              X                  Y                   Z               Mass
    ------------   -----------------  -----------------  -----------------  -----------------
         S           -0.612632907980     0.001378823555    -0.000591778072    31.972071174400
         C            1.217039092020     0.001385823555    -0.000620778072    12.000000000000
         H            1.657578792020    -0.160114776445     0.989785121928     1.007825032230
         H            1.657359092020    -0.833005376445    -0.558319378072     1.007825032230
         H            1.629049092020     0.932877823555    -0.405300778072     1.007825032230

  Basis Set: AUG-CC-PVTZ
    Blend: AUG-CC-PVTZ
  Basis Set: (AUG-CC-PVTZ AUX)
    Blend: AUG-CC-PVTZ-JKFIT
	 Reference Energy          =    -437.1747030122799060 [Eh]
	 Singles Energy            =      -0.0000000000000000 [Eh]
	 Same-Spin Energy          =      -0.0994071723472648 [Eh]
	 Opposite-Spin Energy      =      -0.3345057109207762 [Eh]
	 Correlation Energy        =      -0.4339128832680410 [Eh]
	 Total Energy              =    -437.6086158955479277 [Eh]

	 ================> DF-SCS-MP2 Energies <==================
	-----------------------------------------------------------
	 SCS Same-Spin Scale       =       0.3333333333333333 [-]
	 SCS Opposite-Spin Scale   =       1.2000000000000000 [-]
	 SCS Same-Spin Energy      =      -0.0331357241157549 [Eh]
	 SCS Opposite-Spin Energy  =      -0.4014068531049314 [Eh]
	 SCS Correlation Energy    =      -0.4345425772206863 [Eh]
	 SCS Total Energy          =    -437.6092455895005742 [Eh]
	-----------------------------------------------------------

  Dipole Moment: [D]
     X:     2.8895      Y:    -0.0121      Z:     0.0052     Total:     2.8895

*** Psi4 exiting successfully. Buy a developer a beer!
