                               Psi4 1.4a3.dev225

  ==> Input File <==

--------------------------------------------------------------------------
#psi4
#
memory 32 gb

molecule  {
-1 1
  S        0.7083620     0.0000000     0.0000000
  C       -1.0984100     0.0000000    -0.0000010
  H       -1.5411070     0.8896480    -0.4905500
  H       -1.5411080    -0.8696550    -0.5251800
  H       -1.5411220    -0.0199950     1.0157280
units angstrom
no_reorient  #important for SAPT in psi4, default
symmetry c1  #important for SAPT in psi4, default
}

set PROPERTIES_ORIGIN ["COM"]
properties('MP2/aug-cc-pvtz', properties = ['dipole'])
--------------------------------------------------------------------------

    Molecular point group: c1
  Charge       = -1
  Multiplicity = 1
  Basis Set: AUG-CC-PVTZ
    Blend: AUG-CC-PVTZ
  Basis Set: (AUG-CC-PVTZ AUX)
    Blend: AUG-CC-PVTZ-JKFIT

    Orbital Energies [Eh]
    ---------------------

    Doubly Occupied:

       1A    -91.661924     2A    -11.050180     3A     -8.662149
       4A     -6.343873     5A     -6.342042     6A     -6.342042
       7A     -0.781259     8A     -0.579399     9A     -0.363070
      10A     -0.363067    11A     -0.240369    12A     -0.083340
      13A     -0.083340

  @DF-RHF Final Energy:  -437.17481980867416

   => Energetics <=

    Nuclear Repulsion Energy =             47.9053337665397052
    One-Electron Energy =                -704.3681986940051729
    Two-Electron Energy =                 219.2880451187913309
    Total Energy =                       -437.1748198086741581
  Basis Set: (AUG-CC-PVTZ AUX)
    Blend: AUG-CC-PVTZ-RI
    Molecular point group: c1

    Geometry (in Angstrom), charge = -1, multiplicity = 1:

       Center              X                  Y                   Z               Mass
    ------------   -----------------  -----------------  -----------------  -----------------
         S            0.606067933825     0.000000042890     0.000000298234    31.972071174400
         C           -1.200704066175     0.000000042890    -0.000000701766    12.000000000000
         H           -1.643401066175     0.889648042890    -0.490549701766     1.007825032230
         H           -1.643402066175    -0.869654957110    -0.525179701766     1.007825032230
         H           -1.643416066175    -0.019994957110     1.015728298234     1.007825032230

  Basis Set: AUG-CC-PVTZ
    Blend: AUG-CC-PVTZ
  Basis Set: (AUG-CC-PVTZ AUX)
    Blend: AUG-CC-PVTZ-JKFIT
	 Reference Energy          =    -437.1748198086741581 [Eh]
	 Singles Energy            =      -0.0000000000000000 [Eh]
	 Same-Spin Energy          =      -0.0995432762985991 [Eh]
	 Opposite-Spin Energy      =      -0.3346007453438001 [Eh]
	 Correlation Energy        =      -0.4341440216423993 [Eh]
	 Total Energy              =    -437.6089638303165543 [Eh]

	 ================> DF-SCS-MP2 Energies <==================
	-----------------------------------------------------------
	 SCS Same-Spin Scale       =       0.3333333333333333 [-]
	 SCS Opposite-Spin Scale   =       1.2000000000000000 [-]
	 SCS Same-Spin Energy      =      -0.0331810920995330 [Eh]
	 SCS Opposite-Spin Energy  =      -0.4015208944125602 [Eh]
	 SCS Correlation Energy    =      -0.4347019865120932 [Eh]
	 SCS Total Energy          =    -437.6095217951862537 [Eh]
	-----------------------------------------------------------

  Dipole Moment: [D]
     X:    -2.8197      Y:     0.0000      Z:    -0.0000     Total:     2.8197

*** Psi4 exiting successfully. Buy a developer a beer!
