                               Psi4 1.3.2 release

  ==> Input File <==

--------------------------------------------------------------------------
#psi4
#
memory 32 gb

molecule  {
-1 1
  S       -0.7081220     0.0000020     0.0000070
  C        1.1215500     0.0000090    -0.0000220
  H        1.5140794    -0.0841956     1.0197289
  H        1.5138428    -0.8031005    -0.6342456
  H        1.5335600     0.9315010    -0.4047020
units angstrom
no_reorient  #important for SAPT in psi4, default
symmetry c1  #important for SAPT in psi4, default
}

set PROPERTIES_ORIGIN ["COM"]
properties('MP2/aug-cc-pvtz', properties = ['dipole'])
--------------------------------------------------------------------------

    Molecular point group: c1
  Charge       = -1
  Multiplicity = 1
  Basis Set: AUG-CC-PVTZ
    Blend: AUG-CC-PVTZ
  Basis Set: (AUG-CC-PVTZ AUX)
    Blend: AUG-CC-PVTZ-JKFIT

    Orbital Energies [Eh]
    ---------------------

    Doubly Occupied:

       1A    -91.661613     2A    -11.047128     3A     -8.661489
       4A     -6.343144     5A     -6.341376     6A     -6.341375
       7A     -0.780854     8A     -0.577175     9A     -0.376976
      10A     -0.364894    11A     -0.232218    12A     -0.083079
      13A     -0.082516

  @DF-RHF Final Energy:  -437.17553798209030

   => Energetics <=

    Nuclear Repulsion Energy =             47.7169148342166949
    One-Electron Energy =                -703.9972285855111522
    Two-Electron Energy =                 219.1047757692041387
    Total Energy =                       -437.1755379820903045
  Basis Set: (AUG-CC-PVTZ AUX)
    Blend: AUG-CC-PVTZ-RI
    Molecular point group: c1

    Geometry (in Angstrom), charge = -1, multiplicity = 1:

       Center              X                  Y                   Z               Mass
    ------------   -----------------  -----------------  -----------------  -----------------
         S           -0.610573372467    -0.000949638027     0.000420002593    31.972071174400
         C            1.219098627533    -0.000942638027     0.000391002593    12.000000000000
         H            1.611628027533    -0.085147238027     1.020141902593     1.007825032230
         H            1.611391427533    -0.804052138027    -0.633832597407     1.007825032230
         H            1.631108627533     0.930549361973    -0.404288997407     1.007825032230

  Basis Set: AUG-CC-PVTZ
    Blend: AUG-CC-PVTZ
  Basis Set: (AUG-CC-PVTZ AUX)
    Blend: AUG-CC-PVTZ-JKFIT
	 Reference Energy          =    -437.1755379820903045 [Eh]
	 Singles Energy            =      -0.0000000000000000 [Eh]
	 Same-Spin Energy          =      -0.0993836807422329 [Eh]
	 Opposite-Spin Energy      =      -0.3344648301192367 [Eh]
	 Correlation Energy        =      -0.4338485108614696 [Eh]
	 Total Energy              =    -437.6093864929517849 [Eh]

	 ================> DF-SCS-MP2 Energies <==================
	-----------------------------------------------------------
	 SCS Same-Spin Scale       =       0.3333333333333333 [-]
	 SCS Opposite-Spin Scale   =       1.2000000000000000 [-]
	 SCS Same-Spin Energy      =      -0.0331278935807443 [Eh]
	 SCS Opposite-Spin Energy  =      -0.4013577961430840 [Eh]
	 SCS Correlation Energy    =      -0.4344856897238283 [Eh]
	 SCS Total Energy          =    -437.6100236718141332 [Eh]
	-----------------------------------------------------------

  Dipole Moment: [D]
     X:     2.9337      Y:     0.0084      Z:    -0.0037     Total:     2.9337

*** Psi4 exiting successfully. Buy a developer a beer!
