                               Psi4 1.3.2 release

  ==> Input File <==

--------------------------------------------------------------------------
#psi4
#
memory 32 gb

molecule  {
-1 1
  S       -0.7070064    -0.0072440     0.0634492
  C        1.1215500     0.0000090    -0.0000220
  H        1.4979718    -0.1167859     1.0225860
  H        1.5334330    -0.8163610    -0.6041830
  H        1.5335600     0.9315010    -0.4047020
units angstrom
no_reorient  #important for SAPT in psi4, default
symmetry c1  #important for SAPT in psi4, default
}

set PROPERTIES_ORIGIN ["COM"]
properties('MP2/aug-cc-pvtz', properties = ['dipole'])
--------------------------------------------------------------------------

    Molecular point group: c1
  Charge       = -1
  Multiplicity = 1
  Basis Set: AUG-CC-PVTZ
    Blend: AUG-CC-PVTZ
  Basis Set: (AUG-CC-PVTZ AUX)
    Blend: AUG-CC-PVTZ-JKFIT

    Orbital Energies [Eh]
    ---------------------

    Doubly Occupied:

       1A    -91.661712     2A    -11.047047     3A     -8.661585
       4A     -6.343239     5A     -6.341472     6A     -6.341463
       7A     -0.780836     8A     -0.577277     9A     -0.372149
      10A     -0.369480    11A     -0.232288    12A     -0.083300
      13A     -0.082351

  @DF-RHF Final Energy:  -437.17550943114981

   => Energetics <=

    Nuclear Repulsion Energy =             47.7170310214446616
    One-Electron Energy =                -703.9966816606660132
    Two-Electron Energy =                 219.1041412080716100
    Total Energy =                       -437.1755094311497487
  Basis Set: (AUG-CC-PVTZ AUX)
    Blend: AUG-CC-PVTZ-RI
    Molecular point group: c1

    Geometry (in Angstrom), charge = -1, multiplicity = 1:

       Center              X                  Y                   Z               Mass
    ------------   -----------------  -----------------  -----------------  -----------------
         S           -0.610291423678    -0.002282754067     0.019995155709    31.972071174400
         C            1.218264976322     0.004970245933    -0.043476044291    12.000000000000
         H            1.594686776322    -0.111824654067     0.979131955709     1.007825032230
         H            1.630147976322    -0.811399754067    -0.647637044291     1.007825032230
         H            1.630274976322     0.936462245933    -0.448156044291     1.007825032230

  Basis Set: AUG-CC-PVTZ
    Blend: AUG-CC-PVTZ
  Basis Set: (AUG-CC-PVTZ AUX)
    Blend: AUG-CC-PVTZ-JKFIT
	 Reference Energy          =    -437.1755094311498056 [Eh]
	 Singles Energy            =      -0.0000000000000000 [Eh]
	 Same-Spin Energy          =      -0.0993835921202059 [Eh]
	 Opposite-Spin Energy      =      -0.3344725771051174 [Eh]
	 Correlation Energy        =      -0.4338561692253233 [Eh]
	 Total Energy              =    -437.6093656003751562 [Eh]

	 ================> DF-SCS-MP2 Energies <==================
	-----------------------------------------------------------
	 SCS Same-Spin Scale       =       0.3333333333333333 [-]
	 SCS Opposite-Spin Scale   =       1.2000000000000000 [-]
	 SCS Same-Spin Energy      =      -0.0331278640400686 [Eh]
	 SCS Opposite-Spin Energy  =      -0.4013670925261409 [Eh]
	 SCS Correlation Energy    =      -0.4344949565662095 [Eh]
	 SCS Total Energy          =    -437.6100043877160033 [Eh]
	-----------------------------------------------------------

  Dipole Moment: [D]
     X:     2.9308      Y:     0.0065      Z:    -0.0575     Total:     2.9313

*** Psi4 exiting successfully. Buy a developer a beer!
