                               Psi4 1.3.2 release

  ==> Input File <==

--------------------------------------------------------------------------
#psi4
#
memory 32 gb

molecule  {
-1 1
  S       -0.7070084     0.0072480    -0.0634352
  C        1.1215500     0.0000090    -0.0000220
  H        1.5688521    -0.1135217     0.9940068
  H        1.5334330    -0.8163610    -0.6041830
  H        1.5335600     0.9315010    -0.4047020
units angstrom
no_reorient  #important for SAPT in psi4, default
symmetry c1  #important for SAPT in psi4, default
}

set PROPERTIES_ORIGIN ["COM"]
properties('MP2/aug-cc-pvtz', properties = ['dipole'])
--------------------------------------------------------------------------

    Molecular point group: c1
  Charge       = -1
  Multiplicity = 1
  Basis Set: AUG-CC-PVTZ
    Blend: AUG-CC-PVTZ
  Basis Set: (AUG-CC-PVTZ AUX)
    Blend: AUG-CC-PVTZ-JKFIT

    Orbital Energies [Eh]
    ---------------------

    Doubly Occupied:

       1A    -91.662800     2A    -11.046961     3A     -8.662574
       4A     -6.344230     5A     -6.342457     6A     -6.342448
       7A     -0.780428     8A     -0.579942     9A     -0.369054
      10A     -0.366166    11A     -0.235181    12A     -0.083905
      13A     -0.083187

  @DF-RHF Final Energy:  -437.17533605392561

   => Energetics <=

    Nuclear Repulsion Energy =             47.6516962647146585
    One-Electron Energy =                -703.8553963244100942
    Two-Electron Energy =                 219.0283640057697596
    Total Energy =                       -437.1753360539256619
  Basis Set: (AUG-CC-PVTZ AUX)
    Blend: AUG-CC-PVTZ-RI
    Molecular point group: c1

    Geometry (in Angstrom), charge = -1, multiplicity = 1:

       Center              X                  Y                   Z               Mass
    ------------   -----------------  -----------------  -----------------  -----------------
         S           -0.611812099428     0.002280028487    -0.019954199908    31.972071174400
         C            1.216746300572    -0.004958971513     0.043459000092    12.000000000000
         H            1.664048400572    -0.118489671513     1.037487800092     1.007825032230
         H            1.628629300572    -0.821328971513    -0.560701999908     1.007825032230
         H            1.628756300572     0.926533028487    -0.361220999908     1.007825032230

  Basis Set: AUG-CC-PVTZ
    Blend: AUG-CC-PVTZ
  Basis Set: (AUG-CC-PVTZ AUX)
    Blend: AUG-CC-PVTZ-JKFIT
	 Reference Energy          =    -437.1753360539256050 [Eh]
	 Singles Energy            =      -0.0000000000000000 [Eh]
	 Same-Spin Energy          =      -0.0993787998959160 [Eh]
	 Opposite-Spin Energy      =      -0.3344720032404259 [Eh]
	 Correlation Energy        =      -0.4338508031363419 [Eh]
	 Total Energy              =    -437.6091868570619567 [Eh]

	 ================> DF-SCS-MP2 Energies <==================
	-----------------------------------------------------------
	 SCS Same-Spin Scale       =       0.3333333333333333 [-]
	 SCS Opposite-Spin Scale   =       1.2000000000000000 [-]
	 SCS Same-Spin Energy      =      -0.0331262666319720 [Eh]
	 SCS Opposite-Spin Energy  =      -0.4013664038885111 [Eh]
	 SCS Correlation Energy    =      -0.4344926705204831 [Eh]
	 SCS Total Energy          =    -437.6098287244460607 [Eh]
	-----------------------------------------------------------

  Dipole Moment: [D]
     X:     2.8991      Y:    -0.0062      Z:     0.0534     Total:     2.8996

*** Psi4 exiting successfully. Buy a developer a beer!
