                               Psi4 1.4a3.dev225

  ==> Input File <==

--------------------------------------------------------------------------
#psi4
#
memory 32 gb

molecule  {
-1 1
  S        0.7083620     0.0000000     0.0000000
  C       -1.1184100     0.0000000    -0.0000010
  H       -1.5334241     0.8734778    -0.4816338
  H       -1.5411080    -0.8696550    -0.5251800
  H       -1.5411220    -0.0199950     1.0157280
units angstrom
no_reorient  #important for SAPT in psi4, default
symmetry c1  #important for SAPT in psi4, default
}

set PROPERTIES_ORIGIN ["COM"]
properties('MP2/aug-cc-pvtz', properties = ['dipole'])
--------------------------------------------------------------------------

    Molecular point group: c1
  Charge       = -1
  Multiplicity = 1
  Basis Set: AUG-CC-PVTZ
    Blend: AUG-CC-PVTZ
  Basis Set: (AUG-CC-PVTZ AUX)
    Blend: AUG-CC-PVTZ-JKFIT

    Orbital Energies [Eh]
    ---------------------

    Doubly Occupied:

       1A    -91.662275     2A    -11.045910     3A     -8.662123
       4A     -6.343788     5A     -6.342010     6A     -6.342008
       7A     -0.781481     8A     -0.579796     9A     -0.370745
      10A     -0.366561    11A     -0.235230    12A     -0.083366
      13A     -0.083225

  @DF-RHF Final Energy:  -437.17568506238661

   => Energetics <=

    Nuclear Repulsion Energy =             47.7379975209977090
    One-Electron Energy =                -704.0303257331061104
    Two-Electron Energy =                 219.1166431497217388
    Total Energy =                       -437.1756850623866058
  Basis Set: (AUG-CC-PVTZ AUX)
    Blend: AUG-CC-PVTZ-RI
    Molecular point group: c1

    Geometry (in Angstrom), charge = -1, multiplicity = 1:

       Center              X                  Y                   Z               Mass
    ------------   -----------------  -----------------  -----------------  -----------------
         S            0.611010040034     0.000346814736    -0.000190910727    31.972071174400
         C           -1.215761959966     0.000346814736    -0.000191910727    12.000000000000
         H           -1.630776059966     0.873824614736    -0.481824710727     1.007825032230
         H           -1.638459959966    -0.869308185264    -0.525370910727     1.007825032230
         H           -1.638473959966    -0.019648185264     1.015537089273     1.007825032230

  Basis Set: AUG-CC-PVTZ
    Blend: AUG-CC-PVTZ
  Basis Set: (AUG-CC-PVTZ AUX)
    Blend: AUG-CC-PVTZ-JKFIT
	 Reference Energy          =    -437.1756850623866058 [Eh]
	 Singles Energy            =      -0.0000000000000000 [Eh]
	 Same-Spin Energy          =      -0.0993844160776325 [Eh]
	 Opposite-Spin Energy      =      -0.3343987404396019 [Eh]
	 Correlation Energy        =      -0.4337831565172344 [Eh]
	 Total Energy              =    -437.6094682189038281 [Eh]

	 ================> DF-SCS-MP2 Energies <==================
	-----------------------------------------------------------
	 SCS Same-Spin Scale       =       0.3333333333333333 [-]
	 SCS Opposite-Spin Scale   =       1.2000000000000000 [-]
	 SCS Same-Spin Energy      =      -0.0331281386925442 [Eh]
	 SCS Opposite-Spin Energy  =      -0.4012784885275223 [Eh]
	 SCS Correlation Energy    =      -0.4344066272200665 [Eh]
	 SCS Total Energy          =    -437.6100916896066906 [Eh]
	-----------------------------------------------------------

  Dipole Moment: [D]
     X:    -2.9118      Y:     0.0124      Z:    -0.0068     Total:     2.9118

*** Psi4 exiting successfully. Buy a developer a beer!
