                               Psi4 1.3.2 release

  ==> Input File <==

--------------------------------------------------------------------------
#psi4
#
memory 32 gb

molecule  {
-1 1
  S       -0.7078428    -0.0036215     0.0317329
  C        1.1215500     0.0000090    -0.0000220
  H        1.5158775    -0.1160226     1.0159032
  H        1.5334330    -0.8163610    -0.6041830
  H        1.5335600     0.9315010    -0.4047020
units angstrom
no_reorient  #important for SAPT in psi4, default
symmetry c1  #important for SAPT in psi4, default
}

set PROPERTIES_ORIGIN ["COM"]
properties('MP2/aug-cc-pvtz', properties = ['dipole'])
--------------------------------------------------------------------------

    Molecular point group: c1
  Charge       = -1
  Multiplicity = 1
  Basis Set: AUG-CC-PVTZ
    Blend: AUG-CC-PVTZ
  Basis Set: (AUG-CC-PVTZ AUX)
    Blend: AUG-CC-PVTZ-JKFIT

    Orbital Energies [Eh]
    ---------------------

    Doubly Occupied:

       1A    -91.661940     2A    -11.047072     3A     -8.661787
       4A     -6.343442     5A     -6.341673     6A     -6.341669
       7A     -0.780676     8A     -0.577919     9A     -0.370711
      10A     -0.369385    11A     -0.233089    12A     -0.083239
      13A     -0.082793

  @DF-RHF Final Energy:  -437.17581334629932

   => Energetics <=

    Nuclear Repulsion Energy =             47.6974262070628754
    One-Electron Energy =                -703.9556898556933220
    Two-Electron Energy =                 219.0824503023310399
    Total Energy =                       -437.1758133462993783
  Basis Set: (AUG-CC-PVTZ AUX)
    Blend: AUG-CC-PVTZ-RI
    Molecular point group: c1

    Geometry (in Angstrom), charge = -1, multiplicity = 1:

       Center              X                  Y                   Z               Mass
    ------------   -----------------  -----------------  -----------------  -----------------
         S           -0.610942792790    -0.001141087038     0.009999443618    31.972071174400
         C            1.218450007210     0.002489412962    -0.021755456382    12.000000000000
         H            1.612777507210    -0.113542187038     0.994169743618     1.007825032230
         H            1.630333007210    -0.813880587038    -0.625916456382     1.007825032230
         H            1.630460007210     0.933981412962    -0.426435456382     1.007825032230

  Basis Set: AUG-CC-PVTZ
    Blend: AUG-CC-PVTZ
  Basis Set: (AUG-CC-PVTZ AUX)
    Blend: AUG-CC-PVTZ-JKFIT
	 Reference Energy          =    -437.1758133462993214 [Eh]
	 Singles Energy            =      -0.0000000000000000 [Eh]
	 Same-Spin Energy          =      -0.0993665468484574 [Eh]
	 Opposite-Spin Energy      =      -0.3344448372266347 [Eh]
	 Correlation Energy        =      -0.4338113840750921 [Eh]
	 Total Energy              =    -437.6096247303744349 [Eh]

	 ================> DF-SCS-MP2 Energies <==================
	-----------------------------------------------------------
	 SCS Same-Spin Scale       =       0.3333333333333333 [-]
	 SCS Opposite-Spin Scale   =       1.2000000000000000 [-]
	 SCS Same-Spin Energy      =      -0.0331221822828191 [Eh]
	 SCS Opposite-Spin Energy  =      -0.4013338046719616 [Eh]
	 SCS Correlation Energy    =      -0.4344559869547807 [Eh]
	 SCS Total Energy          =    -437.6102693332541094 [Eh]
	-----------------------------------------------------------

  Dipole Moment: [D]
     X:     2.9244      Y:     0.0031      Z:    -0.0283     Total:     2.9246

*** Psi4 exiting successfully. Buy a developer a beer!
