                               Psi4 1.3.2 release

  ==> Input File <==

--------------------------------------------------------------------------
#psi4
#
memory 32 gb

molecule  {
-1 1
  S       -0.7081220     0.0000020     0.0000070
  C        1.1215500     0.0000090    -0.0000220
  H        1.5041067    -0.0686405     1.0246727
  H        1.5038670    -0.7961022    -0.6489894
  H        1.5335600     0.9315010    -0.4047020
units angstrom
no_reorient  #important for SAPT in psi4, default
symmetry c1  #important for SAPT in psi4, default
}

set PROPERTIES_ORIGIN ["COM"]
properties('MP2/aug-cc-pvtz', properties = ['dipole'])
--------------------------------------------------------------------------

    Molecular point group: c1
  Charge       = -1
  Multiplicity = 1
  Basis Set: AUG-CC-PVTZ
    Blend: AUG-CC-PVTZ
  Basis Set: (AUG-CC-PVTZ AUX)
    Blend: AUG-CC-PVTZ-JKFIT

    Orbital Energies [Eh]
    ---------------------

    Doubly Occupied:

       1A    -91.661330     2A    -11.047169     3A     -8.661234
       4A     -6.342888     5A     -6.341121     6A     -6.341120
       7A     -0.781060     8A     -0.576513     9A     -0.380700
      10A     -0.362737    11A     -0.231375    12A     -0.083002
      13A     -0.082180

  @DF-RHF Final Energy:  -437.17503725998972

   => Energetics <=

    Nuclear Repulsion Energy =             47.7363297408086780
    One-Electron Energy =                -704.0378735996017667
    Two-Electron Energy =                 219.1265065988033598
    Total Energy =                       -437.1750372599897787
  Basis Set: (AUG-CC-PVTZ AUX)
    Blend: AUG-CC-PVTZ-RI
    Molecular point group: c1

    Geometry (in Angstrom), charge = -1, multiplicity = 1:

       Center              X                  Y                   Z               Mass
    ------------   -----------------  -----------------  -----------------  -----------------
         S           -0.610145574531    -0.001433298349     0.000630164748    31.972071174400
         C            1.219526425469    -0.001426298349     0.000601164748    12.000000000000
         H            1.602083125469    -0.070075798349     1.025295864748     1.007825032230
         H            1.601843425469    -0.797537498349    -0.648366235252     1.007825032230
         H            1.631536425469     0.930065701651    -0.404078835252     1.007825032230

  Basis Set: AUG-CC-PVTZ
    Blend: AUG-CC-PVTZ
  Basis Set: (AUG-CC-PVTZ AUX)
    Blend: AUG-CC-PVTZ-JKFIT
	 Reference Energy          =    -437.1750372599897219 [Eh]
	 Singles Energy            =      -0.0000000000000000 [Eh]
	 Same-Spin Energy          =      -0.0994110255430862 [Eh]
	 Opposite-Spin Energy      =      -0.3345004013168545 [Eh]
	 Correlation Energy        =      -0.4339114268599408 [Eh]
	 Total Energy              =    -437.6089486868496579 [Eh]

	 ================> DF-SCS-MP2 Energies <==================
	-----------------------------------------------------------
	 SCS Same-Spin Scale       =       0.3333333333333333 [-]
	 SCS Opposite-Spin Scale   =       1.2000000000000000 [-]
	 SCS Same-Spin Energy      =      -0.0331370085143621 [Eh]
	 SCS Opposite-Spin Energy  =      -0.4014004815802255 [Eh]
	 SCS Correlation Energy    =      -0.4345374900945875 [Eh]
	 SCS Total Energy          =    -437.6095747500843345 [Eh]
	-----------------------------------------------------------

  Dipole Moment: [D]
     X:     2.9414      Y:     0.0129      Z:    -0.0057     Total:     2.9414

*** Psi4 exiting successfully. Buy a developer a beer!
