                               Psi4 1.3.2 release

  ==> Input File <==

--------------------------------------------------------------------------
#psi4
#
memory 32 gb

molecule  {
-1 1
  S       -0.7081220     0.0000020     0.0000070
  C        1.1215500     0.0000090    -0.0000220
  H        1.5288132    -0.1074786     1.0117312
  H        1.5285816    -0.8131385    -0.6117691
  H        1.5335600     0.9315010    -0.4047020
units angstrom
no_reorient  #important for SAPT in psi4, default
symmetry c1  #important for SAPT in psi4, default
}

set PROPERTIES_ORIGIN ["COM"]
properties('MP2/aug-cc-pvtz', properties = ['dipole'])
--------------------------------------------------------------------------

    Molecular point group: c1
  Charge       = -1
  Multiplicity = 1
  Basis Set: AUG-CC-PVTZ
    Blend: AUG-CC-PVTZ
  Basis Set: (AUG-CC-PVTZ AUX)
    Blend: AUG-CC-PVTZ-JKFIT

    Orbital Energies [Eh]
    ---------------------

    Doubly Occupied:

       1A    -91.662050     2A    -11.047077     3A     -8.661885
       4A     -6.343541     5A     -6.341770     6A     -6.341770
       7A     -0.780616     8A     -0.578218     9A     -0.371212
      10A     -0.368168    11A     -0.233442    12A     -0.083174
      13A     -0.083028

  @DF-RHF Final Energy:  -437.17588039622285

   => Energetics <=

    Nuclear Repulsion Energy =             47.6890167293108362
    One-Electron Energy =                -703.9378883249653427
    Two-Electron Energy =                 219.0729911994316126
    Total Energy =                       -437.1758803962228512
  Basis Set: (AUG-CC-PVTZ AUX)
    Blend: AUG-CC-PVTZ-RI
    Molecular point group: c1

    Geometry (in Angstrom), charge = -1, multiplicity = 1:

       Center              X                  Y                   Z               Mass
    ------------   -----------------  -----------------  -----------------  -----------------
         S           -0.611205415849    -0.000235065252     0.000109503019    31.972071174400
         C            1.218466584151    -0.000228065252     0.000080503019    12.000000000000
         H            1.625729784151    -0.107715665252     1.011833703019     1.007825032230
         H            1.625498184151    -0.813375565252    -0.611666596981     1.007825032230
         H            1.630476584151     0.931263934748    -0.404599496981     1.007825032230

  Basis Set: AUG-CC-PVTZ
    Blend: AUG-CC-PVTZ
  Basis Set: (AUG-CC-PVTZ AUX)
    Blend: AUG-CC-PVTZ-JKFIT
	 Reference Energy          =    -437.1758803962228512 [Eh]
	 Singles Energy            =      -0.0000000000000000 [Eh]
	 Same-Spin Energy          =      -0.0993621838455237 [Eh]
	 Opposite-Spin Energy      =      -0.3344374274759108 [Eh]
	 Correlation Energy        =      -0.4337996113214345 [Eh]
	 Total Energy              =    -437.6096800075442843 [Eh]

	 ================> DF-SCS-MP2 Energies <==================
	-----------------------------------------------------------
	 SCS Same-Spin Scale       =       0.3333333333333333 [-]
	 SCS Opposite-Spin Scale   =       1.2000000000000000 [-]
	 SCS Same-Spin Energy      =      -0.0331207279485079 [Eh]
	 SCS Opposite-Spin Energy  =      -0.4013249129710930 [Eh]
	 SCS Correlation Energy    =      -0.4344456409196009 [Eh]
	 SCS Total Energy          =    -437.6103260371424426 [Eh]
	-----------------------------------------------------------

  Dipole Moment: [D]
     X:     2.9212      Y:     0.0020      Z:    -0.0009     Total:     2.9212

*** Psi4 exiting successfully. Buy a developer a beer!
