                               Psi4 1.4a3.dev225

  ==> Input File <==

--------------------------------------------------------------------------
#psi4
#
memory 32 gb

molecule  {
-1 1
  S        0.7083620     0.0000000     0.0000000
  C       -1.0684100     0.0000000    -0.0000010
  H       -1.5411070     0.8896480    -0.4905500
  H       -1.5411080    -0.8696550    -0.5251800
  H       -1.5411220    -0.0199950     1.0157280
units angstrom
no_reorient  #important for SAPT in psi4, default
symmetry c1  #important for SAPT in psi4, default
}

set PROPERTIES_ORIGIN ["COM"]
properties('MP2/aug-cc-pvtz', properties = ['dipole'])
--------------------------------------------------------------------------

    Molecular point group: c1
  Charge       = -1
  Multiplicity = 1
  Basis Set: AUG-CC-PVTZ
    Blend: AUG-CC-PVTZ
  Basis Set: (AUG-CC-PVTZ AUX)
    Blend: AUG-CC-PVTZ-JKFIT

    Orbital Energies [Eh]
    ---------------------

    Doubly Occupied:

       1A    -91.661010     2A    -11.052815     3A     -8.661861
       4A     -6.343681     5A     -6.341764     6A     -6.341764
       7A     -0.783879     8A     -0.579811     9A     -0.357296
      10A     -0.357293    11A     -0.247607    12A     -0.083157
      13A     -0.083157

  @DF-RHF Final Energy:  -437.17247547915269

   => Energetics <=

    Nuclear Repulsion Energy =             48.2855575979728400
    One-Electron Energy =                -705.1258741163571813
    Two-Electron Energy =                 219.6678410392317460
    Total Energy =                       -437.1724754791526379
  Basis Set: (AUG-CC-PVTZ AUX)
    Blend: AUG-CC-PVTZ-RI
    Molecular point group: c1

    Geometry (in Angstrom), charge = -1, multiplicity = 1:

       Center              X                  Y                   Z               Mass
    ------------   -----------------  -----------------  -----------------  -----------------
         S            0.598407633465     0.000000042890     0.000000298234    31.972071174400
         C           -1.178364366535     0.000000042890    -0.000000701766    12.000000000000
         H           -1.651061366535     0.889648042890    -0.490549701766     1.007825032230
         H           -1.651062366535    -0.869654957110    -0.525179701766     1.007825032230
         H           -1.651076366535    -0.019994957110     1.015728298234     1.007825032230

  Basis Set: AUG-CC-PVTZ
    Blend: AUG-CC-PVTZ
  Basis Set: (AUG-CC-PVTZ AUX)
    Blend: AUG-CC-PVTZ-JKFIT
	 Reference Energy          =    -437.1724754791526948 [Eh]
	 Singles Energy            =      -0.0000000000000000 [Eh]
	 Same-Spin Energy          =      -0.0998456916164842 [Eh]
	 Opposite-Spin Energy      =      -0.3348332175751695 [Eh]
	 Correlation Energy        =      -0.4346789091916536 [Eh]
	 Total Energy              =    -437.6071543883443269 [Eh]

	 ================> DF-SCS-MP2 Energies <==================
	-----------------------------------------------------------
	 SCS Same-Spin Scale       =       0.3333333333333333 [-]
	 SCS Opposite-Spin Scale   =       1.2000000000000000 [-]
	 SCS Same-Spin Energy      =      -0.0332818972054947 [Eh]
	 SCS Opposite-Spin Energy  =      -0.4017998610902034 [Eh]
	 SCS Correlation Energy    =      -0.4350817582956981 [Eh]
	 SCS Total Energy          =    -437.6075572374484182 [Eh]
	-----------------------------------------------------------

  Dipole Moment: [D]
     X:    -2.7059      Y:     0.0000      Z:    -0.0000     Total:     2.7059

*** Psi4 exiting successfully. Buy a developer a beer!
