                               Psi4 1.4a3.dev225

  ==> Input File <==

--------------------------------------------------------------------------
#psi4
#
memory 32 gb

molecule  {
-1 1
  S        0.7083620     0.0000000     0.0000000
  C       -1.1184100     0.0000000    -0.0000010
  H       -1.5487899     0.9058182    -0.4994662
  H       -1.5411080    -0.8696550    -0.5251800
  H       -1.5411220    -0.0199950     1.0157280
units angstrom
no_reorient  #important for SAPT in psi4, default
symmetry c1  #important for SAPT in psi4, default
}

set PROPERTIES_ORIGIN ["COM"]
properties('MP2/aug-cc-pvtz', properties = ['dipole'])
--------------------------------------------------------------------------

    Molecular point group: c1
  Charge       = -1
  Multiplicity = 1
  Basis Set: AUG-CC-PVTZ
    Blend: AUG-CC-PVTZ
  Basis Set: (AUG-CC-PVTZ AUX)
    Blend: AUG-CC-PVTZ-JKFIT

    Orbital Energies [Eh]
    ---------------------

    Doubly Occupied:

       1A    -91.662853     2A    -11.051215     3A     -8.662698
       4A     -6.344362     5A     -6.342579     6A     -6.342577
       7A     -0.778375     8A     -0.578326     9A     -0.367380
      10A     -0.363160    11A     -0.235758    12A     -0.083739
      13A     -0.083594

  @DF-RHF Final Energy:  -437.17512450534025

   => Energetics <=

    Nuclear Repulsion Energy =             47.5815502334833127
    One-Electron Energy =                -703.7201174896672455
    Two-Electron Energy =                 218.9634427508436545
    Total Energy =                       -437.1751245053402499
  Basis Set: (AUG-CC-PVTZ AUX)
    Blend: AUG-CC-PVTZ-RI
    Molecular point group: c1

    Geometry (in Angstrom), charge = -1, multiplicity = 1:

       Center              X                  Y                   Z               Mass
    ------------   -----------------  -----------------  -----------------  -----------------
         S            0.611339561428    -0.000346728956     0.000191507194    31.972071174400
         C           -1.215432438572    -0.000346728956     0.000190507194    12.000000000000
         H           -1.645812338572     0.905471471044    -0.499274692806     1.007825032230
         H           -1.638130438572    -0.870001728956    -0.524988492806     1.007825032230
         H           -1.638144438572    -0.020341728956     1.015919507194     1.007825032230

  Basis Set: AUG-CC-PVTZ
    Blend: AUG-CC-PVTZ
  Basis Set: (AUG-CC-PVTZ AUX)
    Blend: AUG-CC-PVTZ-JKFIT
	 Reference Energy          =    -437.1751245053402499 [Eh]
	 Singles Energy            =      -0.0000000000000000 [Eh]
	 Same-Spin Energy          =      -0.0993745224369522 [Eh]
	 Opposite-Spin Energy      =      -0.3346091914606297 [Eh]
	 Correlation Energy        =      -0.4339837138975819 [Eh]
	 Total Energy              =    -437.6091082192378394 [Eh]

	 ================> DF-SCS-MP2 Energies <==================
	-----------------------------------------------------------
	 SCS Same-Spin Scale       =       0.3333333333333333 [-]
	 SCS Opposite-Spin Scale   =       1.2000000000000000 [-]
	 SCS Same-Spin Energy      =      -0.0331248408123174 [Eh]
	 SCS Opposite-Spin Energy  =      -0.4015310297527557 [Eh]
	 SCS Correlation Energy    =      -0.4346558705650730 [Eh]
	 SCS Total Energy          =    -437.6097803759053022 [Eh]
	-----------------------------------------------------------

  Dipole Moment: [D]
     X:    -2.8579      Y:    -0.0138      Z:     0.0076     Total:     2.8580

*** Psi4 exiting successfully. Buy a developer a beer!
