                               Psi4 1.3.2 release

  ==> Input File <==

--------------------------------------------------------------------------
#psi4
#
memory 32 gb

molecule  {
-1 1
  S       -0.7078438     0.0036255    -0.0317189
  C        1.1215500     0.0000090    -0.0000220
  H        1.5513230    -0.1143903     1.0016114
  H        1.5334330    -0.8163610    -0.6041830
  H        1.5335600     0.9315010    -0.4047020
units angstrom
no_reorient  #important for SAPT in psi4, default
symmetry c1  #important for SAPT in psi4, default
}

set PROPERTIES_ORIGIN ["COM"]
properties('MP2/aug-cc-pvtz', properties = ['dipole'])
--------------------------------------------------------------------------

    Molecular point group: c1
  Charge       = -1
  Multiplicity = 1
  Basis Set: AUG-CC-PVTZ
    Blend: AUG-CC-PVTZ
  Basis Set: (AUG-CC-PVTZ AUX)
    Blend: AUG-CC-PVTZ-JKFIT

    Orbital Energies [Eh]
    ---------------------

    Doubly Occupied:

       1A    -91.662486     2A    -11.047027     3A     -8.662284
       4A     -6.343940     5A     -6.342168     6A     -6.342163
       7A     -0.780474     8A     -0.579255     9A     -0.369170
      10A     -0.367717    11A     -0.234538    12A     -0.083570
      13A     -0.083184

  @DF-RHF Final Energy:  -437.17572341558491

   => Energetics <=

    Nuclear Repulsion Energy =             47.6648247762214794
    One-Electron Energy =                -703.8851463547347294
    Two-Electron Energy =                 219.0445981629283381
    Total Energy =                       -437.1757234155849119
  Basis Set: (AUG-CC-PVTZ AUX)
    Blend: AUG-CC-PVTZ-RI
    Molecular point group: c1

    Geometry (in Angstrom), charge = -1, multiplicity = 1:

       Center              X                  Y                   Z               Mass
    ------------   -----------------  -----------------  -----------------  -----------------
         S           -0.611703245396     0.001140619629    -0.009978255926    31.972071174400
         C            1.217690554604    -0.002475880371     0.021718644074    12.000000000000
         H            1.647463554604    -0.116875180371     1.023352044074     1.007825032230
         H            1.629573554604    -0.818845880371    -0.582442355926     1.007825032230
         H            1.629700554604     0.929016119629    -0.382961355926     1.007825032230

  Basis Set: AUG-CC-PVTZ
    Blend: AUG-CC-PVTZ
  Basis Set: (AUG-CC-PVTZ AUX)
    Blend: AUG-CC-PVTZ-JKFIT
	 Reference Energy          =    -437.1757234155849119 [Eh]
	 Singles Energy            =      -0.0000000000000000 [Eh]
	 Same-Spin Energy          =      -0.0993645393265999 [Eh]
	 Opposite-Spin Energy      =      -0.3344445411037438 [Eh]
	 Correlation Energy        =      -0.4338090804303437 [Eh]
	 Total Energy              =    -437.6095324960152766 [Eh]

	 ================> DF-SCS-MP2 Energies <==================
	-----------------------------------------------------------
	 SCS Same-Spin Scale       =       0.3333333333333333 [-]
	 SCS Opposite-Spin Scale   =       1.2000000000000000 [-]
	 SCS Same-Spin Energy      =      -0.0331215131088666 [Eh]
	 SCS Opposite-Spin Energy  =      -0.4013334493244925 [Eh]
	 SCS Correlation Energy    =      -0.4344549624333591 [Eh]
	 SCS Total Energy          =    -437.6101783780182473 [Eh]
	-----------------------------------------------------------

  Dipole Moment: [D]
     X:     2.9084      Y:    -0.0032      Z:     0.0272     Total:     2.9085

*** Psi4 exiting successfully. Buy a developer a beer!
