                               Psi4 1.3.2 release

  ==> Input File <==

--------------------------------------------------------------------------
#psi4
#
memory 32 gb

molecule  {
-1 1
  S       -0.7081220     0.0000020     0.0000070
  C        1.1215500     0.0000090    -0.0000220
  H        1.5336630    -0.1152240     1.0089110
  H        1.5334330    -0.8163610    -0.6041830
  H        1.5335600     0.9315010    -0.4047020
units angstrom
no_reorient  #important for SAPT in psi4, default
symmetry c1  #important for SAPT in psi4, default
}

set PROPERTIES_ORIGIN ["COM"]
properties('MP2/aug-cc-pvtz', properties = ['dipole'])
--------------------------------------------------------------------------

    Molecular point group: c1
  Charge       = -1
  Multiplicity = 1
  Basis Set: AUG-CC-PVTZ
    Blend: AUG-CC-PVTZ
  Basis Set: (AUG-CC-PVTZ AUX)
    Blend: AUG-CC-PVTZ-JKFIT

    Orbital Energies [Eh]
    ---------------------

    Doubly Occupied:

       1A    -91.662198     2A    -11.047064     3A     -8.662021
       4A     -6.343676     5A     -6.341904     6A     -6.341904
       7A     -0.780556     8A     -0.578580     9A     -0.369281
      10A     -0.369233    11A     -0.233840    12A     -0.083201
      13A     -0.083199

  @DF-RHF Final Energy:  -437.17588358621998

   => Energetics <=

    Nuclear Repulsion Energy =             47.6800459963986825
    One-Electron Energy =                -703.9185437135217853
    Two-Electron Energy =                 219.0626141309031141
    Total Energy =                       -437.1758835862199817
  Basis Set: (AUG-CC-PVTZ AUX)
    Blend: AUG-CC-PVTZ-RI
    Molecular point group: c1

    Geometry (in Angstrom), charge = -1, multiplicity = 1:

       Center              X                  Y                   Z               Mass
    ------------   -----------------  -----------------  -----------------  -----------------
         S           -0.611413459228     0.000000142657     0.000007297731    31.972071174400
         C            1.218258540772     0.000007142657    -0.000021702269    12.000000000000
         H            1.630371540772    -0.115225857343     1.008911297731     1.007825032230
         H            1.630141540772    -0.816362857343    -0.604182702269     1.007825032230
         H            1.630268540772     0.931499142657    -0.404701702269     1.007825032230

  Basis Set: AUG-CC-PVTZ
    Blend: AUG-CC-PVTZ
  Basis Set: (AUG-CC-PVTZ AUX)
    Blend: AUG-CC-PVTZ-JKFIT
	 Reference Energy          =    -437.1758835862199817 [Eh]
	 Singles Energy            =      -0.0000000000000000 [Eh]
	 Same-Spin Energy          =      -0.0993603315567575 [Eh]
	 Opposite-Spin Energy      =      -0.3344354928482799 [Eh]
	 Correlation Energy        =      -0.4337958244050375 [Eh]
	 Total Energy              =    -437.6096794106250059 [Eh]

	 ================> DF-SCS-MP2 Energies <==================
	-----------------------------------------------------------
	 SCS Same-Spin Scale       =       0.3333333333333333 [-]
	 SCS Opposite-Spin Scale   =       1.2000000000000000 [-]
	 SCS Same-Spin Energy      =      -0.0331201105189192 [Eh]
	 SCS Opposite-Spin Energy  =      -0.4013225914179359 [Eh]
	 SCS Correlation Energy    =      -0.4344427019368551 [Eh]
	 SCS Total Energy          =    -437.6103262881568412 [Eh]
	-----------------------------------------------------------

  Dipole Moment: [D]
     X:     2.9169      Y:    -0.0001      Z:    -0.0000     Total:     2.9169

*** Psi4 exiting successfully. Buy a developer a beer!
