                               Psi4 1.3.2 release

  ==> Input File <==

--------------------------------------------------------------------------
#psi4
#
memory 32 gb

molecule  {
-1 1
  S       -0.7081220     0.0000020     0.0000070
  C        1.1215500     0.0000090    -0.0000220
  H        1.4584551    -0.0941947     0.8247873
  H        1.5334330    -0.8163610    -0.6041830
  H        1.5335600     0.9315010    -0.4047020
units angstrom
no_reorient  #important for SAPT in psi4, default
symmetry c1  #important for SAPT in psi4, default
}

set PROPERTIES_ORIGIN ["COM"]
properties('MP2/aug-cc-pvtz', properties = ['dipole'])
--------------------------------------------------------------------------

    Molecular point group: c1
  Charge       = -1
  Multiplicity = 1
  Basis Set: AUG-CC-PVTZ
    Blend: AUG-CC-PVTZ
  Basis Set: (AUG-CC-PVTZ AUX)
    Blend: AUG-CC-PVTZ-JKFIT

    Orbital Energies [Eh]
    ---------------------

    Doubly Occupied:

       1A    -91.660490     2A    -11.020508     3A     -8.660299
       4A     -6.341955     5A     -6.340210     6A     -6.340208
       7A     -0.804510     8A     -0.589202     9A     -0.405885
      10A     -0.366623    11A     -0.232186    12A     -0.082875
      13A     -0.081593

  @DF-RHF Final Energy:  -437.14220219840729

   => Energetics <=

    Nuclear Repulsion Energy =             48.5942512113353473
    One-Electron Energy =                -705.6198202805618394
    Two-Electron Energy =                 219.8833668708192590
    Total Energy =                       -437.1422021984072899
  Basis Set: (AUG-CC-PVTZ AUX)
    Blend: AUG-CC-PVTZ-RI
    Molecular point group: c1

    Geometry (in Angstrom), charge = -1, multiplicity = 1:

       Center              X                  Y                   Z               Mass
    ------------   -----------------  -----------------  -----------------  -----------------
         S           -0.609800616942    -0.000450833161     0.003955852193    31.972071174400
         C            1.219871383058    -0.000443833161     0.003926852193    12.000000000000
         H            1.556776483058    -0.094647533161     0.828736152193     1.007825032230
         H            1.631754383058    -0.816813833161    -0.600234147807     1.007825032230
         H            1.631881383058     0.931048166839    -0.400753147807     1.007825032230

  Basis Set: AUG-CC-PVTZ
    Blend: AUG-CC-PVTZ
  Basis Set: (AUG-CC-PVTZ AUX)
    Blend: AUG-CC-PVTZ-JKFIT
	 Reference Energy          =    -437.1422021984072899 [Eh]
	 Singles Energy            =      -0.0000000000000000 [Eh]
	 Same-Spin Energy          =      -0.0995079627035202 [Eh]
	 Opposite-Spin Energy      =      -0.3339952453634982 [Eh]
	 Correlation Energy        =      -0.4335032080670184 [Eh]
	 Total Energy              =    -437.5757054064742988 [Eh]

	 ================> DF-SCS-MP2 Energies <==================
	-----------------------------------------------------------
	 SCS Same-Spin Scale       =       0.3333333333333333 [-]
	 SCS Opposite-Spin Scale   =       1.2000000000000000 [-]
	 SCS Same-Spin Energy      =      -0.0331693209011734 [Eh]
	 SCS Opposite-Spin Energy  =      -0.4007942944361979 [Eh]
	 SCS Correlation Energy    =      -0.4339636153373713 [Eh]
	 SCS Total Energy          =    -437.5761658137446375 [Eh]
	-----------------------------------------------------------

  Dipole Moment: [D]
     X:     3.0938      Y:    -0.0081      Z:     0.0706     Total:     3.0947

*** Psi4 exiting successfully. Buy a developer a beer!
