                               Psi4 1.4a2.dev612

  ==> Input File <==

--------------------------------------------------------------------------
#psi4
#
memory 32 gb

molecule  {
0 1
  O        3.0870850    -0.7380670     0.0000600
  N       -1.0742560    -1.1771330    -0.0000800
  C        0.9761220     0.0434820    -0.0000150
  C       -0.4881060     0.0430670    -0.0000040
  C        1.8814630     1.1555170    -0.0001020
  C       -1.2332690     1.2310260     0.0000830
  C        1.7670490    -1.0798270     0.0000780
  C       -2.6240280     1.1598410     0.0000810
  C        3.1400070     0.6275730    -0.0000460
  C       -3.2332050    -0.0939970     0.0000020
  C       -2.4150150    -1.2251180    -0.0000720
  H        1.6419750     2.2104320    -0.0002120
  H       -0.7317970     2.1947500     0.0001580
  H        1.5416230    -2.1350490     0.0001580
  H        4.1309210     1.0569201    -0.1000720
  H       -3.2210480     2.0687070     0.0001450
  H       -4.3145730    -0.1971740    -0.0000020
  H       -2.8500980    -2.2235110    -0.0001310
units angstrom
no_reorient  #important for SAPT in psi4, default
symmetry c1  #important for SAPT in psi4, default
}

set PROPERTIES_ORIGIN ["COM"]
properties('MP2/aug-cc-pvtz', properties = ['dipole'])
--------------------------------------------------------------------------

    Molecular point group: c1
  Charge       = 0
  Multiplicity = 1
  Basis Set: AUG-CC-PVTZ
    Blend: AUG-CC-PVTZ
  Basis Set: (AUG-CC-PVTZ AUX)
    Blend: AUG-CC-PVTZ-JKFIT

    Orbital Energies [Eh]
    ---------------------

    Doubly Occupied:

       1A    -20.628636     2A    -15.565737     3A    -11.293975
       4A    -11.293630     5A    -11.292332     6A    -11.279536
       7A    -11.263411     8A    -11.243445     9A    -11.241160
      10A    -11.239233    11A    -11.237402    12A     -1.458899
      13A     -1.258664    14A     -1.105632    15A     -1.088663
      16A     -1.033987    17A     -0.998087    18A     -0.875568
      19A     -0.863424    20A     -0.795960    21A     -0.777384
      22A     -0.744686    23A     -0.687190    24A     -0.662539
      25A     -0.646377    26A     -0.635986    27A     -0.606097
      28A     -0.585538    29A     -0.575404    30A     -0.571811
      31A     -0.548972    32A     -0.537990    33A     -0.520548
      34A     -0.424700    35A     -0.422043    36A     -0.383880
      37A     -0.348759    38A     -0.299078

  @DF-RHF Final Energy:  -474.33058956298498

   => Energetics <=

    Nuclear Repulsion Energy =            539.8615088255035062
    One-Electron Energy =               -1714.3114648008033782
    Two-Electron Energy =                 700.1193664123148892
    Total Energy =                       -474.3305895629849829
  Basis Set: (AUG-CC-PVTZ AUX)
    Blend: AUG-CC-PVTZ-RI
    Molecular point group: c1

    Geometry (in Angstrom), charge = 0, multiplicity = 1:

       Center              X                  Y                   Z               Mass
    ------------   -----------------  -----------------  -----------------  -----------------
         O            3.061203141172    -0.717718018542     0.000755186409    15.994914619570
         N           -1.100137858828    -1.156784018542     0.000615186409    14.003074004430
         C            0.950240141172     0.063830981458     0.000680186409    12.000000000000
         C           -0.513987858828     0.063415981458     0.000691186409    12.000000000000
         C            1.855581141172     1.175865981458     0.000593186409    12.000000000000
         C           -1.259150858828     1.251374981458     0.000778186409    12.000000000000
         C            1.741167141172    -1.059478018542     0.000773186409    12.000000000000
         C           -2.649909858828     1.180189981458     0.000776186409    12.000000000000
         C            3.114125141172     0.647921981458     0.000649186409    12.000000000000
         C           -3.259086858828    -0.073648018542     0.000697186409    12.000000000000
         C           -2.440896858828    -1.204769018542     0.000623186409    12.000000000000
         H            1.616093141172     2.230780981458     0.000483186409     1.007825032230
         H           -0.757678858828     2.215098981458     0.000853186409     1.007825032230
         H            1.515741141172    -2.114700018542     0.000853186409     1.007825032230
         H            4.105039141172     1.077269081458    -0.099376813591     1.007825032230
         H           -3.246929858828     2.089055981458     0.000840186409     1.007825032230
         H           -4.340454858828    -0.176825018542     0.000693186409     1.007825032230
         H           -2.875979858828    -2.203162018542     0.000564186409     1.007825032230

  Basis Set: AUG-CC-PVTZ
    Blend: AUG-CC-PVTZ
  Basis Set: (AUG-CC-PVTZ AUX)
    Blend: AUG-CC-PVTZ-JKFIT
	 Reference Energy          =    -474.3305895629849829 [Eh]
	 Singles Energy            =      -0.0000000000000000 [Eh]
	 Same-Spin Energy          =      -0.5142390504171189 [Eh]
	 Opposite-Spin Energy      =      -1.5570354190329454 [Eh]
	 Correlation Energy        =      -2.0712744694500644 [Eh]
	 Total Energy              =    -476.4018640324350713 [Eh]

	 ================> DF-SCS-MP2 Energies <==================
	-----------------------------------------------------------
	 SCS Same-Spin Scale       =       0.3333333333333333 [-]
	 SCS Opposite-Spin Scale   =       1.2000000000000000 [-]
	 SCS Same-Spin Energy      =      -0.1714130168057063 [Eh]
	 SCS Opposite-Spin Energy  =      -1.8684425028395344 [Eh]
	 SCS Correlation Energy    =      -2.0398555196452408 [Eh]
	 SCS Total Energy          =    -476.3704450826302264 [Eh]
	-----------------------------------------------------------

  Dipole Moment: [D]
     X:    -1.3550      Y:     2.0185      Z:    -0.0865     Total:     2.4326

*** Psi4 exiting successfully. Buy a developer a beer!
