                               Psi4 1.4a2.dev612

  ==> Input File <==

--------------------------------------------------------------------------
#psi4
#
memory 32 gb

molecule  {
0 1
  O        3.0870850    -0.7380670     0.0000600
  N       -1.0742560    -1.1771330    -0.0000800
  C        0.9761220     0.0434820    -0.0000150
  C       -0.4881060     0.0430670    -0.0000040
  C        1.8814630     1.1555170    -0.0001020
  C       -1.2332682     1.2310193     0.1000830
  C        1.7670490    -1.0798270     0.0000780
  C       -2.6240280     1.1598410     0.0000810
  C        3.1400070     0.6275730    -0.0000460
  C       -3.2332050    -0.0939970     0.0000020
  C       -2.4150150    -1.2251180    -0.0000720
  H        1.6419750     2.2104320    -0.0002120
  H       -0.7317970     2.1947500     0.0001580
  H        1.5416230    -2.1350490     0.0001580
  H        4.1309200     1.0569280    -0.0000720
  H       -3.2210480     2.0687070     0.0001450
  H       -4.3145730    -0.1971740    -0.0000020
  H       -2.8500980    -2.2235110    -0.0001310
units angstrom
no_reorient  #important for SAPT in psi4, default
symmetry c1  #important for SAPT in psi4, default
}

set PROPERTIES_ORIGIN ["COM"]
properties('MP2/aug-cc-pvtz', properties = ['dipole'])
--------------------------------------------------------------------------

    Molecular point group: c1
  Charge       = 0
  Multiplicity = 1
  Basis Set: AUG-CC-PVTZ
    Blend: AUG-CC-PVTZ
  Basis Set: (AUG-CC-PVTZ AUX)
    Blend: AUG-CC-PVTZ-JKFIT

    Orbital Energies [Eh]
    ---------------------

    Doubly Occupied:

       1A    -20.628782     2A    -15.565581     3A    -11.294080
       4A    -11.293391     5A    -11.293129     6A    -11.279967
       7A    -11.264114     8A    -11.244107     9A    -11.240965
      10A    -11.239228    11A    -11.237309    12A     -1.459021
      13A     -1.258578    14A     -1.105614    15A     -1.088094
      16A     -1.033777    17A     -0.998194    18A     -0.875192
      19A     -0.863159    20A     -0.796006    21A     -0.777676
      22A     -0.744881    23A     -0.686702    24A     -0.661718
      25A     -0.645660    26A     -0.635782    27A     -0.606880
      28A     -0.585362    29A     -0.575386    30A     -0.571731
      31A     -0.548433    32A     -0.538023    33A     -0.520016
      34A     -0.425736    35A     -0.420580    36A     -0.383633
      37A     -0.348682    38A     -0.299160

  @DF-RHF Final Energy:  -474.32819085412643

   => Energetics <=

    Nuclear Repulsion Energy =            539.7617137147515223
    One-Electron Energy =               -1714.1111515653492461
    Two-Electron Energy =                 700.0212469964712909
    Total Energy =                       -474.3281908541264329
  Basis Set: (AUG-CC-PVTZ AUX)
    Blend: AUG-CC-PVTZ-RI
    Molecular point group: c1

    Geometry (in Angstrom), charge = 0, multiplicity = 1:

       Center              X                  Y                   Z               Mass
    ------------   -----------------  -----------------  -----------------  -----------------
         O            3.061203081937    -0.717717519150    -0.008212464181    15.994914619570
         N           -1.100137918063    -1.156783519150    -0.008352464181    14.003074004430
         C            0.950240081937     0.063831480850    -0.008287464181    12.000000000000
         C           -0.513987918063     0.063416480850    -0.008276464181    12.000000000000
         C            1.855581081937     1.175866480850    -0.008374464181    12.000000000000
         C           -1.259150118063     1.251368780850     0.091810535819    12.000000000000
         C            1.741167081937    -1.059477519150    -0.008194464181    12.000000000000
         C           -2.649909918063     1.180190480850    -0.008191464181    12.000000000000
         C            3.114125081937     0.647922480850    -0.008318464181    12.000000000000
         C           -3.259086918063    -0.073647519150    -0.008270464181    12.000000000000
         C           -2.440896918063    -1.204768519150    -0.008344464181    12.000000000000
         H            1.616093081937     2.230781480850    -0.008484464181     1.007825032230
         H           -0.757678918063     2.215099480850    -0.008114464181     1.007825032230
         H            1.515741081937    -2.114699519150    -0.008114464181     1.007825032230
         H            4.105038081937     1.077277480850    -0.008344464181     1.007825032230
         H           -3.246929918063     2.089056480850    -0.008127464181     1.007825032230
         H           -4.340454918063    -0.176824519150    -0.008274464181     1.007825032230
         H           -2.875979918063    -2.203161519150    -0.008403464181     1.007825032230

  Basis Set: AUG-CC-PVTZ
    Blend: AUG-CC-PVTZ
  Basis Set: (AUG-CC-PVTZ AUX)
    Blend: AUG-CC-PVTZ-JKFIT
	 Reference Energy          =    -474.3281908541264329 [Eh]
	 Singles Energy            =      -0.0000000000000000 [Eh]
	 Same-Spin Energy          =      -0.5142878538774935 [Eh]
	 Opposite-Spin Energy      =      -1.5570447346090344 [Eh]
	 Correlation Energy        =      -2.0713325884865279 [Eh]
	 Total Energy              =    -476.3995234426129741 [Eh]

	 ================> DF-SCS-MP2 Energies <==================
	-----------------------------------------------------------
	 SCS Same-Spin Scale       =       0.3333333333333333 [-]
	 SCS Opposite-Spin Scale   =       1.2000000000000000 [-]
	 SCS Same-Spin Energy      =      -0.1714292846258312 [Eh]
	 SCS Opposite-Spin Energy  =      -1.8684536815308412 [Eh]
	 SCS Correlation Energy    =      -2.0398829661566724 [Eh]
	 SCS Total Energy          =    -476.3680738202830867 [Eh]
	-----------------------------------------------------------

  Dipole Moment: [D]
     X:    -1.3423      Y:     2.0035      Z:    -0.0310     Total:     2.4118

*** Psi4 exiting successfully. Buy a developer a beer!
