                               Psi4 1.4a2.dev612

  ==> Input File <==

--------------------------------------------------------------------------
#psi4
#
memory 32 gb

molecule  {
0 1
  O        3.0870850    -0.7380670     0.0000600
  N       -1.0742560    -1.1771330    -0.0000800
  C        0.9761220     0.0434820    -0.0000150
  C       -0.4881060     0.0430670    -0.0000040
  C        1.8814630     1.1555170    -0.0001020
  C       -1.2332690     1.2310260     0.0000830
  C        1.7670490    -1.0798270     0.0000780
  C       -2.6240280     1.1598410     0.0000810
  C        3.1400070     0.6275730    -0.0000460
  C       -3.2332050    -0.0939970     0.0000020
  C       -2.4150150    -1.2251180    -0.0000720
  H        1.6419750     2.2104320    -0.0002120
  H       -0.7317970     2.1947500     0.0001580
  H        1.5416216    -2.1350335     0.2001580
  H        4.1309200     1.0569280    -0.0000720
  H       -3.2210480     2.0687070     0.0001450
  H       -4.3145730    -0.1971740    -0.0000020
  H       -2.8500980    -2.2235110    -0.0001310
units angstrom
no_reorient  #important for SAPT in psi4, default
symmetry c1  #important for SAPT in psi4, default
}

set PROPERTIES_ORIGIN ["COM"]
properties('MP2/aug-cc-pvtz', properties = ['dipole'])
--------------------------------------------------------------------------

    Molecular point group: c1
  Charge       = 0
  Multiplicity = 1
  Basis Set: AUG-CC-PVTZ
    Blend: AUG-CC-PVTZ
  Basis Set: (AUG-CC-PVTZ AUX)
    Blend: AUG-CC-PVTZ-JKFIT

    Orbital Energies [Eh]
    ---------------------

    Doubly Occupied:

       1A    -20.628442     2A    -15.565763     3A    -11.294817
       4A    -11.293815     5A    -11.292345     6A    -11.279529
       7A    -11.263446     8A    -11.243584     9A    -11.241278
      10A    -11.239583    11A    -11.237472    12A     -1.458795
      13A     -1.258687    14A     -1.105729    15A     -1.088723
      16A     -1.034034    17A     -0.997597    18A     -0.875468
      19A     -0.863499    20A     -0.796103    21A     -0.776012
      22A     -0.743625    23A     -0.687170    24A     -0.662585
      25A     -0.646436    26A     -0.636568    27A     -0.603948
      28A     -0.585265    29A     -0.574594    30A     -0.571827
      31A     -0.548991    32A     -0.537239    33A     -0.520664
      34A     -0.424725    35A     -0.421925    36A     -0.383888
      37A     -0.348806    38A     -0.299110

  @DF-RHF Final Energy:  -474.32877828397943

   => Energetics <=

    Nuclear Repulsion Energy =            539.8026084408217002
    One-Electron Energy =               -1714.1986048397611739
    Two-Electron Energy =                 700.0672181149601556
    Total Energy =                       -474.3287782839794318
  Basis Set: (AUG-CC-PVTZ AUX)
    Blend: AUG-CC-PVTZ-RI
    Molecular point group: c1

    Geometry (in Angstrom), charge = 0, multiplicity = 1:

       Center              X                  Y                   Z               Mass
    ------------   -----------------  -----------------  -----------------  -----------------
         O            3.061203157847    -0.717718181125    -0.001329210342    15.994914619570
         N           -1.100137842153    -1.156784181125    -0.001469210342    14.003074004430
         C            0.950240157847     0.063830818875    -0.001404210342    12.000000000000
         C           -0.513987842153     0.063415818875    -0.001393210342    12.000000000000
         C            1.855581157847     1.175865818875    -0.001491210342    12.000000000000
         C           -1.259150842153     1.251374818875    -0.001306210342    12.000000000000
         C            1.741167157847    -1.059478181125    -0.001311210342    12.000000000000
         C           -2.649909842153     1.180189818875    -0.001308210342    12.000000000000
         C            3.114125157847     0.647921818875    -0.001435210342    12.000000000000
         C           -3.259086842153    -0.073648181125    -0.001387210342    12.000000000000
         C           -2.440896842153    -1.204769181125    -0.001461210342    12.000000000000
         H            1.616093157847     2.230780818875    -0.001601210342     1.007825032230
         H           -0.757678842153     2.215098818875    -0.001231210342     1.007825032230
         H            1.515739757847    -2.114684681125     0.198768789658     1.007825032230
         H            4.105038157847     1.077276818875    -0.001461210342     1.007825032230
         H           -3.246929842153     2.089055818875    -0.001244210342     1.007825032230
         H           -4.340454842153    -0.176825181125    -0.001391210342     1.007825032230
         H           -2.875979842153    -2.203162181125    -0.001520210342     1.007825032230

  Basis Set: AUG-CC-PVTZ
    Blend: AUG-CC-PVTZ
  Basis Set: (AUG-CC-PVTZ AUX)
    Blend: AUG-CC-PVTZ-JKFIT
	 Reference Energy          =    -474.3287782839794318 [Eh]
	 Singles Energy            =      -0.0000000000000000 [Eh]
	 Same-Spin Energy          =      -0.5143940479035779 [Eh]
	 Opposite-Spin Energy      =      -1.5573421026241263 [Eh]
	 Correlation Energy        =      -2.0717361505277041 [Eh]
	 Total Energy              =    -476.4005144345071585 [Eh]

	 ================> DF-SCS-MP2 Energies <==================
	-----------------------------------------------------------
	 SCS Same-Spin Scale       =       0.3333333333333333 [-]
	 SCS Opposite-Spin Scale   =       1.2000000000000000 [-]
	 SCS Same-Spin Energy      =      -0.1714646826345260 [Eh]
	 SCS Opposite-Spin Energy  =      -1.8688105231489516 [Eh]
	 SCS Correlation Energy    =      -2.0402752057834777 [Eh]
	 SCS Total Energy          =    -476.3690534897629050 [Eh]
	-----------------------------------------------------------

  Dipole Moment: [D]
     X:    -1.3481      Y:     2.0519      Z:     0.1664     Total:     2.4608

*** Psi4 exiting successfully. Buy a developer a beer!
