                               Psi4 1.4a2.dev612

  ==> Input File <==

--------------------------------------------------------------------------
#psi4
#
memory 32 gb

molecule  {
0 1
  O        3.0870850    -0.7380670     0.0000600
  N       -1.0742560    -1.1771330    -0.0000800
  C        0.9761220     0.0434820    -0.0000150
  C       -0.4881060     0.0430670    -0.0000040
  C        1.8814630     1.1555170    -0.0001020
  C       -1.2332690     1.2310260     0.0000830
  C        1.7670490    -1.0798270     0.0000780
  C       -2.6240280     1.1598410     0.0000810
  C        3.1400070     0.6275730    -0.0000460
  C       -3.2332050    -0.0939970     0.0000020
  C       -2.4150150    -1.2251180    -0.0000720
  H        1.6419750     2.2104320    -0.0002120
  H       -0.7317971     2.1947650    -0.1998420
  H        1.5416230    -2.1350490     0.0001580
  H        4.1309200     1.0569280    -0.0000720
  H       -3.2210480     2.0687070     0.0001450
  H       -4.3145730    -0.1971740    -0.0000020
  H       -2.8500980    -2.2235110    -0.0001310
units angstrom
no_reorient  #important for SAPT in psi4, default
symmetry c1  #important for SAPT in psi4, default
}

set PROPERTIES_ORIGIN ["COM"]
properties('MP2/aug-cc-pvtz', properties = ['dipole'])
--------------------------------------------------------------------------

    Molecular point group: c1
  Charge       = 0
  Multiplicity = 1
  Basis Set: AUG-CC-PVTZ
    Blend: AUG-CC-PVTZ
  Basis Set: (AUG-CC-PVTZ AUX)
    Blend: AUG-CC-PVTZ-JKFIT

    Orbital Energies [Eh]
    ---------------------

    Doubly Occupied:

       1A    -20.628673     2A    -15.565835     3A    -11.293952
       4A    -11.293263     5A    -11.292621     6A    -11.279888
       7A    -11.263645     8A    -11.244860     9A    -11.241229
      10A    -11.239144    11A    -11.237151    12A     -1.458911
      13A     -1.258830    14A     -1.105559    15A     -1.088501
      16A     -1.033832    17A     -0.998146    18A     -0.875580
      19A     -0.862670    20A     -0.795903    21A     -0.777707
      22A     -0.744812    23A     -0.686089    24A     -0.662645
      25A     -0.644426    26A     -0.635658    27A     -0.606670
      28A     -0.585172    29A     -0.575317    30A     -0.571786
      31A     -0.549086    32A     -0.537904    33A     -0.519337
      34A     -0.424699    35A     -0.422188    36A     -0.383514
      37A     -0.348647    38A     -0.299071

  @DF-RHF Final Energy:  -474.32861400335094

   => Energetics <=

    Nuclear Repulsion Energy =            539.8036459778128346
    One-Electron Energy =               -1714.1986793092498829
    Two-Electron Energy =                 700.0664193280859990
    Total Energy =                       -474.3286140033509355
  Basis Set: (AUG-CC-PVTZ AUX)
    Blend: AUG-CC-PVTZ-RI
    Molecular point group: c1

    Geometry (in Angstrom), charge = 0, multiplicity = 1:

       Center              X                  Y                   Z               Mass
    ------------   -----------------  -----------------  -----------------  -----------------
         O            3.061203148815    -0.717718177651     0.001449985326    15.994914619570
         N           -1.100137851185    -1.156784177651     0.001309985326    14.003074004430
         C            0.950240148815     0.063830822349     0.001374985326    12.000000000000
         C           -0.513987851185     0.063415822349     0.001385985326    12.000000000000
         C            1.855581148815     1.175865822349     0.001287985326    12.000000000000
         C           -1.259150851185     1.251374822349     0.001472985326    12.000000000000
         C            1.741167148815    -1.059478177651     0.001467985326    12.000000000000
         C           -2.649909851185     1.180189822349     0.001470985326    12.000000000000
         C            3.114125148815     0.647921822349     0.001343985326    12.000000000000
         C           -3.259086851185    -0.073648177651     0.001391985326    12.000000000000
         C           -2.440896851185    -1.204769177651     0.001317985326    12.000000000000
         H            1.616093148815     2.230780822349     0.001177985326     1.007825032230
         H           -0.757678951185     2.215113822349    -0.198452014674     1.007825032230
         H            1.515741148815    -2.114700177651     0.001547985326     1.007825032230
         H            4.105038148815     1.077276822349     0.001317985326     1.007825032230
         H           -3.246929851185     2.089055822349     0.001534985326     1.007825032230
         H           -4.340454851185    -0.176825177651     0.001387985326     1.007825032230
         H           -2.875979851185    -2.203162177651     0.001258985326     1.007825032230

  Basis Set: AUG-CC-PVTZ
    Blend: AUG-CC-PVTZ
  Basis Set: (AUG-CC-PVTZ AUX)
    Blend: AUG-CC-PVTZ-JKFIT
	 Reference Energy          =    -474.3286140033509355 [Eh]
	 Singles Energy            =      -0.0000000000000000 [Eh]
	 Same-Spin Energy          =      -0.5143114398217633 [Eh]
	 Opposite-Spin Energy      =      -1.5570733817361404 [Eh]
	 Correlation Energy        =      -2.0713848215579036 [Eh]
	 Total Energy              =    -476.3999988249088346 [Eh]

	 ================> DF-SCS-MP2 Energies <==================
	-----------------------------------------------------------
	 SCS Same-Spin Scale       =       0.3333333333333333 [-]
	 SCS Opposite-Spin Scale   =       1.2000000000000000 [-]
	 SCS Same-Spin Energy      =      -0.1714371466072544 [Eh]
	 SCS Opposite-Spin Energy  =      -1.8684880580833685 [Eh]
	 SCS Correlation Energy    =      -2.0399252046906229 [Eh]
	 SCS Total Energy          =    -476.3685392080415681 [Eh]
	-----------------------------------------------------------

  Dipole Moment: [D]
     X:    -1.3541      Y:     1.9971      Z:    -0.1130     Total:     2.4155

*** Psi4 exiting successfully. Buy a developer a beer!
