                               Psi4 1.4a2.dev612

  ==> Input File <==

--------------------------------------------------------------------------
#psi4
#
memory 32 gb

molecule  {
0 1
  O        3.0870850    -0.7380670     0.0000600
  N       -1.0742560    -1.1771330    -0.0000800
  C        0.9761220     0.0434820    -0.0000150
  C       -0.4881060     0.0430670    -0.0000040
  C        1.8814630     1.1555170    -0.0001020
  C       -1.2332690     1.2310260     0.0000830
  C        1.7670490    -1.0798270     0.0000780
  C       -2.6240280     1.1598410     0.0000810
  C        3.1400070     0.6275730    -0.0000460
  C       -3.2332050    -0.0939970     0.0000020
  C       -2.4150150    -1.2251180    -0.0000720
  H        1.6419744     2.2104367     0.0497880
  H       -0.7317970     2.1947500     0.0001580
  H        1.5416230    -2.1350490     0.0001580
  H        4.1309200     1.0569280    -0.0000720
  H       -3.2210480     2.0687070     0.0001450
  H       -4.3145730    -0.1971740    -0.0000020
  H       -2.8500980    -2.2235110    -0.0001310
units angstrom
no_reorient  #important for SAPT in psi4, default
symmetry c1  #important for SAPT in psi4, default
}

set PROPERTIES_ORIGIN ["COM"]
properties('MP2/aug-cc-pvtz', properties = ['dipole'])
--------------------------------------------------------------------------

    Molecular point group: c1
  Charge       = 0
  Multiplicity = 1
  Basis Set: AUG-CC-PVTZ
    Blend: AUG-CC-PVTZ
  Basis Set: (AUG-CC-PVTZ AUX)
    Blend: AUG-CC-PVTZ-JKFIT

    Orbital Energies [Eh]
    ---------------------

    Doubly Occupied:

       1A    -20.628679     2A    -15.565692     3A    -11.293836
       4A    -11.293401     5A    -11.292281     6A    -11.279494
       7A    -11.263367     8A    -11.243396     9A    -11.241121
      10A    -11.239168    11A    -11.237354    12A     -1.458917
      13A     -1.258617    14A     -1.105551    15A     -1.088618
      16A     -1.033975    17A     -0.998222    18A     -0.875546
      19A     -0.863409    20A     -0.795946    21A     -0.777674
      22A     -0.744908    23A     -0.687225    24A     -0.662499
      25A     -0.646324    26A     -0.635714    27A     -0.606974
      28A     -0.585653    29A     -0.575225    30A     -0.571774
      31A     -0.548925    32A     -0.538101    33A     -0.520537
      34A     -0.424640    35A     -0.421994    36A     -0.383837
      37A     -0.348748    38A     -0.299036

  @DF-RHF Final Energy:  -474.33098507990155

   => Energetics <=

    Nuclear Repulsion Energy =            539.8747554581676695
    One-Electron Energy =               -1714.3387167120883987
    Two-Electron Energy =                 700.1329761740192907
    Total Energy =                       -474.3309850799015521
  Basis Set: (AUG-CC-PVTZ AUX)
    Blend: AUG-CC-PVTZ-RI
    Molecular point group: c1

    Geometry (in Angstrom), charge = 0, multiplicity = 1:

       Center              X                  Y                   Z               Mass
    ------------   -----------------  -----------------  -----------------  -----------------
         O            3.061203152289    -0.717718106086    -0.000287011967    15.994914619570
         N           -1.100137847711    -1.156784106086    -0.000427011967    14.003074004430
         C            0.950240152289     0.063830893914    -0.000362011967    12.000000000000
         C           -0.513987847711     0.063415893914    -0.000351011967    12.000000000000
         C            1.855581152289     1.175865893914    -0.000449011967    12.000000000000
         C           -1.259150847711     1.251374893914    -0.000264011967    12.000000000000
         C            1.741167152289    -1.059478106086    -0.000269011967    12.000000000000
         C           -2.649909847711     1.180189893914    -0.000266011967    12.000000000000
         C            3.114125152289     0.647921893914    -0.000393011967    12.000000000000
         C           -3.259086847711    -0.073648106086    -0.000345011967    12.000000000000
         C           -2.440896847711    -1.204769106086    -0.000419011967    12.000000000000
         H            1.616092552289     2.230785593914     0.049440988033     1.007825032230
         H           -0.757678847711     2.215098893914    -0.000189011967     1.007825032230
         H            1.515741152289    -2.114700106086    -0.000189011967     1.007825032230
         H            4.105038152289     1.077276893914    -0.000419011967     1.007825032230
         H           -3.246929847711     2.089055893914    -0.000202011967     1.007825032230
         H           -4.340454847711    -0.176825106086    -0.000349011967     1.007825032230
         H           -2.875979847711    -2.203162106086    -0.000478011967     1.007825032230

  Basis Set: AUG-CC-PVTZ
    Blend: AUG-CC-PVTZ
  Basis Set: (AUG-CC-PVTZ AUX)
    Blend: AUG-CC-PVTZ-JKFIT
	 Reference Energy          =    -474.3309850799015521 [Eh]
	 Singles Energy            =      -0.0000000000000000 [Eh]
	 Same-Spin Energy          =      -0.5142094336497920 [Eh]
	 Opposite-Spin Energy      =      -1.5569615750865164 [Eh]
	 Correlation Energy        =      -2.0711710087363082 [Eh]
	 Total Energy              =    -476.4021560886378666 [Eh]

	 ================> DF-SCS-MP2 Energies <==================
	-----------------------------------------------------------
	 SCS Same-Spin Scale       =       0.3333333333333333 [-]
	 SCS Opposite-Spin Scale   =       1.2000000000000000 [-]
	 SCS Same-Spin Energy      =      -0.1714031445499307 [Eh]
	 SCS Opposite-Spin Energy  =      -1.8683538901038197 [Eh]
	 SCS Correlation Energy    =      -2.0397570346537504 [Eh]
	 SCS Total Energy          =    -476.3707421145552985 [Eh]
	-----------------------------------------------------------

  Dipole Moment: [D]
     X:    -1.3433      Y:     2.0202      Z:     0.0380     Total:     2.4263

*** Psi4 exiting successfully. Buy a developer a beer!
