                               Psi4 1.4a2.dev612

  ==> Input File <==

--------------------------------------------------------------------------
#psi4
#
memory 32 gb

molecule  {
0 1
  O        3.0870850    -0.7380670     0.0000600
  N       -1.0742560    -1.1771330    -0.0000800
  C        0.9761220     0.0434820    -0.0000150
  C       -0.4881060     0.0430670    -0.0000040
  C        1.8814630     1.1555170    -0.0001020
  C       -1.2332690     1.2310260     0.0000830
  C        1.7670490    -1.0798270     0.0000780
  C       -2.6240280     1.1598410     0.0000810
  C        3.1400070     0.6275730    -0.0000460
  C       -3.2332050    -0.0939970     0.0000020
  C       -2.4150150    -1.2251180    -0.0000720
  H        1.6419750     2.2104320    -0.0002120
  H       -0.7317970     2.1947500     0.0001580
  H        1.5416213    -2.1350296     0.2501580
  H        4.1309200     1.0569280    -0.0000720
  H       -3.2210480     2.0687070     0.0001450
  H       -4.3145730    -0.1971740    -0.0000020
  H       -2.8500980    -2.2235110    -0.0001310
units angstrom
no_reorient  #important for SAPT in psi4, default
symmetry c1  #important for SAPT in psi4, default
}

set PROPERTIES_ORIGIN ["COM"]
properties('MP2/aug-cc-pvtz', properties = ['dipole'])
--------------------------------------------------------------------------

    Molecular point group: c1
  Charge       = 0
  Multiplicity = 1
  Basis Set: AUG-CC-PVTZ
    Blend: AUG-CC-PVTZ
  Basis Set: (AUG-CC-PVTZ AUX)
    Blend: AUG-CC-PVTZ-JKFIT

    Orbital Energies [Eh]
    ---------------------

    Doubly Occupied:

       1A    -20.628334     2A    -15.565800     3A    -11.295364
       4A    -11.294072     5A    -11.292377     6A    -11.279546
       7A    -11.263486     8A    -11.243683     9A    -11.241362
      10A    -11.239821    11A    -11.237584    12A     -1.458747
      13A     -1.258724    14A     -1.105825    15A     -1.088778
      16A     -1.034066    17A     -0.997274    18A     -0.875431
      19A     -0.863543    20A     -0.796133    21A     -0.775201
      22A     -0.742868    23A     -0.687136    24A     -0.662620
      25A     -0.646484    26A     -0.636961    27A     -0.602515
      28A     -0.585041    29A     -0.574162    30A     -0.571725
      31A     -0.549023    32A     -0.536703    33A     -0.520727
      34A     -0.424764    35A     -0.421882    36A     -0.383911
      37A     -0.348839    38A     -0.299157

  @DF-RHF Final Energy:  -474.32732489171849

   => Energetics <=

    Nuclear Repulsion Energy =            539.7605928658138055
    One-Electron Energy =               -1714.1164946952872015
    Two-Electron Energy =                 700.0285769377549059
    Total Energy =                       -474.3273248917184901
  Basis Set: (AUG-CC-PVTZ AUX)
    Blend: AUG-CC-PVTZ-RI
    Molecular point group: c1

    Geometry (in Angstrom), charge = 0, multiplicity = 1:

       Center              X                  Y                   Z               Mass
    ------------   -----------------  -----------------  -----------------  -----------------
         O            3.061203159932    -0.717718208222    -0.001676609801    15.994914619570
         N           -1.100137840068    -1.156784208222    -0.001816609801    14.003074004430
         C            0.950240159932     0.063830791778    -0.001751609801    12.000000000000
         C           -0.513987840068     0.063415791778    -0.001740609801    12.000000000000
         C            1.855581159932     1.175865791778    -0.001838609801    12.000000000000
         C           -1.259150840068     1.251374791778    -0.001653609801    12.000000000000
         C            1.741167159932    -1.059478208222    -0.001658609801    12.000000000000
         C           -2.649909840068     1.180189791778    -0.001655609801    12.000000000000
         C            3.114125159932     0.647921791778    -0.001782609801    12.000000000000
         C           -3.259086840068    -0.073648208222    -0.001734609801    12.000000000000
         C           -2.440896840068    -1.204769208222    -0.001808609801    12.000000000000
         H            1.616093159932     2.230780791778    -0.001948609801     1.007825032230
         H           -0.757678840068     2.215098791778    -0.001578609801     1.007825032230
         H            1.515739459932    -2.114680808222     0.248421390199     1.007825032230
         H            4.105038159932     1.077276791778    -0.001808609801     1.007825032230
         H           -3.246929840068     2.089055791778    -0.001591609801     1.007825032230
         H           -4.340454840068    -0.176825208222    -0.001738609801     1.007825032230
         H           -2.875979840068    -2.203162208222    -0.001867609801     1.007825032230

  Basis Set: AUG-CC-PVTZ
    Blend: AUG-CC-PVTZ
  Basis Set: (AUG-CC-PVTZ AUX)
    Blend: AUG-CC-PVTZ-JKFIT
	 Reference Energy          =    -474.3273248917184901 [Eh]
	 Singles Energy            =      -0.0000000000000000 [Eh]
	 Same-Spin Energy          =      -0.5145000404937405 [Eh]
	 Opposite-Spin Energy      =      -1.5575715095926645 [Eh]
	 Correlation Energy        =      -2.0720715500864051 [Eh]
	 Total Energy              =    -476.3993964418048677 [Eh]

	 ================> DF-SCS-MP2 Energies <==================
	-----------------------------------------------------------
	 SCS Same-Spin Scale       =       0.3333333333333333 [-]
	 SCS Opposite-Spin Scale   =       1.2000000000000000 [-]
	 SCS Same-Spin Energy      =      -0.1715000134979135 [Eh]
	 SCS Opposite-Spin Energy  =      -1.8690858115111975 [Eh]
	 SCS Correlation Energy    =      -2.0405858250091109 [Eh]
	 SCS Total Energy          =    -476.3679107167275788 [Eh]
	-----------------------------------------------------------

  Dipole Moment: [D]
     X:    -1.3502      Y:     2.0684      Z:     0.2069     Total:     2.4787

*** Psi4 exiting successfully. Buy a developer a beer!
