                               Psi4 1.4a2.dev612

  ==> Input File <==

--------------------------------------------------------------------------
#psi4
#
memory 32 gb

molecule  {
0 1
  O        3.0870850    -0.7380670     0.0000600
  N       -1.0742560    -1.1771330    -0.0000800
  C        0.9761220     0.0434820    -0.0000150
  C       -0.4881060     0.0430670    -0.0000040
  C        1.8814630     1.1555170    -0.0001020
  C       -1.2332690     1.2310260     0.0000830
  C        1.7670490    -1.0798270     0.0000780
  C       -2.6240280     1.1598410     0.0000810
  C        3.1400070     0.6275730    -0.0000460
  C       -3.2332050    -0.0939970     0.0000020
  C       -2.4150150    -1.2251180    -0.0000720
  H        1.6419750     2.2104320    -0.0002120
  H       -0.7317970     2.1947500     0.0001580
  H        1.5416230    -2.1350490     0.0001580
  H        4.1309200     1.0569280    -0.0000720
  H       -3.2210480     2.0687070     0.0001450
  H       -4.3145733    -0.1971644    -0.1500020
  H       -2.8500980    -2.2235110    -0.0001310
units angstrom
no_reorient  #important for SAPT in psi4, default
symmetry c1  #important for SAPT in psi4, default
}

set PROPERTIES_ORIGIN ["COM"]
properties('MP2/aug-cc-pvtz', properties = ['dipole'])
--------------------------------------------------------------------------

    Molecular point group: c1
  Charge       = 0
  Multiplicity = 1
  Basis Set: AUG-CC-PVTZ
    Blend: AUG-CC-PVTZ
  Basis Set: (AUG-CC-PVTZ AUX)
    Blend: AUG-CC-PVTZ-JKFIT

    Orbital Energies [Eh]
    ---------------------

    Doubly Occupied:

       1A    -20.628775     2A    -15.565767     3A    -11.293989
       4A    -11.293448     5A    -11.292514     6A    -11.279676
       7A    -11.263516     8A    -11.243462     9A    -11.241944
      10A    -11.239276    11A    -11.237372    12A     -1.459012
      13A     -1.258744    14A     -1.105645    15A     -1.088599
      16A     -1.033963    17A     -0.998215    18A     -0.875233
      19A     -0.863440    20A     -0.796099    21A     -0.777764
      22A     -0.745054    23A     -0.686018    24A     -0.662362
      25A     -0.646015    26A     -0.635795    27A     -0.607067
      28A     -0.585114    29A     -0.575395    30A     -0.571968
      31A     -0.549034    32A     -0.538148    33A     -0.519841
      34A     -0.425152    35A     -0.421450    36A     -0.383872
      37A     -0.348767    38A     -0.299099

  @DF-RHF Final Energy:  -474.32972975533443

   => Energetics <=

    Nuclear Repulsion Energy =            539.8406697938567049
    One-Electron Energy =               -1714.2675901918241834
    Two-Electron Energy =                 700.0971906426331088
    Total Energy =                       -474.3297297553343697
  Basis Set: (AUG-CC-PVTZ AUX)
    Blend: AUG-CC-PVTZ-RI
    Molecular point group: c1

    Geometry (in Angstrom), charge = 0, multiplicity = 1:

       Center              X                  Y                   Z               Mass
    ------------   -----------------  -----------------  -----------------  -----------------
         O            3.061203150204    -0.717718140132     0.001102585867    15.994914619570
         N           -1.100137849796    -1.156784140132     0.000962585867    14.003074004430
         C            0.950240150204     0.063830859868     0.001027585867    12.000000000000
         C           -0.513987849796     0.063415859868     0.001038585867    12.000000000000
         C            1.855581150204     1.175865859868     0.000940585867    12.000000000000
         C           -1.259150849796     1.251374859868     0.001125585867    12.000000000000
         C            1.741167150204    -1.059478140132     0.001120585867    12.000000000000
         C           -2.649909849796     1.180189859868     0.001123585867    12.000000000000
         C            3.114125150204     0.647921859868     0.000996585867    12.000000000000
         C           -3.259086849796    -0.073648140132     0.001044585867    12.000000000000
         C           -2.440896849796    -1.204769140132     0.000970585867    12.000000000000
         H            1.616093150204     2.230780859868     0.000830585867     1.007825032230
         H           -0.757678849796     2.215098859868     0.001200585867     1.007825032230
         H            1.515741150204    -2.114700140132     0.001200585867     1.007825032230
         H            4.105038150204     1.077276859868     0.000970585867     1.007825032230
         H           -3.246929849796     2.089055859868     0.001187585867     1.007825032230
         H           -4.340455149796    -0.176815540132    -0.148959414133     1.007825032230
         H           -2.875979849796    -2.203162140132     0.000911585867     1.007825032230

  Basis Set: AUG-CC-PVTZ
    Blend: AUG-CC-PVTZ
  Basis Set: (AUG-CC-PVTZ AUX)
    Blend: AUG-CC-PVTZ-JKFIT
	 Reference Energy          =    -474.3297297553344265 [Eh]
	 Singles Energy            =      -0.0000000000000000 [Eh]
	 Same-Spin Energy          =      -0.5142552160248391 [Eh]
	 Opposite-Spin Energy      =      -1.5570538683794601 [Eh]
	 Correlation Energy        =      -2.0713090844042994 [Eh]
	 Total Energy              =    -476.4010388397387032 [Eh]

	 ================> DF-SCS-MP2 Energies <==================
	-----------------------------------------------------------
	 SCS Same-Spin Scale       =       0.3333333333333333 [-]
	 SCS Opposite-Spin Scale   =       1.2000000000000000 [-]
	 SCS Same-Spin Energy      =      -0.1714184053416130 [Eh]
	 SCS Opposite-Spin Energy  =      -1.8684646420553521 [Eh]
	 SCS Correlation Energy    =      -2.0398830473969651 [Eh]
	 SCS Total Energy          =    -476.3696128027314103 [Eh]
	-----------------------------------------------------------

  Dipole Moment: [D]
     X:    -1.3218      Y:     2.0232      Z:    -0.0935     Total:     2.4185

*** Psi4 exiting successfully. Buy a developer a beer!
