                               Psi4 1.4a2.dev612

  ==> Input File <==

--------------------------------------------------------------------------
#psi4
#
memory 32 gb

molecule  {
0 1
  O        3.0870850    -0.7380670     0.0000600
  N       -1.0742560    -1.1771330    -0.0000800
  C        0.9761220     0.0434820    -0.0000150
  C       -0.4881060     0.0430670    -0.0000040
  C        1.8814630     1.1555170    -0.0001020
  C       -1.2332690     1.2310260     0.0000830
  C        1.7670490    -1.0798270     0.0000780
  C       -2.6240280     1.1598410     0.0000810
  C        3.1400070     0.6275730    -0.0000460
  C       -3.2332050    -0.0939970     0.0000020
  C       -2.4150150    -1.2251180    -0.0000720
  H        1.6419750     2.2104320    -0.0002120
  H       -0.7317970     2.1947500     0.0001580
  H        1.5416230    -2.1350490     0.0001580
  H        4.1309230     1.0569042    -0.3000720
  H       -3.2210480     2.0687070     0.0001450
  H       -4.3145730    -0.1971740    -0.0000020
  H       -2.8500980    -2.2235110    -0.0001310
units angstrom
no_reorient  #important for SAPT in psi4, default
symmetry c1  #important for SAPT in psi4, default
}

set PROPERTIES_ORIGIN ["COM"]
properties('MP2/aug-cc-pvtz', properties = ['dipole'])
--------------------------------------------------------------------------

    Molecular point group: c1
  Charge       = 0
  Multiplicity = 1
  Basis Set: AUG-CC-PVTZ
    Blend: AUG-CC-PVTZ
  Basis Set: (AUG-CC-PVTZ AUX)
    Blend: AUG-CC-PVTZ-JKFIT

    Orbital Energies [Eh]
    ---------------------

    Doubly Occupied:

       1A    -20.628533     2A    -15.566080     3A    -11.295822
       4A    -11.295096     5A    -11.292685     6A    -11.279834
       7A    -11.263701     8A    -11.243767     9A    -11.241448
      10A    -11.239843    11A    -11.238420    12A     -1.458970
      13A     -1.259009    14A     -1.106216    15A     -1.088970
      16A     -1.034055    17A     -0.997177    18A     -0.875752
      19A     -0.863491    20A     -0.795454    21A     -0.775405
      22A     -0.742457    23A     -0.686871    24A     -0.662689
      25A     -0.646689    26A     -0.637771    27A     -0.600472
      28A     -0.584343    29A     -0.575877    30A     -0.571046
      31A     -0.549305    32A     -0.536964    33A     -0.520486
      34A     -0.425055    35A     -0.422385    36A     -0.384161
      37A     -0.348851    38A     -0.299468

  @DF-RHF Final Energy:  -474.32564046150964

   => Energetics <=

    Nuclear Repulsion Energy =            539.7242927505453736
    One-Electron Energy =               -1714.0306285634726464
    Two-Electron Energy =                 699.9806953514175802
    Total Energy =                       -474.3256404615096926
  Basis Set: (AUG-CC-PVTZ AUX)
    Blend: AUG-CC-PVTZ-RI
    Molecular point group: c1

    Geometry (in Angstrom), charge = 0, multiplicity = 1:

       Center              X                  Y                   Z               Mass
    ------------   -----------------  -----------------  -----------------  -----------------
         O            3.061203127276    -0.717717908069     0.002144784243    15.994914619570
         N           -1.100137872724    -1.156783908069     0.002004784243    14.003074004430
         C            0.950240127276     0.063831091931     0.002069784243    12.000000000000
         C           -0.513987872724     0.063416091931     0.002080784243    12.000000000000
         C            1.855581127276     1.175866091931     0.001982784243    12.000000000000
         C           -1.259150872724     1.251375091931     0.002167784243    12.000000000000
         C            1.741167127276    -1.059477908069     0.002162784243    12.000000000000
         C           -2.649909872724     1.180190091931     0.002165784243    12.000000000000
         C            3.114125127276     0.647922091931     0.002038784243    12.000000000000
         C           -3.259086872724    -0.073647908069     0.002086784243    12.000000000000
         C           -2.440896872724    -1.204768908069     0.002012784243    12.000000000000
         H            1.616093127276     2.230781091931     0.001872784243     1.007825032230
         H           -0.757678872724     2.215099091931     0.002242784243     1.007825032230
         H            1.515741127276    -2.114699908069     0.002242784243     1.007825032230
         H            4.105041127276     1.077253291931    -0.297987215757     1.007825032230
         H           -3.246929872724     2.089056091931     0.002229784243     1.007825032230
         H           -4.340454872724    -0.176824908069     0.002082784243     1.007825032230
         H           -2.875979872724    -2.203161908069     0.001953784243     1.007825032230

  Basis Set: AUG-CC-PVTZ
    Blend: AUG-CC-PVTZ
  Basis Set: (AUG-CC-PVTZ AUX)
    Blend: AUG-CC-PVTZ-JKFIT
	 Reference Energy          =    -474.3256404615096358 [Eh]
	 Singles Energy            =      -0.0000000000000000 [Eh]
	 Same-Spin Energy          =      -0.5145358487486256 [Eh]
	 Opposite-Spin Energy      =      -1.5577603732124281 [Eh]
	 Correlation Energy        =      -2.0722962219610537 [Eh]
	 Total Energy              =    -476.3979366834706752 [Eh]

	 ================> DF-SCS-MP2 Energies <==================
	-----------------------------------------------------------
	 SCS Same-Spin Scale       =       0.3333333333333333 [-]
	 SCS Opposite-Spin Scale   =       1.2000000000000000 [-]
	 SCS Same-Spin Energy      =      -0.1715119495828752 [Eh]
	 SCS Opposite-Spin Energy  =      -1.8693124478549137 [Eh]
	 SCS Correlation Energy    =      -2.0408243974377891 [Eh]
	 SCS Total Energy          =    -476.3664648589474382 [Eh]
	-----------------------------------------------------------

  Dipole Moment: [D]
     X:    -1.4397      Y:     1.9918      Z:    -0.2540     Total:     2.4707

*** Psi4 exiting successfully. Buy a developer a beer!
