                               Psi4 1.4a2.dev612

  ==> Input File <==

--------------------------------------------------------------------------
#psi4
#
memory 32 gb

molecule  {
0 1
  O        3.0870850    -0.7380670     0.0000600
  N       -1.0742560    -1.1771330    -0.0000800
  C        0.9761220     0.0434820    -0.0000150
  C       -0.4881060     0.0430670    -0.0000040
  C        1.8814630     1.1555170    -0.0001020
  C       -1.2332690     1.2310260     0.0000830
  C        1.7670490    -1.0798270     0.0000780
  C       -2.6240280     1.1598410     0.0000810
  C        3.1400070     0.6275730    -0.0000460
  C       -3.2332050    -0.0939970     0.0000020
  C       -2.4150150    -1.2251180    -0.0000720
  H        1.6419750     2.2104320    -0.0002120
  H       -0.7317970     2.1947500     0.0001580
  H        1.5416230    -2.1350490     0.0001580
  H        4.1309200     1.0569280    -0.0000720
  H       -3.2210490     2.0687268    -0.2998550
  H       -4.3145730    -0.1971740    -0.0000020
  H       -2.8500980    -2.2235110    -0.0001310
units angstrom
no_reorient  #important for SAPT in psi4, default
symmetry c1  #important for SAPT in psi4, default
}

set PROPERTIES_ORIGIN ["COM"]
properties('MP2/aug-cc-pvtz', properties = ['dipole'])
--------------------------------------------------------------------------

    Molecular point group: c1
  Charge       = 0
  Multiplicity = 1
  Basis Set: AUG-CC-PVTZ
    Blend: AUG-CC-PVTZ
  Basis Set: (AUG-CC-PVTZ AUX)
    Blend: AUG-CC-PVTZ-JKFIT

    Orbital Energies [Eh]
    ---------------------

    Doubly Occupied:

       1A    -20.628805     2A    -15.566368     3A    -11.293994
       4A    -11.293505     5A    -11.292595     6A    -11.279818
       7A    -11.267093     8A    -11.244100     9A    -11.241833
      10A    -11.239368    11A    -11.237422    12A     -1.459042
      13A     -1.259100    14A     -1.105768    15A     -1.088022
      16A     -1.034304    17A     -0.998447    18A     -0.874936
      19A     -0.862230    20A     -0.796091    21A     -0.776402
      22A     -0.743506    23A     -0.686362    24A     -0.662825
      25A     -0.645250    26A     -0.635841    27A     -0.607152
      28A     -0.585097    29A     -0.574657    30A     -0.569733
      31A     -0.546609    32A     -0.537626    33A     -0.520930
      34A     -0.426286    35A     -0.420950    36A     -0.382557
      37A     -0.348993    38A     -0.299248

  @DF-RHF Final Energy:  -474.32460713983482

   => Energetics <=

    Nuclear Repulsion Energy =            539.7283617358782521
    One-Electron Energy =               -1714.0402054078442688
    Two-Electron Energy =                 699.9872365321311918
    Total Energy =                       -474.3246071398348249
  Basis Set: (AUG-CC-PVTZ AUX)
    Blend: AUG-CC-PVTZ-RI
    Molecular point group: c1

    Geometry (in Angstrom), charge = 0, multiplicity = 1:

       Center              X                  Y                   Z               Mass
    ------------   -----------------  -----------------  -----------------  -----------------
         O            3.061203155068    -0.717718211001     0.002144784243    15.994914619570
         N           -1.100137844932    -1.156784211001     0.002004784243    14.003074004430
         C            0.950240155068     0.063830788999     0.002069784243    12.000000000000
         C           -0.513987844932     0.063415788999     0.002080784243    12.000000000000
         C            1.855581155068     1.175865788999     0.001982784243    12.000000000000
         C           -1.259150844932     1.251374788999     0.002167784243    12.000000000000
         C            1.741167155068    -1.059478211001     0.002162784243    12.000000000000
         C           -2.649909844932     1.180189788999     0.002165784243    12.000000000000
         C            3.114125155068     0.647921788999     0.002038784243    12.000000000000
         C           -3.259086844932    -0.073648211001     0.002086784243    12.000000000000
         C           -2.440896844932    -1.204769211001     0.002012784243    12.000000000000
         H            1.616093155068     2.230780788999     0.001872784243     1.007825032230
         H           -0.757678844932     2.215098788999     0.002242784243     1.007825032230
         H            1.515741155068    -2.114700211001     0.002242784243     1.007825032230
         H            4.105038155068     1.077276788999     0.002012784243     1.007825032230
         H           -3.246930844932     2.089075588999    -0.297770215757     1.007825032230
         H           -4.340454844932    -0.176825211001     0.002082784243     1.007825032230
         H           -2.875979844932    -2.203162211001     0.001953784243     1.007825032230

  Basis Set: AUG-CC-PVTZ
    Blend: AUG-CC-PVTZ
  Basis Set: (AUG-CC-PVTZ AUX)
    Blend: AUG-CC-PVTZ-JKFIT
	 Reference Energy          =    -474.3246071398348249 [Eh]
	 Singles Energy            =      -0.0000000000000000 [Eh]
	 Same-Spin Energy          =      -0.5145601830340070 [Eh]
	 Opposite-Spin Energy      =      -1.5576612123530533 [Eh]
	 Correlation Energy        =      -2.0722213953870603 [Eh]
	 Total Energy              =    -476.3968285352218572 [Eh]

	 ================> DF-SCS-MP2 Energies <==================
	-----------------------------------------------------------
	 SCS Same-Spin Scale       =       0.3333333333333333 [-]
	 SCS Opposite-Spin Scale   =       1.2000000000000000 [-]
	 SCS Same-Spin Energy      =      -0.1715200610113357 [Eh]
	 SCS Opposite-Spin Energy  =      -1.8691934548236639 [Eh]
	 SCS Correlation Energy    =      -2.0407135158349998 [Eh]
	 SCS Total Energy          =    -476.3653206556698478 [Eh]
	-----------------------------------------------------------

  Dipole Moment: [D]
     X:    -1.2976      Y:     1.9649      Z:    -0.1763     Total:     2.3613

*** Psi4 exiting successfully. Buy a developer a beer!
