                               Psi4 1.4a2.dev612

  ==> Input File <==

--------------------------------------------------------------------------
#psi4
#
memory 32 gb

molecule  {
0 1
  O        3.0870850    -0.7380670     0.0000600
  N       -1.0742560    -1.1771330    -0.0000800
  C        0.9761220     0.0434820    -0.0000150
  C       -0.4881060     0.0430670    -0.0000040
  C        1.8814630     1.1555170    -0.0001020
  C       -1.2332690     1.2310260     0.0000830
  C        1.7670490    -1.0798270     0.0000780
  C       -2.6240280     1.1598410     0.0000810
  C        3.1400070     0.6275730    -0.0000460
  C       -3.2332050    -0.0939970     0.0000020
  C       -2.4150150    -1.2251180    -0.0000720
  H        1.6419750     2.2104320    -0.0002120
  H       -0.7317970     2.1947500     0.0001580
  H        1.5416220    -2.1350374     0.1501580
  H        4.1309200     1.0569280    -0.0000720
  H       -3.2210480     2.0687070     0.0001450
  H       -4.3145730    -0.1971740    -0.0000020
  H       -2.8500980    -2.2235110    -0.0001310
units angstrom
no_reorient  #important for SAPT in psi4, default
symmetry c1  #important for SAPT in psi4, default
}

set PROPERTIES_ORIGIN ["COM"]
properties('MP2/aug-cc-pvtz', properties = ['dipole'])
--------------------------------------------------------------------------

    Molecular point group: c1
  Charge       = 0
  Multiplicity = 1
  Basis Set: AUG-CC-PVTZ
    Blend: AUG-CC-PVTZ
  Basis Set: (AUG-CC-PVTZ AUX)
    Blend: AUG-CC-PVTZ-JKFIT

    Orbital Energies [Eh]
    ---------------------

    Doubly Occupied:

       1A    -20.628532     2A    -15.565733     3A    -11.294387
       4A    -11.293613     5A    -11.292320     6A    -11.279516
       7A    -11.263415     8A    -11.243506     9A    -11.241211
      10A    -11.239397    11A    -11.237384    12A     -1.458835
      13A     -1.258658    14A     -1.105654    15A     -1.088680
      16A     -1.034010    17A     -0.997860    18A     -0.875500
      19A     -0.863464    20A     -0.796082    21A     -0.776701
      22A     -0.744213    23A     -0.687197    24A     -0.662556
      25A     -0.646395    26A     -0.636215    27A     -0.605193
      28A     -0.585436    29A     -0.574930    30A     -0.571863
      31A     -0.548965    32A     -0.537628    33A     -0.520614
      34A     -0.424694    35A     -0.421957    36A     -0.383869
      37A     -0.348781    38A     -0.299074

  @DF-RHF Final Energy:  -474.32984381690829

   => Energetics <=

    Nuclear Repulsion Energy =            539.8358669814574569
    One-Electron Energy =               -1714.2633415411874012
    Two-Electron Energy =                 700.0976307428215932
    Total Energy =                       -474.3298438169083511
  Basis Set: (AUG-CC-PVTZ AUX)
    Blend: AUG-CC-PVTZ-RI
    Molecular point group: c1

    Geometry (in Angstrom), charge = 0, multiplicity = 1:

       Center              X                  Y                   Z               Mass
    ------------   -----------------  -----------------  -----------------  -----------------
         O            3.061203155068    -0.717718154028    -0.000981810884    15.994914619570
         N           -1.100137844932    -1.156784154028    -0.001121810884    14.003074004430
         C            0.950240155068     0.063830845972    -0.001056810884    12.000000000000
         C           -0.513987844932     0.063415845972    -0.001045810884    12.000000000000
         C            1.855581155068     1.175865845972    -0.001143810884    12.000000000000
         C           -1.259150844932     1.251374845972    -0.000958810884    12.000000000000
         C            1.741167155068    -1.059478154028    -0.000963810884    12.000000000000
         C           -2.649909844932     1.180189845972    -0.000960810884    12.000000000000
         C            3.114125155068     0.647921845972    -0.001087810884    12.000000000000
         C           -3.259086844932    -0.073648154028    -0.001039810884    12.000000000000
         C           -2.440896844932    -1.204769154028    -0.001113810884    12.000000000000
         H            1.616093155068     2.230780845972    -0.001253810884     1.007825032230
         H           -0.757678844932     2.215098845972    -0.000883810884     1.007825032230
         H            1.515740155068    -2.114688554028     0.149116189116     1.007825032230
         H            4.105038155068     1.077276845972    -0.001113810884     1.007825032230
         H           -3.246929844932     2.089055845972    -0.000896810884     1.007825032230
         H           -4.340454844932    -0.176825154028    -0.001043810884     1.007825032230
         H           -2.875979844932    -2.203162154028    -0.001172810884     1.007825032230

  Basis Set: AUG-CC-PVTZ
    Blend: AUG-CC-PVTZ
  Basis Set: (AUG-CC-PVTZ AUX)
    Blend: AUG-CC-PVTZ-JKFIT
	 Reference Energy          =    -474.3298438169082942 [Eh]
	 Singles Energy            =      -0.0000000000000000 [Eh]
	 Same-Spin Energy          =      -0.5143103018640917 [Eh]
	 Opposite-Spin Energy      =      -1.5571672582407108 [Eh]
	 Correlation Energy        =      -2.0714775601048023 [Eh]
	 Total Energy              =    -476.4013213770131188 [Eh]

	 ================> DF-SCS-MP2 Energies <==================
	-----------------------------------------------------------
	 SCS Same-Spin Scale       =       0.3333333333333333 [-]
	 SCS Opposite-Spin Scale   =       1.2000000000000000 [-]
	 SCS Same-Spin Energy      =      -0.1714367672880305 [Eh]
	 SCS Opposite-Spin Energy  =      -1.8686007098888529 [Eh]
	 SCS Correlation Energy    =      -2.0400374771768832 [Eh]
	 SCS Total Energy          =    -476.3698812940851894 [Eh]
	-----------------------------------------------------------

  Dipole Moment: [D]
     X:    -1.3464      Y:     2.0389      Z:     0.1253     Total:     2.4466

*** Psi4 exiting successfully. Buy a developer a beer!
