                               Psi4 1.4a2.dev612

  ==> Input File <==

--------------------------------------------------------------------------
#psi4
#
memory 32 gb

molecule  {
0 1
  O        3.0870850    -0.7380670     0.0000600
  N       -1.0742560    -1.1771330    -0.0000800
  C        0.9761220     0.0434820    -0.0000150
  C       -0.4881060     0.0430670    -0.0000040
  C        1.8814630     1.1555170    -0.0001020
  C       -1.2332678     1.2310159     0.1500830
  C        1.7670490    -1.0798270     0.0000780
  C       -2.6240280     1.1598410     0.0000810
  C        3.1400070     0.6275730    -0.0000460
  C       -3.2332050    -0.0939970     0.0000020
  C       -2.4150150    -1.2251180    -0.0000720
  H        1.6419750     2.2104320    -0.0002120
  H       -0.7317970     2.1947500     0.0001580
  H        1.5416230    -2.1350490     0.0001580
  H        4.1309200     1.0569280    -0.0000720
  H       -3.2210480     2.0687070     0.0001450
  H       -4.3145730    -0.1971740    -0.0000020
  H       -2.8500980    -2.2235110    -0.0001310
units angstrom
no_reorient  #important for SAPT in psi4, default
symmetry c1  #important for SAPT in psi4, default
}

set PROPERTIES_ORIGIN ["COM"]
properties('MP2/aug-cc-pvtz', properties = ['dipole'])
--------------------------------------------------------------------------

    Molecular point group: c1
  Charge       = 0
  Multiplicity = 1
  Basis Set: AUG-CC-PVTZ
    Blend: AUG-CC-PVTZ
  Basis Set: (AUG-CC-PVTZ AUX)
    Blend: AUG-CC-PVTZ-JKFIT

    Orbital Energies [Eh]
    ---------------------

    Doubly Occupied:

       1A    -20.628945     2A    -15.565453     3A    -11.294398
       4A    -11.294173     5A    -11.293445     6A    -11.280565
       7A    -11.265035     8A    -11.244979     9A    -11.240782
      10A    -11.239323    11A    -11.237363    12A     -1.459185
      13A     -1.258538    14A     -1.105691    15A     -1.087449
      16A     -1.033524    17A     -0.998168    18A     -0.874774
      19A     -0.862840    20A     -0.795952    21A     -0.777693
      22A     -0.744794    23A     -0.686105    24A     -0.660740
      25A     -0.644828    26A     -0.635905    27A     -0.606762
      28A     -0.585001    29A     -0.575443    30A     -0.571541
      31A     -0.547840    32A     -0.537937    33A     -0.519319
      34A     -0.426506    35A     -0.419396    36A     -0.383380
      37A     -0.348606    38A     -0.299331

  @DF-RHF Final Energy:  -474.32450364508821

   => Energetics <=

    Nuclear Repulsion Energy =            539.6156756807054080
    One-Electron Energy =               -1713.8169445420355714
    Two-Electron Energy =                 699.8767652162418926
    Total Energy =                       -474.3245036450882708
  Basis Set: (AUG-CC-PVTZ AUX)
    Blend: AUG-CC-PVTZ-RI
    Molecular point group: c1

    Geometry (in Angstrom), charge = 0, multiplicity = 1:

       Center              X                  Y                   Z               Mass
    ------------   -----------------  -----------------  -----------------  -----------------
         O            3.061203048846    -0.717717237873    -0.012348890017    15.994914619570
         N           -1.100137951154    -1.156783237873    -0.012488890017    14.003074004430
         C            0.950240048846     0.063831762127    -0.012423890017    12.000000000000
         C           -0.513987951154     0.063416762127    -0.012412890017    12.000000000000
         C            1.855581048846     1.175866762127    -0.012510890017    12.000000000000
         C           -1.259149751154     1.251365662127     0.137674109983    12.000000000000
         C            1.741167048846    -1.059477237873    -0.012330890017    12.000000000000
         C           -2.649909951154     1.180190762127    -0.012327890017    12.000000000000
         C            3.114125048846     0.647922762127    -0.012454890017    12.000000000000
         C           -3.259086951154    -0.073647237873    -0.012406890017    12.000000000000
         C           -2.440896951154    -1.204768237873    -0.012480890017    12.000000000000
         H            1.616093048846     2.230781762127    -0.012620890017     1.007825032230
         H           -0.757678951154     2.215099762127    -0.012250890017     1.007825032230
         H            1.515741048846    -2.114699237873    -0.012250890017     1.007825032230
         H            4.105038048846     1.077277762127    -0.012480890017     1.007825032230
         H           -3.246929951154     2.089056762127    -0.012263890017     1.007825032230
         H           -4.340454951154    -0.176824237873    -0.012410890017     1.007825032230
         H           -2.875979951154    -2.203161237873    -0.012539890017     1.007825032230

  Basis Set: AUG-CC-PVTZ
    Blend: AUG-CC-PVTZ
  Basis Set: (AUG-CC-PVTZ AUX)
    Blend: AUG-CC-PVTZ-JKFIT
	 Reference Energy          =    -474.3245036450882139 [Eh]
	 Singles Energy            =      -0.0000000000000000 [Eh]
	 Same-Spin Energy          =      -0.5144021593930608 [Eh]
	 Opposite-Spin Energy      =      -1.5573453049045380 [Eh]
	 Correlation Energy        =      -2.0717474642975988 [Eh]
	 Total Energy              =    -476.3962511093857870 [Eh]

	 ================> DF-SCS-MP2 Energies <==================
	-----------------------------------------------------------
	 SCS Same-Spin Scale       =       0.3333333333333333 [-]
	 SCS Opposite-Spin Scale   =       1.2000000000000000 [-]
	 SCS Same-Spin Energy      =      -0.1714673864643536 [Eh]
	 SCS Opposite-Spin Energy  =      -1.8688143658854455 [Eh]
	 SCS Correlation Energy    =      -2.0402817523497991 [Eh]
	 SCS Total Energy          =    -476.3647853974380268 [Eh]
	-----------------------------------------------------------

  Dipole Moment: [D]
     X:    -1.3403      Y:     1.9806      Z:    -0.0476     Total:     2.3919

*** Psi4 exiting successfully. Buy a developer a beer!
