                               Psi4 1.4a2.dev612

  ==> Input File <==

--------------------------------------------------------------------------
#psi4
#
memory 32 gb

molecule  {
0 1
  O        3.0870850    -0.7380670     0.0000600
  N       -1.0742560    -1.1771330    -0.0000800
  C        0.9761220     0.0434820    -0.0000150
  C       -0.4881060     0.0430670    -0.0000040
  C        1.8814630     1.1555170    -0.0001020
  C       -1.2332690     1.2310260     0.0000830
  C        1.7670490    -1.0798270     0.0000780
  C       -2.6240280     1.1598410     0.0000810
  C        3.1400070     0.6275730    -0.0000460
  C       -3.2332050    -0.0939970     0.0000020
  C       -2.4150150    -1.2251180    -0.0000720
  H        1.6419750     2.2104320    -0.0002120
  H       -0.7317971     2.1947613    -0.1498420
  H        1.5416230    -2.1350490     0.0001580
  H        4.1309200     1.0569280    -0.0000720
  H       -3.2210480     2.0687070     0.0001450
  H       -4.3145730    -0.1971740    -0.0000020
  H       -2.8500980    -2.2235110    -0.0001310
units angstrom
no_reorient  #important for SAPT in psi4, default
symmetry c1  #important for SAPT in psi4, default
}

set PROPERTIES_ORIGIN ["COM"]
properties('MP2/aug-cc-pvtz', properties = ['dipole'])
--------------------------------------------------------------------------

    Molecular point group: c1
  Charge       = 0
  Multiplicity = 1
  Basis Set: AUG-CC-PVTZ
    Blend: AUG-CC-PVTZ
  Basis Set: (AUG-CC-PVTZ AUX)
    Blend: AUG-CC-PVTZ-JKFIT

    Orbital Energies [Eh]
    ---------------------

    Doubly Occupied:

       1A    -20.628665     2A    -15.565772     3A    -11.293898
       4A    -11.293301     5A    -11.292474     6A    -11.279717
       7A    -11.263525     8A    -11.244227     9A    -11.241181
      10A    -11.239149    11A    -11.237202    12A     -1.458903
      13A     -1.258737    14A     -1.105557    15A     -1.088551
      16A     -1.033895    17A     -0.998175    18A     -0.875562
      19A     -0.862988    20A     -0.795968    21A     -0.777689
      22A     -0.744875    23A     -0.686563    24A     -0.662588
      25A     -0.645255    26A     -0.635671    27A     -0.606804
      28A     -0.585383    29A     -0.575329    30A     -0.571826
      31A     -0.549017    32A     -0.537984    33A     -0.519873
      34A     -0.424680    35A     -0.422106    36A     -0.383655
      37A     -0.348690    38A     -0.299052

  @DF-RHF Final Energy:  -474.32974693059759

   => Energetics <=

    Nuclear Repulsion Energy =            539.8364641803927952
    One-Electron Energy =               -1714.2634490413574895
    Two-Electron Energy =                 700.0972379303671005
    Total Energy =                       -474.3297469305975937
  Basis Set: (AUG-CC-PVTZ AUX)
    Blend: AUG-CC-PVTZ-RI
    Molecular point group: c1

    Geometry (in Angstrom), charge = 0, multiplicity = 1:

       Center              X                  Y                   Z               Mass
    ------------   -----------------  -----------------  -----------------  -----------------
         O            3.061203148815    -0.717718151943     0.001102585867    15.994914619570
         N           -1.100137851185    -1.156784151943     0.000962585867    14.003074004430
         C            0.950240148815     0.063830848057     0.001027585867    12.000000000000
         C           -0.513987851185     0.063415848057     0.001038585867    12.000000000000
         C            1.855581148815     1.175865848057     0.000940585867    12.000000000000
         C           -1.259150851185     1.251374848057     0.001125585867    12.000000000000
         C            1.741167148815    -1.059478151943     0.001120585867    12.000000000000
         C           -2.649909851185     1.180189848057     0.001123585867    12.000000000000
         C            3.114125148815     0.647921848057     0.000996585867    12.000000000000
         C           -3.259086851185    -0.073648151943     0.001044585867    12.000000000000
         C           -2.440896851185    -1.204769151943     0.000970585867    12.000000000000
         H            1.616093148815     2.230780848057     0.000830585867     1.007825032230
         H           -0.757678951185     2.215110148057    -0.148799414133     1.007825032230
         H            1.515741148815    -2.114700151943     0.001200585867     1.007825032230
         H            4.105038148815     1.077276848057     0.000970585867     1.007825032230
         H           -3.246929851185     2.089055848057     0.001187585867     1.007825032230
         H           -4.340454851185    -0.176825151943     0.001040585867     1.007825032230
         H           -2.875979851185    -2.203162151943     0.000911585867     1.007825032230

  Basis Set: AUG-CC-PVTZ
    Blend: AUG-CC-PVTZ
  Basis Set: (AUG-CC-PVTZ AUX)
    Blend: AUG-CC-PVTZ-JKFIT
	 Reference Energy          =    -474.3297469305975937 [Eh]
	 Singles Energy            =      -0.0000000000000000 [Eh]
	 Same-Spin Energy          =      -0.5142626312675349 [Eh]
	 Opposite-Spin Energy      =      -1.5569938823602407 [Eh]
	 Correlation Energy        =      -2.0712565136277759 [Eh]
	 Total Energy              =    -476.4010034442253527 [Eh]

	 ================> DF-SCS-MP2 Energies <==================
	-----------------------------------------------------------
	 SCS Same-Spin Scale       =       0.3333333333333333 [-]
	 SCS Opposite-Spin Scale   =       1.2000000000000000 [-]
	 SCS Same-Spin Energy      =      -0.1714208770891783 [Eh]
	 SCS Opposite-Spin Energy  =      -1.8683926588322888 [Eh]
	 SCS Correlation Energy    =      -2.0398135359214669 [Eh]
	 SCS Total Energy          =    -476.3695604665190331 [Eh]
	-----------------------------------------------------------

  Dipole Moment: [D]
     X:    -1.3497      Y:     2.0078      Z:    -0.0851     Total:     2.4208

*** Psi4 exiting successfully. Buy a developer a beer!
