                               Psi4 1.4a2.dev612

  ==> Input File <==

--------------------------------------------------------------------------
#psi4
#
memory 32 gb

molecule  {
0 1
  O        3.0870850    -0.7380670     0.0000600
  N       -1.0742560    -1.1771330    -0.0000800
  C        0.9761220     0.0434820    -0.0000150
  C       -0.4881060     0.0430670    -0.0000040
  C        1.8814630     1.1555170    -0.0001020
  C       -1.2332690     1.2310260     0.0000830
  C        1.7670490    -1.0798270     0.0000780
  C       -2.6240280     1.1598410     0.0000810
  C        3.1400070     0.6275730    -0.0000460
  C       -3.2332050    -0.0939970     0.0000020
  C       -2.4150150    -1.2251180    -0.0000720
  H        1.6419750     2.2104320    -0.0002120
  H       -0.7317970     2.1947538    -0.0498420
  H        1.5416230    -2.1350490     0.0001580
  H        4.1309200     1.0569280    -0.0000720
  H       -3.2210480     2.0687070     0.0001450
  H       -4.3145730    -0.1971740    -0.0000020
  H       -2.8500980    -2.2235110    -0.0001310
units angstrom
no_reorient  #important for SAPT in psi4, default
symmetry c1  #important for SAPT in psi4, default
}

set PROPERTIES_ORIGIN ["COM"]
properties('MP2/aug-cc-pvtz', properties = ['dipole'])
--------------------------------------------------------------------------

    Molecular point group: c1
  Charge       = 0
  Multiplicity = 1
  Basis Set: AUG-CC-PVTZ
    Blend: AUG-CC-PVTZ
  Basis Set: (AUG-CC-PVTZ AUX)
    Blend: AUG-CC-PVTZ-JKFIT

    Orbital Energies [Eh]
    ---------------------

    Doubly Occupied:

       1A    -20.628656     2A    -15.565702     3A    -11.293837
       4A    -11.293345     5A    -11.292308     6A    -11.279522
       7A    -11.263390     8A    -11.243496     9A    -11.241130
      10A    -11.239157    11A    -11.237262    12A     -1.458894
      13A     -1.258633    14A     -1.105557    15A     -1.088615
      16A     -1.033973    17A     -0.998211    18A     -0.875549
      19A     -0.863369    20A     -0.796047    21A     -0.777671
      22A     -0.744955    23A     -0.687154    24A     -0.662526
      25A     -0.646217    26A     -0.635683    27A     -0.606956
      28A     -0.585622    29A     -0.575343    30A     -0.571870
      31A     -0.548940    32A     -0.538082    33A     -0.520473
      34A     -0.424658    35A     -0.422011    36A     -0.383823
      37A     -0.348742    38A     -0.299032

  @DF-RHF Final Energy:  -474.33097400542198

   => Energetics <=

    Nuclear Repulsion Energy =            539.8745925015444982
    One-Electron Energy =               -1714.3383106126927942
    Two-Electron Energy =                 700.1327441057264878
    Total Energy =                       -474.3309740054219219
  Basis Set: (AUG-CC-PVTZ AUX)
    Blend: AUG-CC-PVTZ-RI
    Molecular point group: c1

    Geometry (in Angstrom), charge = 0, multiplicity = 1:

       Center              X                  Y                   Z               Mass
    ------------   -----------------  -----------------  -----------------  -----------------
         O            3.061203148120    -0.717718099833     0.000407786950    15.994914619570
         N           -1.100137851880    -1.156784099833     0.000267786950    14.003074004430
         C            0.950240148120     0.063830900167     0.000332786950    12.000000000000
         C           -0.513987851880     0.063415900167     0.000343786950    12.000000000000
         C            1.855581148120     1.175865900167     0.000245786950    12.000000000000
         C           -1.259150851880     1.251374900167     0.000430786950    12.000000000000
         C            1.741167148120    -1.059478099833     0.000425786950    12.000000000000
         C           -2.649909851880     1.180189900167     0.000428786950    12.000000000000
         C            3.114125148120     0.647921900167     0.000301786950    12.000000000000
         C           -3.259086851880    -0.073648099833     0.000349786950    12.000000000000
         C           -2.440896851880    -1.204769099833     0.000275786950    12.000000000000
         H            1.616093148120     2.230780900167     0.000135786950     1.007825032230
         H           -0.757678851880     2.215102700167    -0.049494213050     1.007825032230
         H            1.515741148120    -2.114700099833     0.000505786950     1.007825032230
         H            4.105038148120     1.077276900167     0.000275786950     1.007825032230
         H           -3.246929851880     2.089055900167     0.000492786950     1.007825032230
         H           -4.340454851880    -0.176825099833     0.000345786950     1.007825032230
         H           -2.875979851880    -2.203162099833     0.000216786950     1.007825032230

  Basis Set: AUG-CC-PVTZ
    Blend: AUG-CC-PVTZ
  Basis Set: (AUG-CC-PVTZ AUX)
    Blend: AUG-CC-PVTZ-JKFIT
	 Reference Energy          =    -474.3309740054219787 [Eh]
	 Singles Energy            =      -0.0000000000000000 [Eh]
	 Same-Spin Energy          =      -0.5142076105438044 [Eh]
	 Opposite-Spin Energy      =      -1.5569492874401769 [Eh]
	 Correlation Energy        =      -2.0711568979839812 [Eh]
	 Total Energy              =    -476.4021309034059755 [Eh]

	 ================> DF-SCS-MP2 Energies <==================
	-----------------------------------------------------------
	 SCS Same-Spin Scale       =       0.3333333333333333 [-]
	 SCS Opposite-Spin Scale   =       1.2000000000000000 [-]
	 SCS Same-Spin Energy      =      -0.1714025368479348 [Eh]
	 SCS Opposite-Spin Energy  =      -1.8683391449282123 [Eh]
	 SCS Correlation Energy    =      -2.0397416817761469 [Eh]
	 SCS Total Energy          =    -476.3707156871981283 [Eh]
	-----------------------------------------------------------

  Dipole Moment: [D]
     X:    -1.3446      Y:     2.0203      Z:    -0.0284     Total:     2.4270

*** Psi4 exiting successfully. Buy a developer a beer!
