                               Psi4 1.4a2.dev612

  ==> Input File <==

--------------------------------------------------------------------------
#psi4
#
memory 32 gb

molecule  {
0 1
  O        3.0870850    -0.7380670     0.0000600
  N       -1.0742560    -1.1771330    -0.0000800
  C        0.9761220     0.0434820    -0.0000150
  C       -0.4881060     0.0430670    -0.0000040
  C        1.8814630     1.1555170    -0.0001020
  C       -1.2332665     1.2310059     0.3000830
  C        1.7670490    -1.0798270     0.0000780
  C       -2.6240280     1.1598410     0.0000810
  C        3.1400070     0.6275730    -0.0000460
  C       -3.2332050    -0.0939970     0.0000020
  C       -2.4150150    -1.2251180    -0.0000720
  H        1.6419750     2.2104320    -0.0002120
  H       -0.7317970     2.1947500     0.0001580
  H        1.5416230    -2.1350490     0.0001580
  H        4.1309200     1.0569280    -0.0000720
  H       -3.2210480     2.0687070     0.0001450
  H       -4.3145730    -0.1971740    -0.0000020
  H       -2.8500980    -2.2235110    -0.0001310
units angstrom
no_reorient  #important for SAPT in psi4, default
symmetry c1  #important for SAPT in psi4, default
}

set PROPERTIES_ORIGIN ["COM"]
properties('MP2/aug-cc-pvtz', properties = ['dipole'])
--------------------------------------------------------------------------

    Molecular point group: c1
  Charge       = 0
  Multiplicity = 1
  Basis Set: AUG-CC-PVTZ
    Blend: AUG-CC-PVTZ
  Basis Set: (AUG-CC-PVTZ AUX)
    Blend: AUG-CC-PVTZ-JKFIT

    Orbital Energies [Eh]
    ---------------------

    Doubly Occupied:

       1A    -20.629847     2A    -15.564914     3A    -11.299577
       4A    -11.296136     5A    -11.293745     6A    -11.283862
       7A    -11.269768     8A    -11.249407     9A    -11.239941
      10A    -11.239872    11A    -11.237665    12A     -1.460091
      13A     -1.258439    14A     -1.106158    15A     -1.084171
      16A     -1.032139    17A     -0.997948    18A     -0.872851
      19A     -0.861130    20A     -0.795764    21A     -0.777849
      22A     -0.744563    23A     -0.683876    24A     -0.655837
      25A     -0.640711    26A     -0.636571    27A     -0.606126
      28A     -0.583054    29A     -0.575724    30A     -0.570197
      31A     -0.545182    32A     -0.537441    33A     -0.514808
      34A     -0.428415    35A     -0.415296    36A     -0.382146
      37A     -0.348285    38A     -0.300329

  @DF-RHF Final Energy:  -474.30423927190191

   => Energetics <=

    Nuclear Repulsion Energy =            538.8467985738200241
    One-Electron Energy =               -1712.2624108176348727
    Two-Electron Energy =                 699.1113729719129424
    Total Energy =                       -474.3042392719019062
  Basis Set: (AUG-CC-PVTZ AUX)
    Blend: AUG-CC-PVTZ-RI
    Molecular point group: c1

    Geometry (in Angstrom), charge = 0, multiplicity = 1:

       Center              X                  Y                   Z               Mass
    ------------   -----------------  -----------------  -----------------  -----------------
         O            3.061202941299    -0.717716410588    -0.024758167526    15.994914619570
         N           -1.100138058701    -1.156782410588    -0.024898167526    14.003074004430
         C            0.950239941299     0.063832589412    -0.024833167526    12.000000000000
         C           -0.513988058701     0.063417589412    -0.024822167526    12.000000000000
         C            1.855580941299     1.175867589412    -0.024920167526    12.000000000000
         C           -1.259148558701     1.251356489412     0.275264832474    12.000000000000
         C            1.741166941299    -1.059476410588    -0.024740167526    12.000000000000
         C           -2.649910058701     1.180191589412    -0.024737167526    12.000000000000
         C            3.114124941299     0.647923589412    -0.024864167526    12.000000000000
         C           -3.259087058701    -0.073646410588    -0.024816167526    12.000000000000
         C           -2.440897058701    -1.204767410588    -0.024890167526    12.000000000000
         H            1.616092941299     2.230782589412    -0.025030167526     1.007825032230
         H           -0.757679058701     2.215100589412    -0.024660167526     1.007825032230
         H            1.515740941299    -2.114698410588    -0.024660167526     1.007825032230
         H            4.105037941299     1.077278589412    -0.024890167526     1.007825032230
         H           -3.246930058701     2.089057589412    -0.024673167526     1.007825032230
         H           -4.340455058701    -0.176823410588    -0.024820167526     1.007825032230
         H           -2.875980058701    -2.203160410588    -0.024949167526     1.007825032230

  Basis Set: AUG-CC-PVTZ
    Blend: AUG-CC-PVTZ
  Basis Set: (AUG-CC-PVTZ AUX)
    Blend: AUG-CC-PVTZ-JKFIT
	 Reference Energy          =    -474.3042392719019062 [Eh]
	 Singles Energy            =      -0.0000000000000000 [Eh]
	 Same-Spin Energy          =      -0.5149915869420949 [Eh]
	 Opposite-Spin Energy      =      -1.5594671250425498 [Eh]
	 Correlation Energy        =      -2.0744587119846445 [Eh]
	 Total Energy              =    -476.3786979838865250 [Eh]

	 ================> DF-SCS-MP2 Energies <==================
	-----------------------------------------------------------
	 SCS Same-Spin Scale       =       0.3333333333333333 [-]
	 SCS Opposite-Spin Scale   =       1.2000000000000000 [-]
	 SCS Same-Spin Energy      =      -0.1716638623140316 [Eh]
	 SCS Opposite-Spin Energy  =      -1.8713605500510597 [Eh]
	 SCS Correlation Energy    =      -2.0430244123650914 [Eh]
	 SCS Total Energy          =    -476.3472636842669772 [Eh]
	-----------------------------------------------------------

  Dipole Moment: [D]
     X:    -1.3275      Y:     1.8588      Z:    -0.1041     Total:     2.2865

*** Psi4 exiting successfully. Buy a developer a beer!
