                               Psi4 1.4a2.dev612

  ==> Input File <==

--------------------------------------------------------------------------
#psi4
#
memory 32 gb

molecule  {
0 1
  O        3.0870850    -0.7380670     0.0000600
  N       -1.0742560    -1.1771330    -0.0000800
  C        0.9761220     0.0434820    -0.0000150
  C       -0.4881060     0.0430670    -0.0000040
  C        1.8814630     1.1555170    -0.0001020
  C       -1.2332690     1.2310260     0.0000830
  C        1.7670490    -1.0798270     0.0000780
  C       -2.6240280     1.1598410     0.0000810
  C        3.1400070     0.6275730    -0.0000460
  C       -3.2332050    -0.0939970     0.0000020
  C       -2.4150150    -1.2251180    -0.0000720
  H        1.6419722     2.2104556     0.2497880
  H       -0.7317970     2.1947500     0.0001580
  H        1.5416230    -2.1350490     0.0001580
  H        4.1309200     1.0569280    -0.0000720
  H       -3.2210480     2.0687070     0.0001450
  H       -4.3145730    -0.1971740    -0.0000020
  H       -2.8500980    -2.2235110    -0.0001310
units angstrom
no_reorient  #important for SAPT in psi4, default
symmetry c1  #important for SAPT in psi4, default
}

set PROPERTIES_ORIGIN ["COM"]
properties('MP2/aug-cc-pvtz', properties = ['dipole'])
--------------------------------------------------------------------------

    Molecular point group: c1
  Charge       = 0
  Multiplicity = 1
  Basis Set: AUG-CC-PVTZ
    Blend: AUG-CC-PVTZ
  Basis Set: (AUG-CC-PVTZ AUX)
    Blend: AUG-CC-PVTZ-JKFIT

    Orbital Energies [Eh]
    ---------------------

    Doubly Occupied:

       1A    -20.629256     2A    -15.565661     3A    -11.294597
       4A    -11.294001     5A    -11.292148     6A    -11.279404
       7A    -11.263221     8A    -11.243197     9A    -11.241073
      10A    -11.239940    11A    -11.238841    12A     -1.459511
      13A     -1.258548    14A     -1.105423    15A     -1.088490
      16A     -1.033816    17A     -0.998387    18A     -0.875520
      19A     -0.863196    20A     -0.793551    21A     -0.777819
      22A     -0.743554    23A     -0.687069    24A     -0.662058
      25A     -0.645998    26A     -0.636370    27A     -0.607027
      28A     -0.585696    29A     -0.573914    30A     -0.567828
      31A     -0.548799    32A     -0.538250    33A     -0.520312
      34A     -0.424296    35A     -0.421874    36A     -0.383667
      37A     -0.348734    38A     -0.299200

  @DF-RHF Final Energy:  -474.32733274572206

   => Energetics <=

    Nuclear Repulsion Energy =            539.7662214879092062
    One-Electron Energy =               -1714.1266112558371333
    Two-Electron Energy =                 700.0330570222058668
    Total Energy =                       -474.3273327457220603
  Basis Set: (AUG-CC-PVTZ AUX)
    Blend: AUG-CC-PVTZ-RI
    Molecular point group: c1

    Geometry (in Angstrom), charge = 0, multiplicity = 1:

       Center              X                  Y                   Z               Mass
    ------------   -----------------  -----------------  -----------------  -----------------
         O            3.061203167574    -0.717718237403    -0.001676609801    15.994914619570
         N           -1.100137832426    -1.156784237403    -0.001816609801    14.003074004430
         C            0.950240167574     0.063830762597    -0.001751609801    12.000000000000
         C           -0.513987832426     0.063415762597    -0.001740609801    12.000000000000
         C            1.855581167574     1.175865762597    -0.001838609801    12.000000000000
         C           -1.259150832426     1.251374762597    -0.001653609801    12.000000000000
         C            1.741167167574    -1.059478237403    -0.001658609801    12.000000000000
         C           -2.649909832426     1.180189762597    -0.001655609801    12.000000000000
         C            3.114125167574     0.647921762597    -0.001782609801    12.000000000000
         C           -3.259086832426    -0.073648237403    -0.001734609801    12.000000000000
         C           -2.440896832426    -1.204769237403    -0.001808609801    12.000000000000
         H            1.616090367574     2.230804362597     0.248051390199     1.007825032230
         H           -0.757678832426     2.215098762597    -0.001578609801     1.007825032230
         H            1.515741167574    -2.114700237403    -0.001578609801     1.007825032230
         H            4.105038167574     1.077276762597    -0.001808609801     1.007825032230
         H           -3.246929832426     2.089055762597    -0.001591609801     1.007825032230
         H           -4.340454832426    -0.176825237403    -0.001738609801     1.007825032230
         H           -2.875979832426    -2.203162237403    -0.001867609801     1.007825032230

  Basis Set: AUG-CC-PVTZ
    Blend: AUG-CC-PVTZ
  Basis Set: (AUG-CC-PVTZ AUX)
    Blend: AUG-CC-PVTZ-JKFIT
	 Reference Energy          =    -474.3273327457220603 [Eh]
	 Singles Energy            =      -0.0000000000000000 [Eh]
	 Same-Spin Energy          =      -0.5144093501788232 [Eh]
	 Opposite-Spin Energy      =      -1.5573665995928072 [Eh]
	 Correlation Energy        =      -2.0717759497716304 [Eh]
	 Total Energy              =    -476.3991086954936804 [Eh]

	 ================> DF-SCS-MP2 Energies <==================
	-----------------------------------------------------------
	 SCS Same-Spin Scale       =       0.3333333333333333 [-]
	 SCS Opposite-Spin Scale   =       1.2000000000000000 [-]
	 SCS Same-Spin Energy      =      -0.1714697833929411 [Eh]
	 SCS Opposite-Spin Energy  =      -1.8688399195113685 [Eh]
	 SCS Correlation Energy    =      -2.0403097029043096 [Eh]
	 SCS Total Energy          =    -476.3676424486263841 [Eh]
	-----------------------------------------------------------

  Dipole Moment: [D]
     X:    -1.3278      Y:     1.9810      Z:     0.1867     Total:     2.3921

*** Psi4 exiting successfully. Buy a developer a beer!
