                               Psi4 1.4a2.dev612

  ==> Input File <==

--------------------------------------------------------------------------
#psi4
#
memory 32 gb

molecule  {
0 1
  O        3.0870850    -0.7380670     0.0000600
  N       -1.0742560    -1.1771330    -0.0000800
  C        0.9761220     0.0434820    -0.0000150
  C       -0.4881060     0.0430670    -0.0000040
  C        1.8814630     1.1555170    -0.0001020
  C       -1.2332690     1.2310260     0.0000830
  C        1.7670490    -1.0798270     0.0000780
  C       -2.6240280     1.1598410     0.0000810
  C        3.1400070     0.6275730    -0.0000460
  C       -3.2332050    -0.0939970     0.0000020
  C       -2.4150150    -1.2251180    -0.0000720
  H        1.6419750     2.2104320    -0.0002120
  H       -0.7317970     2.1947500     0.0001580
  H        1.5416230    -2.1350490     0.0001580
  H        4.1309220     1.0569121    -0.2000720
  H       -3.2210480     2.0687070     0.0001450
  H       -4.3145730    -0.1971740    -0.0000020
  H       -2.8500980    -2.2235110    -0.0001310
units angstrom
no_reorient  #important for SAPT in psi4, default
symmetry c1  #important for SAPT in psi4, default
}

set PROPERTIES_ORIGIN ["COM"]
properties('MP2/aug-cc-pvtz', properties = ['dipole'])
--------------------------------------------------------------------------

    Molecular point group: c1
  Charge       = 0
  Multiplicity = 1
  Basis Set: AUG-CC-PVTZ
    Blend: AUG-CC-PVTZ
  Basis Set: (AUG-CC-PVTZ AUX)
    Blend: AUG-CC-PVTZ-JKFIT

    Orbital Energies [Eh]
    ---------------------

    Doubly Occupied:

       1A    -20.628588     2A    -15.565867     3A    -11.294471
       4A    -11.294395     5A    -11.292466     6A    -11.279649
       7A    -11.263521     8A    -11.243567     9A    -11.241269
      10A    -11.239461    11A    -11.237792    12A     -1.458921
      13A     -1.258795    14A     -1.105854    15A     -1.088779
      16A     -1.034006    17A     -0.997722    18A     -0.875632
      19A     -0.863443    20A     -0.795718    21A     -0.776579
      22A     -0.743846    23A     -0.687066    24A     -0.662598
      25A     -0.646495    26A     -0.636766    27A     -0.603707
      28A     -0.585148    29A     -0.575582    30A     -0.571579
      31A     -0.549098    32A     -0.537647    33A     -0.520541
      34A     -0.424834    35A     -0.422173    36A     -0.383986
      37A     -0.348791    38A     -0.299225

  @DF-RHF Final Energy:  -474.32886864254425

   => Energetics <=

    Nuclear Repulsion Energy =            539.8088453364438237
    One-Electron Energy =               -1714.2042674127587816
    Two-Electron Energy =                 700.0665534337706504
    Total Energy =                       -474.3288686425441938
  Basis Set: (AUG-CC-PVTZ AUX)
    Blend: AUG-CC-PVTZ-RI
    Molecular point group: c1

    Geometry (in Angstrom), charge = 0, multiplicity = 1:

       Center              X                  Y                   Z               Mass
    ------------   -----------------  -----------------  -----------------  -----------------
         O            3.061203134224    -0.717717962958     0.001449985326    15.994914619570
         N           -1.100137865776    -1.156783962958     0.001309985326    14.003074004430
         C            0.950240134224     0.063831037042     0.001374985326    12.000000000000
         C           -0.513987865776     0.063416037042     0.001385985326    12.000000000000
         C            1.855581134224     1.175866037042     0.001287985326    12.000000000000
         C           -1.259150865776     1.251375037042     0.001472985326    12.000000000000
         C            1.741167134224    -1.059477962958     0.001467985326    12.000000000000
         C           -2.649909865776     1.180190037042     0.001470985326    12.000000000000
         C            3.114125134224     0.647922037042     0.001343985326    12.000000000000
         C           -3.259086865776    -0.073647962958     0.001391985326    12.000000000000
         C           -2.440896865776    -1.204768962958     0.001317985326    12.000000000000
         H            1.616093134224     2.230781037042     0.001177985326     1.007825032230
         H           -0.757678865776     2.215099037042     0.001547985326     1.007825032230
         H            1.515741134224    -2.114699962958     0.001547985326     1.007825032230
         H            4.105040134224     1.077261137042    -0.198682014674     1.007825032230
         H           -3.246929865776     2.089056037042     0.001534985326     1.007825032230
         H           -4.340454865776    -0.176824962958     0.001387985326     1.007825032230
         H           -2.875979865776    -2.203161962958     0.001258985326     1.007825032230

  Basis Set: AUG-CC-PVTZ
    Blend: AUG-CC-PVTZ
  Basis Set: (AUG-CC-PVTZ AUX)
    Blend: AUG-CC-PVTZ-JKFIT
	 Reference Energy          =    -474.3288686425442506 [Eh]
	 Singles Energy            =      -0.0000000000000000 [Eh]
	 Same-Spin Energy          =      -0.5143521255736144 [Eh]
	 Opposite-Spin Energy      =      -1.5573004254600811 [Eh]
	 Correlation Energy        =      -2.0716525510336954 [Eh]
	 Total Energy              =    -476.4005211935779585 [Eh]

	 ================> DF-SCS-MP2 Energies <==================
	-----------------------------------------------------------
	 SCS Same-Spin Scale       =       0.3333333333333333 [-]
	 SCS Opposite-Spin Scale   =       1.2000000000000000 [-]
	 SCS Same-Spin Energy      =      -0.1714507085245381 [Eh]
	 SCS Opposite-Spin Energy  =      -1.8687605105520972 [Eh]
	 SCS Correlation Energy    =      -2.0402112190766353 [Eh]
	 SCS Total Energy          =    -476.3690798616208895 [Eh]
	-----------------------------------------------------------

  Dipole Moment: [D]
     X:    -1.3874      Y:     2.0084      Z:    -0.1717     Total:     2.4471

*** Psi4 exiting successfully. Buy a developer a beer!
