                               Psi4 1.4a2.dev612

  ==> Input File <==

--------------------------------------------------------------------------
#psi4
#
memory 32 gb

molecule  {
0 1
  O        3.0870850    -0.7380670     0.0000600
  N       -1.0742560    -1.1771330    -0.0000800
  C        0.9761220     0.0434820    -0.0000150
  C       -0.4881060     0.0430670    -0.0000040
  C        1.8814630     1.1555170    -0.0001020
  C       -1.2332690     1.2310260     0.0000830
  C        1.7670490    -1.0798270     0.0000780
  C       -2.6240280     1.1598410     0.0000810
  C        3.1400070     0.6275730    -0.0000460
  C       -3.2332050    -0.0939970     0.0000020
  C       -2.4150150    -1.2251180    -0.0000720
  H        1.6419750     2.2104320    -0.0002120
  H       -0.7317970     2.1947500     0.0001580
  H        1.5416230    -2.1350490     0.0001580
  H        4.1309200     1.0569280    -0.0000720
  H       -3.2210480     2.0687070     0.0001450
  H       -4.3145730    -0.1971740    -0.0000020
  H       -2.8500965    -2.2235232     0.1998690
units angstrom
no_reorient  #important for SAPT in psi4, default
symmetry c1  #important for SAPT in psi4, default
}

set PROPERTIES_ORIGIN ["COM"]
properties('MP2/aug-cc-pvtz', properties = ['dipole'])
--------------------------------------------------------------------------

    Molecular point group: c1
  Charge       = 0
  Multiplicity = 1
  Basis Set: AUG-CC-PVTZ
    Blend: AUG-CC-PVTZ
  Basis Set: (AUG-CC-PVTZ AUX)
    Blend: AUG-CC-PVTZ-JKFIT

    Orbital Energies [Eh]
    ---------------------

    Doubly Occupied:

       1A    -20.628739     2A    -15.565977     3A    -11.293919
       4A    -11.293433     5A    -11.292502     6A    -11.281246
       7A    -11.263523     8A    -11.243697     9A    -11.241429
      10A    -11.239261    11A    -11.237360    12A     -1.458974
      13A     -1.258781    14A     -1.105600    15A     -1.088828
      16A     -1.033817    17A     -0.998234    18A     -0.875687
      19A     -0.862460    20A     -0.795695    21A     -0.777707
      22A     -0.744516    23A     -0.686981    24A     -0.662631
      25A     -0.644713    26A     -0.635760    27A     -0.606652
      28A     -0.585312    29A     -0.575367    30A     -0.572001
      31A     -0.549068    32A     -0.538194    33A     -0.518972
      34A     -0.426157    35A     -0.420531    36A     -0.383758
      37A     -0.348589    38A     -0.299101

  @DF-RHF Final Energy:  -474.32832043215740

   => Energetics <=

    Nuclear Repulsion Energy =            539.8089513526279006
    One-Electron Energy =               -1714.2041964898846800
    Two-Electron Energy =                 700.0669247050993818
    Total Energy =                       -474.3283204321573976
  Basis Set: (AUG-CC-PVTZ AUX)
    Blend: AUG-CC-PVTZ-RI
    Molecular point group: c1

    Geometry (in Angstrom), charge = 0, multiplicity = 1:

       Center              X                  Y                   Z               Mass
    ------------   -----------------  -----------------  -----------------  -----------------
         O            3.061203137698    -0.717717988665    -0.001329210342    15.994914619570
         N           -1.100137862302    -1.156783988665    -0.001469210342    14.003074004430
         C            0.950240137698     0.063831011335    -0.001404210342    12.000000000000
         C           -0.513987862302     0.063416011335    -0.001393210342    12.000000000000
         C            1.855581137698     1.175866011335    -0.001491210342    12.000000000000
         C           -1.259150862302     1.251375011335    -0.001306210342    12.000000000000
         C            1.741167137698    -1.059477988665    -0.001311210342    12.000000000000
         C           -2.649909862302     1.180190011335    -0.001308210342    12.000000000000
         C            3.114125137698     0.647922011335    -0.001435210342    12.000000000000
         C           -3.259086862302    -0.073647988665    -0.001387210342    12.000000000000
         C           -2.440896862302    -1.204768988665    -0.001461210342    12.000000000000
         H            1.616093137698     2.230781011335    -0.001601210342     1.007825032230
         H           -0.757678862302     2.215099011335    -0.001231210342     1.007825032230
         H            1.515741137698    -2.114699988665    -0.001231210342     1.007825032230
         H            4.105038137698     1.077277011335    -0.001461210342     1.007825032230
         H           -3.246929862302     2.089056011335    -0.001244210342     1.007825032230
         H           -4.340454862302    -0.176824988665    -0.001391210342     1.007825032230
         H           -2.875978362302    -2.203174188665     0.198479789658     1.007825032230

  Basis Set: AUG-CC-PVTZ
    Blend: AUG-CC-PVTZ
  Basis Set: (AUG-CC-PVTZ AUX)
    Blend: AUG-CC-PVTZ-JKFIT
	 Reference Energy          =    -474.3283204321573976 [Eh]
	 Singles Energy            =      -0.0000000000000000 [Eh]
	 Same-Spin Energy          =      -0.5143714980159428 [Eh]
	 Opposite-Spin Energy      =      -1.5572849322249278 [Eh]
	 Correlation Energy        =      -2.0716564302408704 [Eh]
	 Total Energy              =    -476.3999768623982618 [Eh]

	 ================> DF-SCS-MP2 Energies <==================
	-----------------------------------------------------------
	 SCS Same-Spin Scale       =       0.3333333333333333 [-]
	 SCS Opposite-Spin Scale   =       1.2000000000000000 [-]
	 SCS Same-Spin Energy      =      -0.1714571660053143 [Eh]
	 SCS Opposite-Spin Energy  =      -1.8687419186699132 [Eh]
	 SCS Correlation Energy    =      -2.0401990846752276 [Eh]
	 SCS Total Energy          =    -476.3685195168326345 [Eh]
	-----------------------------------------------------------

  Dipole Moment: [D]
     X:    -1.3230      Y:     2.0495      Z:     0.1024     Total:     2.4416

*** Psi4 exiting successfully. Buy a developer a beer!
