                               Psi4 1.4a2.dev612

  ==> Input File <==

--------------------------------------------------------------------------
#psi4
#
memory 32 gb

molecule  {
0 1
  O        3.0870850    -0.7380670     0.0000600
  N       -1.0742560    -1.1771330    -0.0000800
  C        0.9761220     0.0434820    -0.0000150
  C       -0.4881060     0.0430670    -0.0000040
  C        1.8814630     1.1555170    -0.0001020
  C       -1.2332690     1.2310260     0.0000830
  C        1.7670481    -1.0798471    -0.2499220
  C       -2.6240280     1.1598410     0.0000810
  C        3.1400070     0.6275730    -0.0000460
  C       -3.2332050    -0.0939970     0.0000020
  C       -2.4150150    -1.2251180    -0.0000720
  H        1.6419750     2.2104320    -0.0002120
  H       -0.7317970     2.1947500     0.0001580
  H        1.5416230    -2.1350490     0.0001580
  H        4.1309200     1.0569280    -0.0000720
  H       -3.2210480     2.0687070     0.0001450
  H       -4.3145730    -0.1971740    -0.0000020
  H       -2.8500980    -2.2235110    -0.0001310
units angstrom
no_reorient  #important for SAPT in psi4, default
symmetry c1  #important for SAPT in psi4, default
}

set PROPERTIES_ORIGIN ["COM"]
properties('MP2/aug-cc-pvtz', properties = ['dipole'])
--------------------------------------------------------------------------

    Molecular point group: c1
  Charge       = 0
  Multiplicity = 1
  Basis Set: AUG-CC-PVTZ
    Blend: AUG-CC-PVTZ
  Basis Set: (AUG-CC-PVTZ AUX)
    Blend: AUG-CC-PVTZ-JKFIT

    Orbital Energies [Eh]
    ---------------------

    Doubly Occupied:

       1A    -20.624513     2A    -15.567796     3A    -11.296978
       4A    -11.293084     5A    -11.292697     6A    -11.280654
       7A    -11.264686     8A    -11.247188     9A    -11.245890
      10A    -11.243639    11A    -11.237666    12A     -1.448722
      13A     -1.260160    14A     -1.104417    15A     -1.090369
      16A     -1.034576    17A     -0.993876    18A     -0.876159
      19A     -0.864399    20A     -0.790659    21A     -0.775993
      22A     -0.740071    23A     -0.687271    24A     -0.664025
      25A     -0.645879    26A     -0.632686    27A     -0.597958
      28A     -0.585176    29A     -0.574556    30A     -0.566859
      31A     -0.551210    32A     -0.531383    33A     -0.522376
      34A     -0.424913    35A     -0.420119    36A     -0.384825
      37A     -0.348965    38A     -0.300679

  @DF-RHF Final Energy:  -474.31157826899266

   => Energetics <=

    Nuclear Repulsion Energy =            539.0608003311124321
    One-Electron Energy =               -1712.7186129056240134
    Two-Electron Energy =                 699.3462343055189194
    Total Energy =                       -474.3115782689926618
  Basis Set: (AUG-CC-PVTZ AUX)
    Blend: AUG-CC-PVTZ-RI
    Molecular point group: c1

    Geometry (in Angstrom), charge = 0, multiplicity = 1:

       Center              X                  Y                   Z               Mass
    ------------   -----------------  -----------------  -----------------  -----------------
         O            3.061203222576    -0.717716410588     0.020742516673    15.994914619570
         N           -1.100137777424    -1.156782410588     0.020602516673    14.003074004430
         C            0.950240222576     0.063832589412     0.020667516673    12.000000000000
         C           -0.513987777424     0.063417589412     0.020678516673    12.000000000000
         C            1.855581222576     1.175867589412     0.020580516673    12.000000000000
         C           -1.259150777424     1.251376589412     0.020765516673    12.000000000000
         C            1.741166322576    -1.059496510588    -0.229239483327    12.000000000000
         C           -2.649909777424     1.180191589412     0.020763516673    12.000000000000
         C            3.114125222576     0.647923589412     0.020636516673    12.000000000000
         C           -3.259086777424    -0.073646410588     0.020684516673    12.000000000000
         C           -2.440896777424    -1.204767410588     0.020610516673    12.000000000000
         H            1.616093222576     2.230782589412     0.020470516673     1.007825032230
         H           -0.757678777424     2.215100589412     0.020840516673     1.007825032230
         H            1.515741222576    -2.114698410588     0.020840516673     1.007825032230
         H            4.105038222576     1.077278589412     0.020610516673     1.007825032230
         H           -3.246929777424     2.089057589412     0.020827516673     1.007825032230
         H           -4.340454777424    -0.176823410588     0.020680516673     1.007825032230
         H           -2.875979777424    -2.203160410588     0.020551516673     1.007825032230

  Basis Set: AUG-CC-PVTZ
    Blend: AUG-CC-PVTZ
  Basis Set: (AUG-CC-PVTZ AUX)
    Blend: AUG-CC-PVTZ-JKFIT
	 Reference Energy          =    -474.3115782689926618 [Eh]
	 Singles Energy            =      -0.0000000000000000 [Eh]
	 Same-Spin Energy          =      -0.5156832086548552 [Eh]
	 Opposite-Spin Energy      =      -1.5605907126321128 [Eh]
	 Correlation Energy        =      -2.0762739212869681 [Eh]
	 Total Energy              =    -476.3878521902796024 [Eh]

	 ================> DF-SCS-MP2 Energies <==================
	-----------------------------------------------------------
	 SCS Same-Spin Scale       =       0.3333333333333333 [-]
	 SCS Opposite-Spin Scale   =       1.2000000000000000 [-]
	 SCS Same-Spin Energy      =      -0.1718944028849517 [Eh]
	 SCS Opposite-Spin Energy  =      -1.8727088551585354 [Eh]
	 SCS Correlation Energy    =      -2.0446032580434870 [Eh]
	 SCS Total Energy          =    -476.3561815270361421 [Eh]
	-----------------------------------------------------------

  Dipole Moment: [D]
     X:    -1.4804      Y:     2.2079      Z:     0.0915     Total:     2.6599

*** Psi4 exiting successfully. Buy a developer a beer!
