                               Psi4 1.4a2.dev612

  ==> Input File <==

--------------------------------------------------------------------------
#psi4
#
memory 32 gb

molecule  {
0 1
  O        3.0870850    -0.7380670     0.0000600
  N       -1.0742560    -1.1771330    -0.0000800
  C        0.9761220     0.0434820    -0.0000150
  C       -0.4881060     0.0430670    -0.0000040
  C        1.8814630     1.1555170    -0.0001020
  C       -1.2332690     1.2310260     0.0000830
  C        1.7670490    -1.0798270     0.0000780
  C       -2.6240280     1.1598410     0.0000810
  C        3.1400070     0.6275730    -0.0000460
  C       -3.2332050    -0.0939970     0.0000020
  C       -2.4150150    -1.2251180    -0.0000720
  H        1.6419733     2.2104462     0.1497880
  H       -0.7317970     2.1947500     0.0001580
  H        1.5416230    -2.1350490     0.0001580
  H        4.1309200     1.0569280    -0.0000720
  H       -3.2210480     2.0687070     0.0001450
  H       -4.3145730    -0.1971740    -0.0000020
  H       -2.8500980    -2.2235110    -0.0001310
units angstrom
no_reorient  #important for SAPT in psi4, default
symmetry c1  #important for SAPT in psi4, default
}

set PROPERTIES_ORIGIN ["COM"]
properties('MP2/aug-cc-pvtz', properties = ['dipole'])
--------------------------------------------------------------------------

    Molecular point group: c1
  Charge       = 0
  Multiplicity = 1
  Basis Set: AUG-CC-PVTZ
    Blend: AUG-CC-PVTZ
  Basis Set: (AUG-CC-PVTZ AUX)
    Blend: AUG-CC-PVTZ-JKFIT

    Orbital Energies [Eh]
    ---------------------

    Doubly Occupied:

       1A    -20.628872     2A    -15.565680     3A    -11.293893
       4A    -11.293799     5A    -11.292235     6A    -11.279463
       7A    -11.263317     8A    -11.243327     9A    -11.241104
      10A    -11.239282    11A    -11.237997    12A     -1.459116
      13A     -1.258592    14A     -1.105504    15A     -1.088573
      16A     -1.033918    17A     -0.998274    18A     -0.875535
      19A     -0.863334    20A     -0.795091    21A     -0.777721
      22A     -0.744450    23A     -0.687169    24A     -0.662346
      25A     -0.646212    26A     -0.635941    27A     -0.606979
      28A     -0.585667    29A     -0.574508    30A     -0.570729
      31A     -0.548885    32A     -0.538153    33A     -0.520463
      34A     -0.424520    35A     -0.421954    36A     -0.383778
      37A     -0.348741    38A     -0.299090

  @DF-RHF Final Energy:  -474.32984271210944

   => Energetics <=

    Nuclear Repulsion Energy =            539.8379215445254431
    One-Electron Energy =               -1714.2670985459105850
    Two-Electron Energy =                 700.0993342892757028
    Total Energy =                       -474.3298427121094392
  Basis Set: (AUG-CC-PVTZ AUX)
    Blend: AUG-CC-PVTZ-RI
    Molecular point group: c1

    Geometry (in Angstrom), charge = 0, multiplicity = 1:

       Center              X                  Y                   Z               Mass
    ------------   -----------------  -----------------  -----------------  -----------------
         O            3.061203159932    -0.717718172092    -0.000981810884    15.994914619570
         N           -1.100137840068    -1.156784172092    -0.001121810884    14.003074004430
         C            0.950240159932     0.063830827908    -0.001056810884    12.000000000000
         C           -0.513987840068     0.063415827908    -0.001045810884    12.000000000000
         C            1.855581159932     1.175865827908    -0.001143810884    12.000000000000
         C           -1.259150840068     1.251374827908    -0.000958810884    12.000000000000
         C            1.741167159932    -1.059478172092    -0.000963810884    12.000000000000
         C           -2.649909840068     1.180189827908    -0.000960810884    12.000000000000
         C            3.114125159932     0.647921827908    -0.001087810884    12.000000000000
         C           -3.259086840068    -0.073648172092    -0.001039810884    12.000000000000
         C           -2.440896840068    -1.204769172092    -0.001113810884    12.000000000000
         H            1.616091459932     2.230795027908     0.148746189116     1.007825032230
         H           -0.757678840068     2.215098827908    -0.000883810884     1.007825032230
         H            1.515741159932    -2.114700172092    -0.000883810884     1.007825032230
         H            4.105038159932     1.077276827908    -0.001113810884     1.007825032230
         H           -3.246929840068     2.089055827908    -0.000896810884     1.007825032230
         H           -4.340454840068    -0.176825172092    -0.001043810884     1.007825032230
         H           -2.875979840068    -2.203162172092    -0.001172810884     1.007825032230

  Basis Set: AUG-CC-PVTZ
    Blend: AUG-CC-PVTZ
  Basis Set: (AUG-CC-PVTZ AUX)
    Blend: AUG-CC-PVTZ-JKFIT
	 Reference Energy          =    -474.3298427121094392 [Eh]
	 Singles Energy            =      -0.0000000000000000 [Eh]
	 Same-Spin Energy          =      -0.5142769709996265 [Eh]
	 Opposite-Spin Energy      =      -1.5570758178535931 [Eh]
	 Correlation Energy        =      -2.0713527888532197 [Eh]
	 Total Energy              =    -476.4011955009626718 [Eh]

	 ================> DF-SCS-MP2 Energies <==================
	-----------------------------------------------------------
	 SCS Same-Spin Scale       =       0.3333333333333333 [-]
	 SCS Opposite-Spin Scale   =       1.2000000000000000 [-]
	 SCS Same-Spin Energy      =      -0.1714256569998755 [Eh]
	 SCS Opposite-Spin Energy  =      -1.8684909814243116 [Eh]
	 SCS Correlation Energy    =      -2.0399166384241871 [Eh]
	 SCS Total Energy          =    -476.3697593505336272 [Eh]
	-----------------------------------------------------------

  Dipole Moment: [D]
     X:    -1.3380      Y:     2.0069      Z:     0.1132     Total:     2.4146

*** Psi4 exiting successfully. Buy a developer a beer!
