                               Psi4 1.4a2.dev612

  ==> Input File <==

--------------------------------------------------------------------------
#psi4
#
memory 32 gb

molecule  {
0 1
  O        3.0870850    -0.7380670     0.0000600
  N       -1.0742560    -1.1771330    -0.0000800
  C        0.9761220     0.0434820    -0.0000150
  C       -0.4881060     0.0430670    -0.0000040
  C        1.8814630     1.1555170    -0.0001020
  C       -1.2332690     1.2310260     0.0000830
  C        1.7670479    -1.0798511    -0.2999220
  C       -2.6240280     1.1598410     0.0000810
  C        3.1400070     0.6275730    -0.0000460
  C       -3.2332050    -0.0939970     0.0000020
  C       -2.4150150    -1.2251180    -0.0000720
  H        1.6419750     2.2104320    -0.0002120
  H       -0.7317970     2.1947500     0.0001580
  H        1.5416230    -2.1350490     0.0001580
  H        4.1309200     1.0569280    -0.0000720
  H       -3.2210480     2.0687070     0.0001450
  H       -4.3145730    -0.1971740    -0.0000020
  H       -2.8500980    -2.2235110    -0.0001310
units angstrom
no_reorient  #important for SAPT in psi4, default
symmetry c1  #important for SAPT in psi4, default
}

set PROPERTIES_ORIGIN ["COM"]
properties('MP2/aug-cc-pvtz', properties = ['dipole'])
--------------------------------------------------------------------------

    Molecular point group: c1
  Charge       = 0
  Multiplicity = 1
  Basis Set: AUG-CC-PVTZ
    Blend: AUG-CC-PVTZ
  Basis Set: (AUG-CC-PVTZ AUX)
    Blend: AUG-CC-PVTZ-JKFIT

    Orbital Energies [Eh]
    ---------------------

    Doubly Occupied:

       1A    -20.622654     2A    -15.568743     3A    -11.298649
       4A    -11.293460     5A    -11.292090     6A    -11.281177
       7A    -11.265278     8A    -11.250649     9A    -11.247004
      10A    -11.244763    11A    -11.237855    12A     -1.444486
      13A     -1.260859    14A     -1.104048    15A     -1.091153
      16A     -1.034922    17A     -0.991980    18A     -0.876436
      19A     -0.864885    20A     -0.788557    21A     -0.775571
      22A     -0.738176    23A     -0.687409    24A     -0.664708
      25A     -0.645707    26A     -0.631009    27A     -0.595686
      28A     -0.584931    29A     -0.574902    30A     -0.562943
      31A     -0.551841    32A     -0.528569    33A     -0.523180
      34A     -0.425394    35A     -0.419024    36A     -0.385265
      37A     -0.349074    38A     -0.301501

  @DF-RHF Final Energy:  -474.30305680300057

   => Energetics <=

    Nuclear Repulsion Energy =            538.7114827519633309
    One-Electron Energy =               -1712.0200100699951236
    Two-Electron Energy =                 699.0054705150312202
    Total Energy =                       -474.3030568030005725
  Basis Set: (AUG-CC-PVTZ AUX)
    Blend: AUG-CC-PVTZ-RI
    Molecular point group: c1

    Geometry (in Angstrom), charge = 0, multiplicity = 1:

       Center              X                  Y                   Z               Mass
    ------------   -----------------  -----------------  -----------------  -----------------
         O            3.061203239121    -0.717716079674     0.024878942509    15.994914619570
         N           -1.100137760879    -1.156782079674     0.024738942509    14.003074004430
         C            0.950240239121     0.063832920326     0.024803942509    12.000000000000
         C           -0.513987760879     0.063417920326     0.024814942509    12.000000000000
         C            1.855581239121     1.175867920326     0.024716942509    12.000000000000
         C           -1.259150760879     1.251376920326     0.024901942509    12.000000000000
         C            1.741166139121    -1.059500179674    -0.275103057491    12.000000000000
         C           -2.649909760879     1.180191920326     0.024899942509    12.000000000000
         C            3.114125239121     0.647923920326     0.024772942509    12.000000000000
         C           -3.259086760879    -0.073646079674     0.024820942509    12.000000000000
         C           -2.440896760879    -1.204767079674     0.024746942509    12.000000000000
         H            1.616093239121     2.230782920326     0.024606942509     1.007825032230
         H           -0.757678760879     2.215100920326     0.024976942509     1.007825032230
         H            1.515741239121    -2.114698079674     0.024976942509     1.007825032230
         H            4.105038239121     1.077278920326     0.024746942509     1.007825032230
         H           -3.246929760879     2.089057920326     0.024963942509     1.007825032230
         H           -4.340454760879    -0.176823079674     0.024816942509     1.007825032230
         H           -2.875979760879    -2.203160079674     0.024687942509     1.007825032230

  Basis Set: AUG-CC-PVTZ
    Blend: AUG-CC-PVTZ
  Basis Set: (AUG-CC-PVTZ AUX)
    Blend: AUG-CC-PVTZ-JKFIT
	 Reference Energy          =    -474.3030568030005725 [Eh]
	 Singles Energy            =      -0.0000000000000000 [Eh]
	 Same-Spin Energy          =      -0.5162550885347492 [Eh]
	 Opposite-Spin Energy      =      -1.5621055570035218 [Eh]
	 Correlation Energy        =      -2.0783606455382708 [Eh]
	 Total Energy              =    -476.3814174485388548 [Eh]

	 ================> DF-SCS-MP2 Energies <==================
	-----------------------------------------------------------
	 SCS Same-Spin Scale       =       0.3333333333333333 [-]
	 SCS Opposite-Spin Scale   =       1.2000000000000000 [-]
	 SCS Same-Spin Energy      =      -0.1720850295115831 [Eh]
	 SCS Opposite-Spin Energy  =      -1.8745266684042261 [Eh]
	 SCS Correlation Energy    =      -2.0466116979158091 [Eh]
	 SCS Total Energy          =    -476.3496685009163798 [Eh]
	-----------------------------------------------------------

  Dipole Moment: [D]
     X:    -1.5327      Y:     2.2797      Z:     0.1150     Total:     2.7495

*** Psi4 exiting successfully. Buy a developer a beer!
