                               Psi4 1.4a2.dev612

  ==> Input File <==

--------------------------------------------------------------------------
#psi4
#
memory 32 gb

molecule  {
0 1
  O        3.0870850    -0.7380670     0.0000600
  N       -1.0742560    -1.1771330    -0.0000800
  C        0.9761220     0.0434820    -0.0000150
  C       -0.4881060     0.0430670    -0.0000040
  C        1.8814630     1.1555170    -0.0001020
  C       -1.2332690     1.2310260     0.0000830
  C        1.7670490    -1.0798270     0.0000780
  C       -2.6240280     1.1598410     0.0000810
  C        3.1400070     0.6275730    -0.0000460
  C       -3.2332050    -0.0939970     0.0000020
  C       -2.4150150    -1.2251180    -0.0000720
  H        1.6419750     2.2104320    -0.0002120
  H       -0.7317970     2.1947500     0.0001580
  H        1.5416230    -2.1350490     0.0001580
  H        4.1309200     1.0569280    -0.0000720
  H       -3.2210480     2.0687070     0.0001450
  H       -4.3145730    -0.1971740    -0.0000020
  H       -2.8500969    -2.2235202     0.1498690
units angstrom
no_reorient  #important for SAPT in psi4, default
symmetry c1  #important for SAPT in psi4, default
}

set PROPERTIES_ORIGIN ["COM"]
properties('MP2/aug-cc-pvtz', properties = ['dipole'])
--------------------------------------------------------------------------

    Molecular point group: c1
  Charge       = 0
  Multiplicity = 1
  Basis Set: AUG-CC-PVTZ
    Blend: AUG-CC-PVTZ
  Basis Set: (AUG-CC-PVTZ AUX)
    Blend: AUG-CC-PVTZ-JKFIT

    Orbital Energies [Eh]
    ---------------------

    Doubly Occupied:

       1A    -20.628702     2A    -15.565853     3A    -11.293880
       4A    -11.293397     5A    -11.292408     6A    -11.280487
       7A    -11.263457     8A    -11.243569     9A    -11.241295
      10A    -11.239216    11A    -11.237320    12A     -1.458938
      13A     -1.258710    14A     -1.105581    15A     -1.088738
      16A     -1.033886    17A     -0.998225    18A     -0.875625
      19A     -0.862866    20A     -0.795848    21A     -0.777690
      22A     -0.744707    23A     -0.687083    24A     -0.662580
      25A     -0.645414    26A     -0.635727    27A     -0.606794
      28A     -0.585463    29A     -0.575359    30A     -0.571946
      31A     -0.549007    32A     -0.538150    33A     -0.519663
      34A     -0.425627    35A     -0.421047    36A     -0.383795
      37A     -0.348658    38A     -0.299070

  @DF-RHF Final Energy:  -474.32957879925812

   => Energetics <=

    Nuclear Repulsion Energy =            539.8394534296947995
    One-Electron Energy =               -1714.2664988407709643
    Two-Electron Energy =                 700.0974666118179357
    Total Energy =                       -474.3295787992581154
  Basis Set: (AUG-CC-PVTZ AUX)
    Blend: AUG-CC-PVTZ-RI
    Molecular point group: c1

    Geometry (in Angstrom), charge = 0, multiplicity = 1:

       Center              X                  Y                   Z               Mass
    ------------   -----------------  -----------------  -----------------  -----------------
         O            3.061203140477    -0.717718009509    -0.000981810884    15.994914619570
         N           -1.100137859523    -1.156784009509    -0.001121810884    14.003074004430
         C            0.950240140477     0.063830990491    -0.001056810884    12.000000000000
         C           -0.513987859523     0.063415990491    -0.001045810884    12.000000000000
         C            1.855581140477     1.175865990491    -0.001143810884    12.000000000000
         C           -1.259150859523     1.251374990491    -0.000958810884    12.000000000000
         C            1.741167140477    -1.059478009509    -0.000963810884    12.000000000000
         C           -2.649909859523     1.180189990491    -0.000960810884    12.000000000000
         C            3.114125140477     0.647921990491    -0.001087810884    12.000000000000
         C           -3.259086859523    -0.073648009509    -0.001039810884    12.000000000000
         C           -2.440896859523    -1.204769009509    -0.001113810884    12.000000000000
         H            1.616093140477     2.230780990491    -0.001253810884     1.007825032230
         H           -0.757678859523     2.215098990491    -0.000883810884     1.007825032230
         H            1.515741140477    -2.114700009509    -0.000883810884     1.007825032230
         H            4.105038140477     1.077276990491    -0.001113810884     1.007825032230
         H           -3.246929859523     2.089055990491    -0.000896810884     1.007825032230
         H           -4.340454859523    -0.176825009509    -0.001043810884     1.007825032230
         H           -2.875978759523    -2.203171209509     0.148827189116     1.007825032230

  Basis Set: AUG-CC-PVTZ
    Blend: AUG-CC-PVTZ
  Basis Set: (AUG-CC-PVTZ AUX)
    Blend: AUG-CC-PVTZ-JKFIT
	 Reference Energy          =    -474.3295787992581154 [Eh]
	 Singles Energy            =      -0.0000000000000000 [Eh]
	 Same-Spin Energy          =      -0.5142965949073813 [Eh]
	 Opposite-Spin Energy      =      -1.5571273794004203 [Eh]
	 Correlation Energy        =      -2.0714239743078018 [Eh]
	 Total Energy              =    -476.4010027735658923 [Eh]

	 ================> DF-SCS-MP2 Energies <==================
	-----------------------------------------------------------
	 SCS Same-Spin Scale       =       0.3333333333333333 [-]
	 SCS Opposite-Spin Scale   =       1.2000000000000000 [-]
	 SCS Same-Spin Energy      =      -0.1714321983024604 [Eh]
	 SCS Opposite-Spin Energy  =      -1.8685528552805044 [Eh]
	 SCS Correlation Energy    =      -2.0399850535829649 [Eh]
	 SCS Total Energy          =    -476.3695638528410541 [Eh]
	-----------------------------------------------------------

  Dipole Moment: [D]
     X:    -1.3321      Y:     2.0375      Z:     0.0773     Total:     2.4355

*** Psi4 exiting successfully. Buy a developer a beer!
