                               Psi4 1.4a2.dev612

  ==> Input File <==

--------------------------------------------------------------------------
#psi4
#
memory 32 gb

molecule  {
0 1
  O        3.0870850    -0.7380670     0.0000600
  N       -1.0742560    -1.1771330    -0.0000800
  C        0.9761220     0.0434820    -0.0000150
  C       -0.4881060     0.0430670    -0.0000040
  C        1.8814630     1.1555170    -0.0001020
  C       -1.2332690     1.2310260     0.0000830
  C        1.7670490    -1.0798270     0.0000780
  C       -2.6240280     1.1598410     0.0000810
  C        3.1400070     0.6275730    -0.0000460
  C       -3.2332050    -0.0939970     0.0000020
  C       -2.4150150    -1.2251180    -0.0000720
  H        1.6419750     2.2104320    -0.0002120
  H       -0.7317970     2.1947500     0.0001580
  H        1.5416230    -2.1350490     0.0001580
  H        4.1309215     1.0569161    -0.1500720
  H       -3.2210480     2.0687070     0.0001450
  H       -4.3145730    -0.1971740    -0.0000020
  H       -2.8500980    -2.2235110    -0.0001310
units angstrom
no_reorient  #important for SAPT in psi4, default
symmetry c1  #important for SAPT in psi4, default
}

set PROPERTIES_ORIGIN ["COM"]
properties('MP2/aug-cc-pvtz', properties = ['dipole'])
--------------------------------------------------------------------------

    Molecular point group: c1
  Charge       = 0
  Multiplicity = 1
  Basis Set: AUG-CC-PVTZ
    Blend: AUG-CC-PVTZ
  Basis Set: (AUG-CC-PVTZ AUX)
    Blend: AUG-CC-PVTZ-JKFIT

    Orbital Energies [Eh]
    ---------------------

    Doubly Occupied:

       1A    -20.628615     2A    -15.565792     3A    -11.294156
       4A    -11.293977     5A    -11.292388     6A    -11.279583
       7A    -11.263457     8A    -11.243496     9A    -11.241206
      10A    -11.239328    11A    -11.237566    12A     -1.458907
      13A     -1.258719    14A     -1.105725    15A     -1.088712
      16A     -1.033994    17A     -0.997931    18A     -0.875594
      19A     -0.863431    20A     -0.795850    21A     -0.777040
      22A     -0.744336    23A     -0.687138    24A     -0.662564
      25A     -0.646426    26A     -0.636331    27A     -0.605058
      28A     -0.585384    29A     -0.575478    30A     -0.571721
      31A     -0.549025    32A     -0.537853    33A     -0.520548
      34A     -0.424756    35A     -0.422097    36A     -0.383925
      37A     -0.348772    38A     -0.299140

  @DF-RHF Final Energy:  -474.32989431059957

   => Energetics <=

    Nuclear Repulsion Energy =            539.8393817906074901
    One-Electron Energy =               -1714.2665156006414691
    Two-Electron Energy =                 700.0972394994342949
    Total Energy =                       -474.3298943105995704
  Basis Set: (AUG-CC-PVTZ AUX)
    Blend: AUG-CC-PVTZ-RI
    Molecular point group: c1

    Geometry (in Angstrom), charge = 0, multiplicity = 1:

       Center              X                  Y                   Z               Mass
    ------------   -----------------  -----------------  -----------------  -----------------
         O            3.061203137698    -0.717717990750     0.001102585867    15.994914619570
         N           -1.100137862302    -1.156783990750     0.000962585867    14.003074004430
         C            0.950240137698     0.063831009250     0.001027585867    12.000000000000
         C           -0.513987862302     0.063416009250     0.001038585867    12.000000000000
         C            1.855581137698     1.175866009250     0.000940585867    12.000000000000
         C           -1.259150862302     1.251375009250     0.001125585867    12.000000000000
         C            1.741167137698    -1.059477990750     0.001120585867    12.000000000000
         C           -2.649909862302     1.180190009250     0.001123585867    12.000000000000
         C            3.114125137698     0.647922009250     0.000996585867    12.000000000000
         C           -3.259086862302    -0.073647990750     0.001044585867    12.000000000000
         C           -2.440896862302    -1.204768990750     0.000970585867    12.000000000000
         H            1.616093137698     2.230781009250     0.000830585867     1.007825032230
         H           -0.757678862302     2.215099009250     0.001200585867     1.007825032230
         H            1.515741137698    -2.114699990750     0.001200585867     1.007825032230
         H            4.105039637698     1.077265109250    -0.149029414133     1.007825032230
         H           -3.246929862302     2.089056009250     0.001187585867     1.007825032230
         H           -4.340454862302    -0.176824990750     0.001040585867     1.007825032230
         H           -2.875979862302    -2.203161990750     0.000911585867     1.007825032230

  Basis Set: AUG-CC-PVTZ
    Blend: AUG-CC-PVTZ
  Basis Set: (AUG-CC-PVTZ AUX)
    Blend: AUG-CC-PVTZ-JKFIT
	 Reference Energy          =    -474.3298943105995704 [Eh]
	 Singles Energy            =      -0.0000000000000000 [Eh]
	 Same-Spin Energy          =      -0.5142863970516580 [Eh]
	 Opposite-Spin Energy      =      -1.5571441676996229 [Eh]
	 Correlation Energy        =      -2.0714305647512807 [Eh]
	 Total Energy              =    -476.4013248753508378 [Eh]

	 ================> DF-SCS-MP2 Energies <==================
	-----------------------------------------------------------
	 SCS Same-Spin Scale       =       0.3333333333333333 [-]
	 SCS Opposite-Spin Scale   =       1.2000000000000000 [-]
	 SCS Same-Spin Energy      =      -0.1714287990172193 [Eh]
	 SCS Opposite-Spin Energy  =      -1.8685730012395474 [Eh]
	 SCS Correlation Energy    =      -2.0400018002567668 [Eh]
	 SCS Total Energy          =    -476.3698961108563594 [Eh]
	-----------------------------------------------------------

  Dipole Moment: [D]
     X:    -1.3686      Y:     2.0143      Z:    -0.1294     Total:     2.4387

*** Psi4 exiting successfully. Buy a developer a beer!
