                               Psi4 1.4a2.dev612

  ==> Input File <==

--------------------------------------------------------------------------
#psi4
#
memory 32 gb

molecule  {
0 1
  O        3.0870850    -0.7380670     0.0000600
  N       -1.0742560    -1.1771330    -0.0000800
  C        0.9761220     0.0434820    -0.0000150
  C       -0.4881060     0.0430670    -0.0000040
  C        1.8814630     1.1555170    -0.0001020
  C       -1.2332669     1.2310092     0.2500830
  C        1.7670490    -1.0798270     0.0000780
  C       -2.6240280     1.1598410     0.0000810
  C        3.1400070     0.6275730    -0.0000460
  C       -3.2332050    -0.0939970     0.0000020
  C       -2.4150150    -1.2251180    -0.0000720
  H        1.6419750     2.2104320    -0.0002120
  H       -0.7317970     2.1947500     0.0001580
  H        1.5416230    -2.1350490     0.0001580
  H        4.1309200     1.0569280    -0.0000720
  H       -3.2210480     2.0687070     0.0001450
  H       -4.3145730    -0.1971740    -0.0000020
  H       -2.8500980    -2.2235110    -0.0001310
units angstrom
no_reorient  #important for SAPT in psi4, default
symmetry c1  #important for SAPT in psi4, default
}

set PROPERTIES_ORIGIN ["COM"]
properties('MP2/aug-cc-pvtz', properties = ['dipole'])
--------------------------------------------------------------------------

    Molecular point group: c1
  Charge       = 0
  Multiplicity = 1
  Basis Set: AUG-CC-PVTZ
    Blend: AUG-CC-PVTZ
  Basis Set: (AUG-CC-PVTZ AUX)
    Blend: AUG-CC-PVTZ-JKFIT

    Orbital Energies [Eh]
    ---------------------

    Doubly Occupied:

       1A    -20.629477     2A    -15.565106     3A    -11.297424
       4A    -11.295425     5A    -11.293621     6A    -11.282508
       7A    -11.267892     8A    -11.247659     9A    -11.240257
      10A    -11.239644    11A    -11.237540    12A     -1.459719
      13A     -1.258457    14A     -1.105960    15A     -1.085464
      16A     -1.032708    17A     -0.998056    18A     -0.873574
      19A     -0.861825    20A     -0.795822    21A     -0.777774
      22A     -0.744615    23A     -0.684606    24A     -0.657757
      25A     -0.642296    26A     -0.636301    27A     -0.606384
      28A     -0.583836    29A     -0.575618    30A     -0.570815
      31A     -0.546155    32A     -0.537656    33A     -0.516797
      34A     -0.427871    35A     -0.416730    36A     -0.382623
      37A     -0.348400    38A     -0.299908

  @DF-RHF Final Energy:  -474.31255696828748

   => Energetics <=

    Nuclear Repulsion Energy =            539.1561185583320821
    One-Electron Energy =               -1712.8887903965289752
    Two-Electron Energy =                 699.4201148699094119
    Total Energy =                       -474.3125569682874811
  Basis Set: (AUG-CC-PVTZ AUX)
    Blend: AUG-CC-PVTZ-RI
    Molecular point group: c1

    Geometry (in Angstrom), charge = 0, multiplicity = 1:

       Center              X                  Y                   Z               Mass
    ------------   -----------------  -----------------  -----------------  -----------------
         O            3.061202974390    -0.717716683592    -0.020621741689    15.994914619570
         N           -1.100138025610    -1.156782683592    -0.020761741689    14.003074004430
         C            0.950239974390     0.063832316408    -0.020696741689    12.000000000000
         C           -0.513988025610     0.063417316408    -0.020685741689    12.000000000000
         C            1.855580974390     1.175867316408    -0.020783741689    12.000000000000
         C           -1.259148925610     1.251359516408     0.229401258311    12.000000000000
         C            1.741166974390    -1.059476683592    -0.020603741689    12.000000000000
         C           -2.649910025610     1.180191316408    -0.020600741689    12.000000000000
         C            3.114124974390     0.647923316408    -0.020727741689    12.000000000000
         C           -3.259087025610    -0.073646683592    -0.020679741689    12.000000000000
         C           -2.440897025610    -1.204767683592    -0.020753741689    12.000000000000
         H            1.616092974390     2.230782316408    -0.020893741689     1.007825032230
         H           -0.757679025610     2.215100316408    -0.020523741689     1.007825032230
         H            1.515740974390    -2.114698683592    -0.020523741689     1.007825032230
         H            4.105037974390     1.077278316408    -0.020753741689     1.007825032230
         H           -3.246930025610     2.089057316408    -0.020536741689     1.007825032230
         H           -4.340455025610    -0.176823683592    -0.020683741689     1.007825032230
         H           -2.875980025610    -2.203160683592    -0.020812741689     1.007825032230

  Basis Set: AUG-CC-PVTZ
    Blend: AUG-CC-PVTZ
  Basis Set: (AUG-CC-PVTZ AUX)
    Blend: AUG-CC-PVTZ-JKFIT
	 Reference Energy          =    -474.3125569682874811 [Eh]
	 Singles Energy            =      -0.0000000000000000 [Eh]
	 Same-Spin Energy          =      -0.5147590555252133 [Eh]
	 Opposite-Spin Energy      =      -1.5585684846641286 [Eh]
	 Correlation Energy        =      -2.0733275401893421 [Eh]
	 Total Energy              =    -476.3858845084768063 [Eh]

	 ================> DF-SCS-MP2 Energies <==================
	-----------------------------------------------------------
	 SCS Same-Spin Scale       =       0.3333333333333333 [-]
	 SCS Opposite-Spin Scale   =       1.2000000000000000 [-]
	 SCS Same-Spin Energy      =      -0.1715863518417378 [Eh]
	 SCS Opposite-Spin Energy  =      -1.8702821815969541 [Eh]
	 SCS Correlation Energy    =      -2.0418685334386919 [Eh]
	 SCS Total Energy          =    -476.3544255017261548 [Eh]
	-----------------------------------------------------------

  Dipole Moment: [D]
     X:    -1.3331      Y:     1.9081      Z:    -0.0840     Total:     2.3291

*** Psi4 exiting successfully. Buy a developer a beer!
