                               Psi4 1.4a2.dev612

  ==> Input File <==

--------------------------------------------------------------------------
#psi4
#
memory 32 gb

molecule  {
0 1
  O        3.0870850    -0.7380670     0.0000600
  N       -1.0742560    -1.1771330    -0.0000800
  C        0.9761220     0.0434820    -0.0000150
  C       -0.4881060     0.0430670    -0.0000040
  C        1.8814630     1.1555170    -0.0001020
  C       -1.2332690     1.2310260     0.0000830
  C        1.7670490    -1.0798270     0.0000780
  C       -2.6240280     1.1598410     0.0000810
  C        3.1400070     0.6275730    -0.0000460
  C       -3.2332050    -0.0939970     0.0000020
  C       -2.4150150    -1.2251180    -0.0000720
  H        1.6419750     2.2104320    -0.0002120
  H       -0.7317970     2.1947500     0.0001580
  H        1.5416230    -2.1350490     0.0001580
  H        4.1309200     1.0569280    -0.0000720
  H       -3.2210488     2.0687235    -0.2498550
  H       -4.3145730    -0.1971740    -0.0000020
  H       -2.8500980    -2.2235110    -0.0001310
units angstrom
no_reorient  #important for SAPT in psi4, default
symmetry c1  #important for SAPT in psi4, default
}

set PROPERTIES_ORIGIN ["COM"]
properties('MP2/aug-cc-pvtz', properties = ['dipole'])
--------------------------------------------------------------------------

    Molecular point group: c1
  Charge       = 0
  Multiplicity = 1
  Basis Set: AUG-CC-PVTZ
    Blend: AUG-CC-PVTZ
  Basis Set: (AUG-CC-PVTZ AUX)
    Blend: AUG-CC-PVTZ-JKFIT

    Orbital Energies [Eh]
    ---------------------

    Doubly Occupied:

       1A    -20.628758     2A    -15.566162     3A    -11.293942
       4A    -11.293457     5A    -11.292498     6A    -11.279717
       7A    -11.265979     8A    -11.243885     9A    -11.241614
      10A    -11.239303    11A    -11.237375    12A     -1.458995
      13A     -1.258952    14A     -1.105701    15A     -1.088188
      16A     -1.034204    17A     -0.998375    18A     -0.875077
      19A     -0.862578    20A     -0.796074    21A     -0.776750
      22A     -0.743929    23A     -0.686600    24A     -0.662727
      25A     -0.645567    26A     -0.635792    27A     -0.607097
      28A     -0.585212    29A     -0.574775    30A     -0.570477
      31A     -0.547333    32A     -0.537816    33A     -0.520811
      34A     -0.425880    35A     -0.421179    36A     -0.382936
      37A     -0.348918    38A     -0.299180

  @DF-RHF Final Energy:  -474.32672644216075

   => Energetics <=

    Nuclear Repulsion Energy =            539.7731960046648965
    One-Electron Energy =               -1714.1322157546901508
    Two-Electron Energy =                 700.0322933078645065
    Total Energy =                       -474.3267264421607479
  Basis Set: (AUG-CC-PVTZ AUX)
    Blend: AUG-CC-PVTZ-RI
    Molecular point group: c1

    Geometry (in Angstrom), charge = 0, multiplicity = 1:

       Center              X                  Y                   Z               Mass
    ------------   -----------------  -----------------  -----------------  -----------------
         O            3.061203153678    -0.717718188073     0.001797384784    15.994914619570
         N           -1.100137846322    -1.156784188073     0.001657384784    14.003074004430
         C            0.950240153678     0.063830811927     0.001722384784    12.000000000000
         C           -0.513987846322     0.063415811927     0.001733384784    12.000000000000
         C            1.855581153678     1.175865811927     0.001635384784    12.000000000000
         C           -1.259150846322     1.251374811927     0.001820384784    12.000000000000
         C            1.741167153678    -1.059478188073     0.001815384784    12.000000000000
         C           -2.649909846322     1.180189811927     0.001818384784    12.000000000000
         C            3.114125153678     0.647921811927     0.001691384784    12.000000000000
         C           -3.259086846322    -0.073648188073     0.001739384784    12.000000000000
         C           -2.440896846322    -1.204769188073     0.001665384784    12.000000000000
         H            1.616093153678     2.230780811927     0.001525384784     1.007825032230
         H           -0.757678846322     2.215098811927     0.001895384784     1.007825032230
         H            1.515741153678    -2.114700188073     0.001895384784     1.007825032230
         H            4.105038153678     1.077276811927     0.001665384784     1.007825032230
         H           -3.246930646322     2.089072311927    -0.248117615216     1.007825032230
         H           -4.340454846322    -0.176825188073     0.001735384784     1.007825032230
         H           -2.875979846322    -2.203162188073     0.001606384784     1.007825032230

  Basis Set: AUG-CC-PVTZ
    Blend: AUG-CC-PVTZ
  Basis Set: (AUG-CC-PVTZ AUX)
    Blend: AUG-CC-PVTZ-JKFIT
	 Reference Energy          =    -474.3267264421607479 [Eh]
	 Singles Energy            =      -0.0000000000000000 [Eh]
	 Same-Spin Energy          =      -0.5144514362455294 [Eh]
	 Opposite-Spin Energy      =      -1.5574131465321113 [Eh]
	 Correlation Energy        =      -2.0718645827776405 [Eh]
	 Total Energy              =    -476.3985910249384119 [Eh]

	 ================> DF-SCS-MP2 Energies <==================
	-----------------------------------------------------------
	 SCS Same-Spin Scale       =       0.3333333333333333 [-]
	 SCS Opposite-Spin Scale   =       1.2000000000000000 [-]
	 SCS Same-Spin Energy      =      -0.1714838120818431 [Eh]
	 SCS Opposite-Spin Energy  =      -1.8688957758385334 [Eh]
	 SCS Correlation Energy    =      -2.0403795879203765 [Eh]
	 SCS Total Energy          =    -476.3671060300811178 [Eh]
	-----------------------------------------------------------

  Dipole Moment: [D]
     X:    -1.3116      Y:     1.9821      Z:    -0.1480     Total:     2.3813

*** Psi4 exiting successfully. Buy a developer a beer!
