                               Psi4 1.4a2.dev612

  ==> Input File <==

--------------------------------------------------------------------------
#psi4
#
memory 32 gb

molecule  {
0 1
  O        3.0870850    -0.7380670     0.0000600
  N       -1.0742560    -1.1771330    -0.0000800
  C        0.9761220     0.0434820    -0.0000150
  C       -0.4881060     0.0430670    -0.0000040
  C        1.8814630     1.1555170    -0.0001020
  C       -1.2332690     1.2310260     0.0000830
  C        1.7670490    -1.0798270     0.0000780
  C       -2.6240280     1.1598410     0.0000810
  C        3.1400070     0.6275730    -0.0000460
  C       -3.2332050    -0.0939970     0.0000020
  C       -2.4150150    -1.2251180    -0.0000720
  H        1.6419750     2.2104320    -0.0002120
  H       -0.7317970     2.1947500     0.0001580
  H        1.5416230    -2.1350490     0.0001580
  H        4.1309200     1.0569280    -0.0000720
  H       -3.2210480     2.0687070     0.0001450
  H       -4.3145732    -0.1971676    -0.1000020
  H       -2.8500980    -2.2235110    -0.0001310
units angstrom
no_reorient  #important for SAPT in psi4, default
symmetry c1  #important for SAPT in psi4, default
}

set PROPERTIES_ORIGIN ["COM"]
properties('MP2/aug-cc-pvtz', properties = ['dipole'])
--------------------------------------------------------------------------

    Molecular point group: c1
  Charge       = 0
  Multiplicity = 1
  Basis Set: AUG-CC-PVTZ
    Blend: AUG-CC-PVTZ
  Basis Set: (AUG-CC-PVTZ AUX)
    Blend: AUG-CC-PVTZ-JKFIT

    Orbital Energies [Eh]
    ---------------------

    Doubly Occupied:

       1A    -20.628709     2A    -15.565726     3A    -11.293900
       4A    -11.293394     5A    -11.292388     6A    -11.279577
       7A    -11.263436     8A    -11.243430     9A    -11.241489
      10A    -11.239211    11A    -11.237316    12A     -1.458946
      13A     -1.258675    14A     -1.105596    15A     -1.088612
      16A     -1.033973    17A     -0.998215    18A     -0.875405
      19A     -0.863428    20A     -0.796076    21A     -0.777711
      22A     -0.745005    23A     -0.686679    24A     -0.662449
      25A     -0.646197    26A     -0.635734    27A     -0.607016
      28A     -0.585413    29A     -0.575368    30A     -0.571916
      31A     -0.548976    32A     -0.538118    33A     -0.520236
      34A     -0.424897    35A     -0.421733    36A     -0.383856
      37A     -0.348756    38A     -0.299060

  @DF-RHF Final Energy:  -474.33051484806424

   => Energetics <=

    Nuclear Repulsion Energy =            539.8620857521214020
    One-Electron Energy =               -1714.3119566901420967
    Two-Electron Energy =                 700.1193560899564545
    Total Energy =                       -474.3305148480642401
  Basis Set: (AUG-CC-PVTZ AUX)
    Blend: AUG-CC-PVTZ-RI
    Molecular point group: c1

    Geometry (in Angstrom), charge = 0, multiplicity = 1:

       Center              X                  Y                   Z               Mass
    ------------   -----------------  -----------------  -----------------  -----------------
         O            3.061203149510    -0.717718117898     0.000755186409    15.994914619570
         N           -1.100137850490    -1.156784117898     0.000615186409    14.003074004430
         C            0.950240149510     0.063830882102     0.000680186409    12.000000000000
         C           -0.513987850490     0.063415882102     0.000691186409    12.000000000000
         C            1.855581149510     1.175865882102     0.000593186409    12.000000000000
         C           -1.259150850490     1.251374882102     0.000778186409    12.000000000000
         C            1.741167149510    -1.059478117898     0.000773186409    12.000000000000
         C           -2.649909850490     1.180189882102     0.000776186409    12.000000000000
         C            3.114125149510     0.647921882102     0.000649186409    12.000000000000
         C           -3.259086850490    -0.073648117898     0.000697186409    12.000000000000
         C           -2.440896850490    -1.204769117898     0.000623186409    12.000000000000
         H            1.616093149510     2.230780882102     0.000483186409     1.007825032230
         H           -0.757678850490     2.215098882102     0.000853186409     1.007825032230
         H            1.515741149510    -2.114700117898     0.000853186409     1.007825032230
         H            4.105038149510     1.077276882102     0.000623186409     1.007825032230
         H           -3.246929850490     2.089055882102     0.000840186409     1.007825032230
         H           -4.340455050490    -0.176818717898    -0.099306813591     1.007825032230
         H           -2.875979850490    -2.203162117898     0.000564186409     1.007825032230

  Basis Set: AUG-CC-PVTZ
    Blend: AUG-CC-PVTZ
  Basis Set: (AUG-CC-PVTZ AUX)
    Blend: AUG-CC-PVTZ-JKFIT
	 Reference Energy          =    -474.3305148480642401 [Eh]
	 Singles Energy            =      -0.0000000000000000 [Eh]
	 Same-Spin Energy          =      -0.5142249102607512 [Eh]
	 Opposite-Spin Energy      =      -1.5569910215210854 [Eh]
	 Correlation Energy        =      -2.0712159317818366 [Eh]
	 Total Energy              =    -476.4017307798461047 [Eh]

	 ================> DF-SCS-MP2 Energies <==================
	-----------------------------------------------------------
	 SCS Same-Spin Scale       =       0.3333333333333333 [-]
	 SCS Opposite-Spin Scale   =       1.2000000000000000 [-]
	 SCS Same-Spin Energy      =      -0.1714083034202504 [Eh]
	 SCS Opposite-Spin Energy  =      -1.8683892258253023 [Eh]
	 SCS Correlation Energy    =      -2.0397975292455528 [Eh]
	 SCS Total Energy          =    -476.3703123773098014 [Eh]
	-----------------------------------------------------------

  Dipole Moment: [D]
     X:    -1.3341      Y:     2.0225      Z:    -0.0625     Total:     2.4236

*** Psi4 exiting successfully. Buy a developer a beer!
