                               Psi4 1.4a2.dev612

  ==> Input File <==

--------------------------------------------------------------------------
#psi4
#
memory 32 gb

molecule  {
0 1
  O        3.0870850    -0.7380670     0.0000600
  N       -1.0742560    -1.1771330    -0.0000800
  C        0.9761220     0.0434820    -0.0000150
  C       -0.4881060     0.0430670    -0.0000040
  C        1.8814630     1.1555170    -0.0001020
  C       -1.2332673     1.2310126     0.2000830
  C        1.7670490    -1.0798270     0.0000780
  C       -2.6240280     1.1598410     0.0000810
  C        3.1400070     0.6275730    -0.0000460
  C       -3.2332050    -0.0939970     0.0000020
  C       -2.4150150    -1.2251180    -0.0000720
  H        1.6419750     2.2104320    -0.0002120
  H       -0.7317970     2.1947500     0.0001580
  H        1.5416230    -2.1350490     0.0001580
  H        4.1309200     1.0569280    -0.0000720
  H       -3.2210480     2.0687070     0.0001450
  H       -4.3145730    -0.1971740    -0.0000020
  H       -2.8500980    -2.2235110    -0.0001310
units angstrom
no_reorient  #important for SAPT in psi4, default
symmetry c1  #important for SAPT in psi4, default
}

set PROPERTIES_ORIGIN ["COM"]
properties('MP2/aug-cc-pvtz', properties = ['dipole'])
--------------------------------------------------------------------------

    Molecular point group: c1
  Charge       = 0
  Multiplicity = 1
  Basis Set: AUG-CC-PVTZ
    Blend: AUG-CC-PVTZ
  Basis Set: (AUG-CC-PVTZ AUX)
    Blend: AUG-CC-PVTZ-JKFIT

    Orbital Energies [Eh]
    ---------------------

    Doubly Occupied:

       1A    -20.629176     2A    -15.565290     3A    -11.295613
       4A    -11.294846     5A    -11.293522     6A    -11.281410
       7A    -11.266303     8A    -11.246172     9A    -11.240542
      10A    -11.239461    11A    -11.237440    12A     -1.459418
      13A     -1.258494    14A     -1.105806    15A     -1.086565
      16A     -1.033168    17A     -0.998125    18A     -0.874225
      19A     -0.862396    20A     -0.795888    21A     -0.777724
      22A     -0.744699    23A     -0.685378    24A     -0.659408
      25A     -0.643692    26A     -0.636078    27A     -0.606597
      28A     -0.584492    29A     -0.575521    30A     -0.571247
      31A     -0.547063    32A     -0.537817    33A     -0.518271
      34A     -0.427229    35A     -0.418102    36A     -0.383039
      37A     -0.348510    38A     -0.299578

  @DF-RHF Final Energy:  -474.31930252198930

   => Energetics <=

    Nuclear Repulsion Energy =            539.4131819687083862
    One-Electron Energy =               -1713.4083611774494784
    Two-Electron Energy =                 699.6758766867517352
    Total Energy =                       -474.3193025219893570
  Basis Set: (AUG-CC-PVTZ AUX)
    Blend: AUG-CC-PVTZ-RI
    Molecular point group: c1

    Geometry (in Angstrom), charge = 0, multiplicity = 1:

       Center              X                  Y                   Z               Mass
    ------------   -----------------  -----------------  -----------------  -----------------
         O            3.061203007482    -0.717716964869    -0.016485315853    15.994914619570
         N           -1.100137992518    -1.156782964869    -0.016625315853    14.003074004430
         C            0.950240007482     0.063832035131    -0.016560315853    12.000000000000
         C           -0.513987992518     0.063417035131    -0.016549315853    12.000000000000
         C            1.855581007482     1.175867035131    -0.016647315853    12.000000000000
         C           -1.259149292518     1.251362635131     0.183537684147    12.000000000000
         C            1.741167007482    -1.059476964869    -0.016467315853    12.000000000000
         C           -2.649909992518     1.180191035131    -0.016464315853    12.000000000000
         C            3.114125007482     0.647923035131    -0.016591315853    12.000000000000
         C           -3.259086992518    -0.073646964869    -0.016543315853    12.000000000000
         C           -2.440896992518    -1.204767964869    -0.016617315853    12.000000000000
         H            1.616093007482     2.230782035131    -0.016757315853     1.007825032230
         H           -0.757678992518     2.215100035131    -0.016387315853     1.007825032230
         H            1.515741007482    -2.114698964869    -0.016387315853     1.007825032230
         H            4.105038007482     1.077278035131    -0.016617315853     1.007825032230
         H           -3.246929992518     2.089057035131    -0.016400315853     1.007825032230
         H           -4.340454992518    -0.176823964869    -0.016547315853     1.007825032230
         H           -2.875979992518    -2.203160964869    -0.016676315853     1.007825032230

  Basis Set: AUG-CC-PVTZ
    Blend: AUG-CC-PVTZ
  Basis Set: (AUG-CC-PVTZ AUX)
    Blend: AUG-CC-PVTZ-JKFIT
	 Reference Energy          =    -474.3193025219893002 [Eh]
	 Singles Energy            =      -0.0000000000000000 [Eh]
	 Same-Spin Energy          =      -0.5145607604261202 [Eh]
	 Opposite-Spin Energy      =      -1.5578565709970955 [Eh]
	 Correlation Energy        =      -2.0724173314232157 [Eh]
	 Total Energy              =    -476.3917198534124964 [Eh]

	 ================> DF-SCS-MP2 Energies <==================
	-----------------------------------------------------------
	 SCS Same-Spin Scale       =       0.3333333333333333 [-]
	 SCS Opposite-Spin Scale   =       1.2000000000000000 [-]
	 SCS Same-Spin Energy      =      -0.1715202534753734 [Eh]
	 SCS Opposite-Spin Energy  =      -1.8694278851965145 [Eh]
	 SCS Correlation Energy    =      -2.0409481386718880 [Eh]
	 SCS Total Energy          =    -476.3602506606611655 [Eh]
	-----------------------------------------------------------

  Dipole Moment: [D]
     X:    -1.3372      Y:     1.9487      Z:    -0.0652     Total:     2.3643

*** Psi4 exiting successfully. Buy a developer a beer!
