                               Psi4 1.4a2.dev612

  ==> Input File <==

--------------------------------------------------------------------------
#psi4
#
memory 32 gb

molecule  {
0 1
  O        3.0870850    -0.7380670     0.0000600
  N       -1.0742560    -1.1771330    -0.0000800
  C        0.9761220     0.0434820    -0.0000150
  C       -0.4881060     0.0430670    -0.0000040
  C        1.8814630     1.1555170    -0.0001020
  C       -1.2332690     1.2310260     0.0000830
  C        1.7670490    -1.0798270     0.0000780
  C       -2.6240280     1.1598410     0.0000810
  C        3.1400070     0.6275730    -0.0000460
  C       -3.2332050    -0.0939970     0.0000020
  C       -2.4150150    -1.2251180    -0.0000720
  H        1.6419750     2.2104320    -0.0002120
  H       -0.7317970     2.1947500     0.0001580
  H        1.5416230    -2.1350490     0.0001580
  H        4.1309200     1.0569280    -0.0000720
  H       -3.2210480     2.0687070     0.0001450
  H       -4.3145736    -0.1971580    -0.2500020
  H       -2.8500980    -2.2235110    -0.0001310
units angstrom
no_reorient  #important for SAPT in psi4, default
symmetry c1  #important for SAPT in psi4, default
}

set PROPERTIES_ORIGIN ["COM"]
properties('MP2/aug-cc-pvtz', properties = ['dipole'])
--------------------------------------------------------------------------

    Molecular point group: c1
  Charge       = 0
  Multiplicity = 1
  Basis Set: AUG-CC-PVTZ
    Blend: AUG-CC-PVTZ
  Basis Set: (AUG-CC-PVTZ AUX)
    Blend: AUG-CC-PVTZ-JKFIT

    Orbital Energies [Eh]
    ---------------------

    Doubly Occupied:

       1A    -20.628987     2A    -15.565901     3A    -11.294269
       4A    -11.293619     5A    -11.292913     6A    -11.279993
       7A    -11.263773     8A    -11.243573     9A    -11.243376
      10A    -11.239485    11A    -11.237553    12A     -1.459221
      13A     -1.258966    14A     -1.105805    15A     -1.088569
      16A     -1.033941    17A     -0.998221    18A     -0.874734
      19A     -0.863481    20A     -0.796180    21A     -0.777934
      22A     -0.745216    23A     -0.684118    24A     -0.662087
      25A     -0.645393    26A     -0.635989    27A     -0.607232
      28A     -0.584164    29A     -0.575465    30A     -0.572130
      31A     -0.549221    32A     -0.538251    33A     -0.518540
      34A     -0.425785    35A     -0.420733    36A     -0.383923
      37A     -0.348802    38A     -0.299224

  @DF-RHF Final Energy:  -474.32703968676998

   => Energetics <=

    Nuclear Repulsion Energy =            539.7738145660945293
    One-Electron Energy =               -1714.1281745276444326
    Two-Electron Energy =                 700.0273202747799814
    Total Energy =                       -474.3270396867700356
  Basis Set: (AUG-CC-PVTZ AUX)
    Blend: AUG-CC-PVTZ-RI
    Molecular point group: c1

    Geometry (in Angstrom), charge = 0, multiplicity = 1:

       Center              X                  Y                   Z               Mass
    ------------   -----------------  -----------------  -----------------  -----------------
         O            3.061203152289    -0.717718184599     0.001797384784    15.994914619570
         N           -1.100137847711    -1.156784184599     0.001657384784    14.003074004430
         C            0.950240152289     0.063830815401     0.001722384784    12.000000000000
         C           -0.513987847711     0.063415815401     0.001733384784    12.000000000000
         C            1.855581152289     1.175865815401     0.001635384784    12.000000000000
         C           -1.259150847711     1.251374815401     0.001820384784    12.000000000000
         C            1.741167152289    -1.059478184599     0.001815384784    12.000000000000
         C           -2.649909847711     1.180189815401     0.001818384784    12.000000000000
         C            3.114125152289     0.647921815401     0.001691384784    12.000000000000
         C           -3.259086847711    -0.073648184599     0.001739384784    12.000000000000
         C           -2.440896847711    -1.204769184599     0.001665384784    12.000000000000
         H            1.616093152289     2.230780815401     0.001525384784     1.007825032230
         H           -0.757678847711     2.215098815401     0.001895384784     1.007825032230
         H            1.515741152289    -2.114700184599     0.001895384784     1.007825032230
         H            4.105038152289     1.077276815401     0.001665384784     1.007825032230
         H           -3.246929847711     2.089055815401     0.001882384784     1.007825032230
         H           -4.340455447711    -0.176809184599    -0.248264615216     1.007825032230
         H           -2.875979847711    -2.203162184599     0.001606384784     1.007825032230

  Basis Set: AUG-CC-PVTZ
    Blend: AUG-CC-PVTZ
  Basis Set: (AUG-CC-PVTZ AUX)
    Blend: AUG-CC-PVTZ-JKFIT
	 Reference Energy          =    -474.3270396867699787 [Eh]
	 Singles Energy            =      -0.0000000000000000 [Eh]
	 Same-Spin Energy          =      -0.5143521260223953 [Eh]
	 Opposite-Spin Energy      =      -1.5573009417834536 [Eh]
	 Correlation Energy        =      -2.0716530678058489 [Eh]
	 Total Energy              =    -476.3986927545758476 [Eh]

	 ================> DF-SCS-MP2 Energies <==================
	-----------------------------------------------------------
	 SCS Same-Spin Scale       =       0.3333333333333333 [-]
	 SCS Opposite-Spin Scale   =       1.2000000000000000 [-]
	 SCS Same-Spin Energy      =      -0.1714507086741318 [Eh]
	 SCS Opposite-Spin Energy  =      -1.8687611301401441 [Eh]
	 SCS Correlation Energy    =      -2.0402118388142760 [Eh]
	 SCS Total Energy          =    -476.3672515255842654 [Eh]
	-----------------------------------------------------------

  Dipole Moment: [D]
     X:    -1.2832      Y:     2.0255      Z:    -0.1544     Total:     2.4027

*** Psi4 exiting successfully. Buy a developer a beer!
