                               Psi4 1.4a2.dev612

  ==> Input File <==

--------------------------------------------------------------------------
#psi4
#
memory 32 gb

molecule  {
0 1
  O        3.0870850    -0.7380670     0.0000600
  N       -1.0742560    -1.1771330    -0.0000800
  C        0.9761220     0.0434820    -0.0000150
  C       -0.4881060     0.0430670    -0.0000040
  C        1.8814630     1.1555170    -0.0001020
  C       -1.2332690     1.2310260     0.0000830
  C        1.7670490    -1.0798270     0.0000780
  C       -2.6240280     1.1598410     0.0000810
  C        3.1400070     0.6275730    -0.0000460
  C       -3.2332050    -0.0939970     0.0000020
  C       -2.4150150    -1.2251180    -0.0000720
  H        1.6419750     2.2104320    -0.0002120
  H       -0.7317970     2.1947500     0.0001580
  H        1.5416230    -2.1350490     0.0001580
  H        4.1309200     1.0569280    -0.0000720
  H       -3.2210480     2.0687070     0.0001450
  H       -4.3145731    -0.1971708    -0.0500020
  H       -2.8500980    -2.2235110    -0.0001310
units angstrom
no_reorient  #important for SAPT in psi4, default
symmetry c1  #important for SAPT in psi4, default
}

set PROPERTIES_ORIGIN ["COM"]
properties('MP2/aug-cc-pvtz', properties = ['dipole'])
--------------------------------------------------------------------------

    Molecular point group: c1
  Charge       = 0
  Multiplicity = 1
  Basis Set: AUG-CC-PVTZ
    Blend: AUG-CC-PVTZ
  Basis Set: (AUG-CC-PVTZ AUX)
    Blend: AUG-CC-PVTZ-JKFIT

    Orbital Energies [Eh]
    ---------------------

    Doubly Occupied:

       1A    -20.628668     2A    -15.565702     3A    -11.293847
       4A    -11.293361     5A    -11.292313     6A    -11.279517
       7A    -11.263389     8A    -11.243411     9A    -11.241215
      10A    -11.239171    11A    -11.237281    12A     -1.458906
      13A     -1.258634    14A     -1.105567    15A     -1.088621
      16A     -1.033981    17A     -0.998216    18A     -0.875511
      19A     -0.863421    20A     -0.796062    21A     -0.777679
      22A     -0.744976    23A     -0.687092    24A     -0.662501
      25A     -0.646303    26A     -0.635697    27A     -0.606985
      28A     -0.585592    29A     -0.575350    30A     -0.571885
      31A     -0.548942    32A     -0.538100    33A     -0.520469
      34A     -0.424720    35A     -0.421928    36A     -0.383847
      37A     -0.348751    38A     -0.299037

  @DF-RHF Final Energy:  -474.33097195962716

   => Energetics <=

    Nuclear Repulsion Energy =            539.8750597731876724
    One-Electron Energy =               -1714.3387587446825364
    Two-Electron Energy =                 700.1327270118678143
    Total Energy =                       -474.3309719596271634
  Basis Set: (AUG-CC-PVTZ AUX)
    Blend: AUG-CC-PVTZ-RI
    Molecular point group: c1

    Geometry (in Angstrom), charge = 0, multiplicity = 1:

       Center              X                  Y                   Z               Mass
    ------------   -----------------  -----------------  -----------------  -----------------
         O            3.061203148815    -0.717718095664     0.000407786950    15.994914619570
         N           -1.100137851185    -1.156784095664     0.000267786950    14.003074004430
         C            0.950240148815     0.063830904336     0.000332786950    12.000000000000
         C           -0.513987851185     0.063415904336     0.000343786950    12.000000000000
         C            1.855581148815     1.175865904336     0.000245786950    12.000000000000
         C           -1.259150851185     1.251374904336     0.000430786950    12.000000000000
         C            1.741167148815    -1.059478095664     0.000425786950    12.000000000000
         C           -2.649909851185     1.180189904336     0.000428786950    12.000000000000
         C            3.114125148815     0.647921904336     0.000301786950    12.000000000000
         C           -3.259086851185    -0.073648095664     0.000349786950    12.000000000000
         C           -2.440896851185    -1.204769095664     0.000275786950    12.000000000000
         H            1.616093148815     2.230780904336     0.000135786950     1.007825032230
         H           -0.757678851185     2.215098904336     0.000505786950     1.007825032230
         H            1.515741148815    -2.114700095664     0.000505786950     1.007825032230
         H            4.105038148815     1.077276904336     0.000275786950     1.007825032230
         H           -3.246929851185     2.089055904336     0.000492786950     1.007825032230
         H           -4.340454951185    -0.176821895664    -0.049654213050     1.007825032230
         H           -2.875979851185    -2.203162095664     0.000216786950     1.007825032230

  Basis Set: AUG-CC-PVTZ
    Blend: AUG-CC-PVTZ
  Basis Set: (AUG-CC-PVTZ AUX)
    Blend: AUG-CC-PVTZ-JKFIT
	 Reference Energy          =    -474.3309719596271634 [Eh]
	 Singles Energy            =      -0.0000000000000000 [Eh]
	 Same-Spin Energy          =      -0.5142069182870652 [Eh]
	 Opposite-Spin Energy      =      -1.5569598172060848 [Eh]
	 Correlation Energy        =      -2.0711667354931498 [Eh]
	 Total Energy              =    -476.4021386951202999 [Eh]

	 ================> DF-SCS-MP2 Energies <==================
	-----------------------------------------------------------
	 SCS Same-Spin Scale       =       0.3333333333333333 [-]
	 SCS Opposite-Spin Scale   =       1.2000000000000000 [-]
	 SCS Same-Spin Energy      =      -0.1714023060956884 [Eh]
	 SCS Opposite-Spin Energy  =      -1.8683517806473016 [Eh]
	 SCS Correlation Energy    =      -2.0397540867429900 [Eh]
	 SCS Total Energy          =    -476.3707260463701800 [Eh]
	-----------------------------------------------------------

  Dipole Moment: [D]
     X:    -1.3415      Y:     2.0220      Z:    -0.0313     Total:     2.4268

*** Psi4 exiting successfully. Buy a developer a beer!
