                               Psi4 1.4a2.dev612

  ==> Input File <==

--------------------------------------------------------------------------
#psi4
#
memory 32 gb

molecule  {
0 1
  O        3.0870850    -0.7380670     0.0000600
  N       -1.0742560    -1.1771330    -0.0000800
  C        0.9761220     0.0434820    -0.0000150
  C       -0.4881060     0.0430670    -0.0000040
  C        1.8814630     1.1555170    -0.0001020
  C       -1.2332690     1.2310260     0.0000830
  C        1.7670490    -1.0798270     0.0000780
  C       -2.6240280     1.1598410     0.0000810
  C        3.1400070     0.6275730    -0.0000460
  C       -3.2332050    -0.0939970     0.0000020
  C       -2.4150150    -1.2251180    -0.0000720
  H        1.6419750     2.2104320    -0.0002120
  H       -0.7317970     2.1947500     0.0001580
  H        1.5416230    -2.1350490     0.0001580
  H        4.1309200     1.0569280    -0.0000720
  H       -3.2210480     2.0687070     0.0001450
  H       -4.3145737    -0.1971548    -0.3000020
  H       -2.8500980    -2.2235110    -0.0001310
units angstrom
no_reorient  #important for SAPT in psi4, default
symmetry c1  #important for SAPT in psi4, default
}

set PROPERTIES_ORIGIN ["COM"]
properties('MP2/aug-cc-pvtz', properties = ['dipole'])
--------------------------------------------------------------------------

    Molecular point group: c1
  Charge       = 0
  Multiplicity = 1
  Basis Set: AUG-CC-PVTZ
    Blend: AUG-CC-PVTZ
  Basis Set: (AUG-CC-PVTZ AUX)
    Blend: AUG-CC-PVTZ-JKFIT

    Orbital Energies [Eh]
    ---------------------

    Doubly Occupied:

       1A    -20.629131     2A    -15.565996     3A    -11.294459
       4A    -11.293735     5A    -11.293184     6A    -11.280212
       7A    -11.263952     8A    -11.244345     9A    -11.243646
      10A    -11.239626    11A    -11.237676    12A     -1.459363
      13A     -1.259119    14A     -1.105916    15A     -1.088558
      16A     -1.033934    17A     -0.998232    18A     -0.874430
      19A     -0.863508    20A     -0.796240    21A     -0.778051
      22A     -0.745330    23A     -0.682990    24A     -0.661902
      25A     -0.644932    26A     -0.636120    27A     -0.607345
      28A     -0.583522    29A     -0.575496    30A     -0.572238
      31A     -0.549351    32A     -0.538327    33A     -0.517609
      34A     -0.426132    35A     -0.420334    36A     -0.383960
      37A     -0.348828    38A     -0.299312

  @DF-RHF Final Energy:  -474.32505193246698

   => Energetics <=

    Nuclear Repulsion Energy =            539.7292601147377127
    One-Electron Energy =               -1714.0345357236617474
    Two-Electron Energy =                 699.9802236764571717
    Total Energy =                       -474.3250519324669767
  Basis Set: (AUG-CC-PVTZ AUX)
    Blend: AUG-CC-PVTZ-RI
    Molecular point group: c1

    Geometry (in Angstrom), charge = 0, multiplicity = 1:

       Center              X                  Y                   Z               Mass
    ------------   -----------------  -----------------  -----------------  -----------------
         O            3.061203152984    -0.717718206832     0.002144784243    15.994914619570
         N           -1.100137847016    -1.156784206832     0.002004784243    14.003074004430
         C            0.950240152984     0.063830793168     0.002069784243    12.000000000000
         C           -0.513987847016     0.063415793168     0.002080784243    12.000000000000
         C            1.855581152984     1.175865793168     0.001982784243    12.000000000000
         C           -1.259150847016     1.251374793168     0.002167784243    12.000000000000
         C            1.741167152984    -1.059478206832     0.002162784243    12.000000000000
         C           -2.649909847016     1.180189793168     0.002165784243    12.000000000000
         C            3.114125152984     0.647921793168     0.002038784243    12.000000000000
         C           -3.259086847016    -0.073648206832     0.002086784243    12.000000000000
         C           -2.440896847016    -1.204769206832     0.002012784243    12.000000000000
         H            1.616093152984     2.230780793168     0.001872784243     1.007825032230
         H           -0.757678847016     2.215098793168     0.002242784243     1.007825032230
         H            1.515741152984    -2.114700206832     0.002242784243     1.007825032230
         H            4.105038152984     1.077276793168     0.002012784243     1.007825032230
         H           -3.246929847016     2.089055793168     0.002229784243     1.007825032230
         H           -4.340455547016    -0.176806006832    -0.297917215757     1.007825032230
         H           -2.875979847016    -2.203162206832     0.001953784243     1.007825032230

  Basis Set: AUG-CC-PVTZ
    Blend: AUG-CC-PVTZ
  Basis Set: (AUG-CC-PVTZ AUX)
    Blend: AUG-CC-PVTZ-JKFIT
	 Reference Energy          =    -474.3250519324669767 [Eh]
	 Singles Energy            =      -0.0000000000000000 [Eh]
	 Same-Spin Energy          =      -0.5144176638734244 [Eh]
	 Opposite-Spin Energy      =      -1.5574908045771789 [Eh]
	 Correlation Energy        =      -2.0719084684506033 [Eh]
	 Total Energy              =    -476.3969604009175782 [Eh]

	 ================> DF-SCS-MP2 Energies <==================
	-----------------------------------------------------------
	 SCS Same-Spin Scale       =       0.3333333333333333 [-]
	 SCS Opposite-Spin Scale   =       1.2000000000000000 [-]
	 SCS Same-Spin Energy      =      -0.1714725546244748 [Eh]
	 SCS Opposite-Spin Energy  =      -1.8689889654926146 [Eh]
	 SCS Correlation Energy    =      -2.0404615201170895 [Eh]
	 SCS Total Energy          =    -476.3655134525840822 [Eh]
	-----------------------------------------------------------

  Dipole Moment: [D]
     X:    -1.2571      Y:     2.0271      Z:    -0.1841     Total:     2.3924

*** Psi4 exiting successfully. Buy a developer a beer!
