                               Psi4 1.4a2.dev612

  ==> Input File <==

--------------------------------------------------------------------------
#psi4
#
memory 32 gb

molecule  {
0 1
  O        3.0870850    -0.7380670     0.0000600
  N       -1.0742560    -1.1771330    -0.0000800
  C        0.9761220     0.0434820    -0.0000150
  C       -0.4881060     0.0430670    -0.0000040
  C        1.8814630     1.1555170    -0.0001020
  C       -1.2332690     1.2310260     0.0000830
  C        1.7670490    -1.0798270     0.0000780
  C       -2.6240280     1.1598410     0.0000810
  C        3.1400070     0.6275730    -0.0000460
  C       -3.2332050    -0.0939970     0.0000020
  C       -2.4150150    -1.2251180    -0.0000720
  H        1.6419750     2.2104320    -0.0002120
  H       -0.7317970     2.1947500     0.0001580
  H        1.5416230    -2.1350490     0.0001580
  H        4.1309200     1.0569280    -0.0000720
  H       -3.2210480     2.0687070     0.0001450
  H       -4.3145734    -0.1971612    -0.2000020
  H       -2.8500980    -2.2235110    -0.0001310
units angstrom
no_reorient  #important for SAPT in psi4, default
symmetry c1  #important for SAPT in psi4, default
}

set PROPERTIES_ORIGIN ["COM"]
properties('MP2/aug-cc-pvtz', properties = ['dipole'])
--------------------------------------------------------------------------

    Molecular point group: c1
  Charge       = 0
  Multiplicity = 1
  Basis Set: AUG-CC-PVTZ
    Blend: AUG-CC-PVTZ
  Basis Set: (AUG-CC-PVTZ AUX)
    Blend: AUG-CC-PVTZ-JKFIT

    Orbital Energies [Eh]
    ---------------------

    Doubly Occupied:

       1A    -20.628868     2A    -15.565825     3A    -11.294112
       4A    -11.293523     5A    -11.292689     6A    -11.279814
       7A    -11.263628     8A    -11.243509     9A    -11.242576
      10A    -11.239368    11A    -11.237452    12A     -1.459103
      13A     -1.258841    14A     -1.105715    15A     -1.088584
      16A     -1.033952    17A     -0.998216    18A     -0.875006
      19A     -0.863458    20A     -0.796133    21A     -0.777838
      22A     -0.745125    23A     -0.685147    24A     -0.662241
      25A     -0.645751    26A     -0.635880    27A     -0.607139
      28A     -0.584697    29A     -0.575429    30A     -0.572039
      31A     -0.549115    32A     -0.538192    33A     -0.519279
      34A     -0.425454    35A     -0.421110    36A     -0.383894
      37A     -0.348782    38A     -0.299153

  @DF-RHF Final Energy:  -474.32858460078842

   => Energetics <=

    Nuclear Repulsion Energy =            539.8111125886588297
    One-Electron Energy =               -1714.2061192219525765
    Two-Electron Energy =                 700.0664220325052156
    Total Energy =                       -474.3285846007884174
  Basis Set: (AUG-CC-PVTZ AUX)
    Blend: AUG-CC-PVTZ-RI
    Molecular point group: c1

    Geometry (in Angstrom), charge = 0, multiplicity = 1:

       Center              X                  Y                   Z               Mass
    ------------   -----------------  -----------------  -----------------  -----------------
         O            3.061203150899    -0.717718162365     0.001449985326    15.994914619570
         N           -1.100137849101    -1.156784162365     0.001309985326    14.003074004430
         C            0.950240150899     0.063830837635     0.001374985326    12.000000000000
         C           -0.513987849101     0.063415837635     0.001385985326    12.000000000000
         C            1.855581150899     1.175865837635     0.001287985326    12.000000000000
         C           -1.259150849101     1.251374837635     0.001472985326    12.000000000000
         C            1.741167150899    -1.059478162365     0.001467985326    12.000000000000
         C           -2.649909849101     1.180189837635     0.001470985326    12.000000000000
         C            3.114125150899     0.647921837635     0.001343985326    12.000000000000
         C           -3.259086849101    -0.073648162365     0.001391985326    12.000000000000
         C           -2.440896849101    -1.204769162365     0.001317985326    12.000000000000
         H            1.616093150899     2.230780837635     0.001177985326     1.007825032230
         H           -0.757678849101     2.215098837635     0.001547985326     1.007825032230
         H            1.515741150899    -2.114700162365     0.001547985326     1.007825032230
         H            4.105038150899     1.077276837635     0.001317985326     1.007825032230
         H           -3.246929849101     2.089055837635     0.001534985326     1.007825032230
         H           -4.340455249101    -0.176812362365    -0.198612014674     1.007825032230
         H           -2.875979849101    -2.203162162365     0.001258985326     1.007825032230

  Basis Set: AUG-CC-PVTZ
    Blend: AUG-CC-PVTZ
  Basis Set: (AUG-CC-PVTZ AUX)
    Blend: AUG-CC-PVTZ-JKFIT
	 Reference Energy          =    -474.3285846007884174 [Eh]
	 Singles Energy            =      -0.0000000000000000 [Eh]
	 Same-Spin Energy          =      -0.5142977609782805 [Eh]
	 Opposite-Spin Energy      =      -1.5571558183325069 [Eh]
	 Correlation Energy        =      -2.0714535793107873 [Eh]
	 Total Energy              =    -476.4000381800992159 [Eh]

	 ================> DF-SCS-MP2 Energies <==================
	-----------------------------------------------------------
	 SCS Same-Spin Scale       =       0.3333333333333333 [-]
	 SCS Opposite-Spin Scale   =       1.2000000000000000 [-]
	 SCS Same-Spin Energy      =      -0.1714325869927601 [Eh]
	 SCS Opposite-Spin Energy  =      -1.8685869819990082 [Eh]
	 SCS Correlation Energy    =      -2.0400195689917684 [Eh]
	 SCS Total Energy          =    -476.3686041697802125 [Eh]
	-----------------------------------------------------------

  Dipole Moment: [D]
     X:    -1.3048      Y:     2.0242      Z:    -0.1242     Total:     2.4115

*** Psi4 exiting successfully. Buy a developer a beer!
