                               Psi4 1.4a2.dev612

  ==> Input File <==

--------------------------------------------------------------------------
#psi4
#
memory 32 gb

molecule  {
0 1
  O        3.0870850    -0.7380670     0.0000600
  N       -1.0742560    -1.1771330    -0.0000800
  C        0.9761220     0.0434820    -0.0000150
  C       -0.4881060     0.0430670    -0.0000040
  C        1.8814630     1.1555170    -0.0001020
  C       -1.2332690     1.2310260     0.0000830
  C        1.7670490    -1.0798270     0.0000780
  C       -2.6240280     1.1598410     0.0000810
  C        3.1400070     0.6275730    -0.0000460
  C       -3.2332050    -0.0939970     0.0000020
  C       -2.4150150    -1.2251180    -0.0000720
  H        1.6419750     2.2104320    -0.0002120
  H       -0.7317970     2.1947500     0.0001580
  H        1.5416230    -2.1350490     0.0001580
  H        4.1309200     1.0569280    -0.0000720
  H       -3.2210480     2.0687070     0.0001450
  H       -4.3145730    -0.1971740    -0.0000020
  H       -2.8500980    -2.2235110    -0.0001310
units angstrom
no_reorient  #important for SAPT in psi4, default
symmetry c1  #important for SAPT in psi4, default
}

set PROPERTIES_ORIGIN ["COM"]
properties('MP2/aug-cc-pvtz', properties = ['dipole'])
--------------------------------------------------------------------------

    Molecular point group: c1
  Charge       = 0
  Multiplicity = 1
  Basis Set: AUG-CC-PVTZ
    Blend: AUG-CC-PVTZ
  Basis Set: (AUG-CC-PVTZ AUX)
    Blend: AUG-CC-PVTZ-JKFIT

    Orbital Energies [Eh]
    ---------------------

    Doubly Occupied:

       1A    -20.628655     2A    -15.565694     3A    -11.293829
       4A    -11.293351     5A    -11.292288     6A    -11.279498
       7A    -11.263374     8A    -11.243405     9A    -11.241124
      10A    -11.239158    11A    -11.237270    12A     -1.458893
      13A     -1.258620    14A     -1.105558    15A     -1.088624
      16A     -1.033983    17A     -0.998216    18A     -0.875548
      19A     -0.863419    20A     -0.796058    21A     -0.777669
      22A     -0.744966    23A     -0.687232    24A     -0.662519
      25A     -0.646338    26A     -0.635685    27A     -0.606975
      28A     -0.585652    29A     -0.575345    30A     -0.571875
      31A     -0.548930    32A     -0.538095    33A     -0.520547
      34A     -0.424655    35A     -0.421999    36A     -0.383844
      37A     -0.348749    38A     -0.299029

  @DF-RHF Final Energy:  -474.33112193640414

   => Energetics <=

    Nuclear Repulsion Energy =            539.8794054216766654
    One-Electron Energy =               -1714.3477224809148538
    Two-Electron Energy =                 700.1371951228341004
    Total Energy =                       -474.3311219364040880
  Basis Set: (AUG-CC-PVTZ AUX)
    Blend: AUG-CC-PVTZ-RI
    Molecular point group: c1

    Geometry (in Angstrom), charge = 0, multiplicity = 1:

       Center              X                  Y                   Z               Mass
    ------------   -----------------  -----------------  -----------------  -----------------
         O            3.061203148120    -0.717718073431     0.000060387492    15.994914619570
         N           -1.100137851880    -1.156784073431    -0.000079612508    14.003074004430
         C            0.950240148120     0.063830926569    -0.000014612508    12.000000000000
         C           -0.513987851880     0.063415926569    -0.000003612508    12.000000000000
         C            1.855581148120     1.175865926569    -0.000101612508    12.000000000000
         C           -1.259150851880     1.251374926569     0.000083387492    12.000000000000
         C            1.741167148120    -1.059478073431     0.000078387492    12.000000000000
         C           -2.649909851880     1.180189926569     0.000081387492    12.000000000000
         C            3.114125148120     0.647921926569    -0.000045612508    12.000000000000
         C           -3.259086851880    -0.073648073431     0.000002387492    12.000000000000
         C           -2.440896851880    -1.204769073431    -0.000071612508    12.000000000000
         H            1.616093148120     2.230780926569    -0.000211612508     1.007825032230
         H           -0.757678851880     2.215098926569     0.000158387492     1.007825032230
         H            1.515741148120    -2.114700073431     0.000158387492     1.007825032230
         H            4.105038148120     1.077276926569    -0.000071612508     1.007825032230
         H           -3.246929851880     2.089055926569     0.000145387492     1.007825032230
         H           -4.340454851880    -0.176825073431    -0.000001612508     1.007825032230
         H           -2.875979851880    -2.203162073431    -0.000130612508     1.007825032230

  Basis Set: AUG-CC-PVTZ
    Blend: AUG-CC-PVTZ
  Basis Set: (AUG-CC-PVTZ AUX)
    Blend: AUG-CC-PVTZ-JKFIT
	 Reference Energy          =    -474.3311219364041449 [Eh]
	 Singles Energy            =      -0.0000000000000000 [Eh]
	 Same-Spin Energy          =      -0.5142009852227649 [Eh]
	 Opposite-Spin Energy      =      -1.5569509743126559 [Eh]
	 Correlation Energy        =      -2.0711519595354209 [Eh]
	 Total Energy              =    -476.4022738959395724 [Eh]

	 ================> DF-SCS-MP2 Energies <==================
	-----------------------------------------------------------
	 SCS Same-Spin Scale       =       0.3333333333333333 [-]
	 SCS Opposite-Spin Scale   =       1.2000000000000000 [-]
	 SCS Same-Spin Energy      =      -0.1714003284075883 [Eh]
	 SCS Opposite-Spin Energy  =      -1.8683411691751870 [Eh]
	 SCS Correlation Energy    =      -2.0397414975827752 [Eh]
	 SCS Total Energy          =    -476.3708634339869263 [Eh]
	-----------------------------------------------------------

  Dipole Moment: [D]
     X:    -1.3439      Y:     2.0219      Z:     0.0001     Total:     2.4278

*** Psi4 exiting successfully. Buy a developer a beer!
