                               Psi4 1.4a2.dev612

  ==> Input File <==

--------------------------------------------------------------------------
#psi4
#
memory 32 gb

molecule  {
0 1
  O        3.0870850    -0.7380670     0.0000600
  N       -1.0742560    -1.1771330    -0.0000800
  C        0.9761220     0.0434820    -0.0000150
  C       -0.4881060     0.0430670    -0.0000040
  C        1.8814630     1.1555170    -0.0001020
  C       -1.2332690     1.2310260     0.0000830
  C        1.7670490    -1.0798270     0.0000780
  C       -2.6240280     1.1598410     0.0000810
  C        3.1400070     0.6275730    -0.0000460
  C       -3.2332050    -0.0939970     0.0000020
  C       -2.4150150    -1.2251180    -0.0000720
  H        1.6419717     2.2104603     0.2997880
  H       -0.7317970     2.1947500     0.0001580
  H        1.5416230    -2.1350490     0.0001580
  H        4.1309200     1.0569280    -0.0000720
  H       -3.2210480     2.0687070     0.0001450
  H       -4.3145730    -0.1971740    -0.0000020
  H       -2.8500980    -2.2235110    -0.0001310
units angstrom
no_reorient  #important for SAPT in psi4, default
symmetry c1  #important for SAPT in psi4, default
}

set PROPERTIES_ORIGIN ["COM"]
properties('MP2/aug-cc-pvtz', properties = ['dipole'])
--------------------------------------------------------------------------

    Molecular point group: c1
  Charge       = 0
  Multiplicity = 1
  Basis Set: AUG-CC-PVTZ
    Blend: AUG-CC-PVTZ
  Basis Set: (AUG-CC-PVTZ AUX)
    Blend: AUG-CC-PVTZ-JKFIT

    Orbital Energies [Eh]
    ---------------------

    Doubly Occupied:

       1A    -20.629517     2A    -15.565650     3A    -11.295130
       4A    -11.294082     5A    -11.292092     6A    -11.279366
       7A    -11.263157     8A    -11.243112     9A    -11.241054
      10A    -11.240755    11A    -11.239044    12A     -1.459780
      13A     -1.258520    14A     -1.105375    15A     -1.088435
      16A     -1.033754    17A     -0.998468    18A     -0.875514
      19A     -0.863109    20A     -0.792611    21A     -0.777888
      22A     -0.742955    23A     -0.687006    24A     -0.661871
      25A     -0.645855    26A     -0.636647    27A     -0.607084
      28A     -0.585718    29A     -0.573754    30A     -0.565618
      31A     -0.548733    32A     -0.538304    33A     -0.520202
      34A     -0.424152    35A     -0.421817    36A     -0.383594
      37A     -0.348734    38A     -0.299277

  @DF-RHF Final Energy:  -474.32545624977263

   => Energetics <=

    Nuclear Repulsion Energy =            539.7183694003331311
    One-Electron Energy =               -1714.0321792025179093
    Two-Electron Energy =                 699.9883535524121498
    Total Energy =                       -474.3254562497726283
  Basis Set: (AUG-CC-PVTZ AUX)
    Blend: AUG-CC-PVTZ-RI
    Molecular point group: c1

    Geometry (in Angstrom), charge = 0, multiplicity = 1:

       Center              X                  Y                   Z               Mass
    ------------   -----------------  -----------------  -----------------  -----------------
         O            3.061203171048    -0.717718270059    -0.002024009259    15.994914619570
         N           -1.100137828952    -1.156784270059    -0.002164009259    14.003074004430
         C            0.950240171048     0.063830729941    -0.002099009259    12.000000000000
         C           -0.513987828952     0.063415729941    -0.002088009259    12.000000000000
         C            1.855581171048     1.175865729941    -0.002186009259    12.000000000000
         C           -1.259150828952     1.251374729941    -0.002001009259    12.000000000000
         C            1.741167171048    -1.059478270059    -0.002006009259    12.000000000000
         C           -2.649909828952     1.180189729941    -0.002003009259    12.000000000000
         C            3.114125171048     0.647921729941    -0.002130009259    12.000000000000
         C           -3.259086828952    -0.073648270059    -0.002082009259    12.000000000000
         C           -2.440896828952    -1.204769270059    -0.002156009259    12.000000000000
         H            1.616089871048     2.230809029941     0.297703990741     1.007825032230
         H           -0.757678828952     2.215098729941    -0.001926009259     1.007825032230
         H            1.515741171048    -2.114700270059    -0.001926009259     1.007825032230
         H            4.105038171048     1.077276729941    -0.002156009259     1.007825032230
         H           -3.246929828952     2.089055729941    -0.001939009259     1.007825032230
         H           -4.340454828952    -0.176825270059    -0.002086009259     1.007825032230
         H           -2.875979828952    -2.203162270059    -0.002215009259     1.007825032230

  Basis Set: AUG-CC-PVTZ
    Blend: AUG-CC-PVTZ
  Basis Set: (AUG-CC-PVTZ AUX)
    Blend: AUG-CC-PVTZ-JKFIT
	 Reference Energy          =    -474.3254562497726283 [Eh]
	 Singles Energy            =      -0.0000000000000000 [Eh]
	 Same-Spin Energy          =      -0.5144977454157030 [Eh]
	 Opposite-Spin Energy      =      -1.5575846165655767 [Eh]
	 Correlation Energy        =      -2.0720823619812796 [Eh]
	 Total Energy              =    -476.3975386117539301 [Eh]

	 ================> DF-SCS-MP2 Energies <==================
	-----------------------------------------------------------
	 SCS Same-Spin Scale       =       0.3333333333333333 [-]
	 SCS Opposite-Spin Scale   =       1.2000000000000000 [-]
	 SCS Same-Spin Energy      =      -0.1714992484719010 [Eh]
	 SCS Opposite-Spin Energy  =      -1.8691015398786919 [Eh]
	 SCS Correlation Energy    =      -2.0406007883505928 [Eh]
	 SCS Total Energy          =    -476.3660570381232446 [Eh]
	-----------------------------------------------------------

  Dipole Moment: [D]
     X:    -1.3211      Y:     1.9636      Z:     0.2226     Total:     2.3771

*** Psi4 exiting successfully. Buy a developer a beer!
