                               Psi4 1.4a2.dev612

  ==> Input File <==

--------------------------------------------------------------------------
#psi4
#
memory 32 gb

molecule  {
0 1
  O        3.0870850    -0.7380670     0.0000600
  N       -1.0742560    -1.1771330    -0.0000800
  C        0.9761220     0.0434820    -0.0000150
  C       -0.4881060     0.0430670    -0.0000040
  C        1.8814630     1.1555170    -0.0001020
  C       -1.2332686     1.2310226     0.0500830
  C        1.7670490    -1.0798270     0.0000780
  C       -2.6240280     1.1598410     0.0000810
  C        3.1400070     0.6275730    -0.0000460
  C       -3.2332050    -0.0939970     0.0000020
  C       -2.4150150    -1.2251180    -0.0000720
  H        1.6419750     2.2104320    -0.0002120
  H       -0.7317970     2.1947500     0.0001580
  H        1.5416230    -2.1350490     0.0001580
  H        4.1309200     1.0569280    -0.0000720
  H       -3.2210480     2.0687070     0.0001450
  H       -4.3145730    -0.1971740    -0.0000020
  H       -2.8500980    -2.2235110    -0.0001310
units angstrom
no_reorient  #important for SAPT in psi4, default
symmetry c1  #important for SAPT in psi4, default
}

set PROPERTIES_ORIGIN ["COM"]
properties('MP2/aug-cc-pvtz', properties = ['dipole'])
--------------------------------------------------------------------------

    Molecular point group: c1
  Charge       = 0
  Multiplicity = 1
  Basis Set: AUG-CC-PVTZ
    Blend: AUG-CC-PVTZ
  Basis Set: (AUG-CC-PVTZ AUX)
    Blend: AUG-CC-PVTZ-JKFIT

    Orbital Energies [Eh]
    ---------------------

    Doubly Occupied:

       1A    -20.628686     2A    -15.565664     3A    -11.293891
       4A    -11.293360     5A    -11.292498     6A    -11.279614
       7A    -11.263558     8A    -11.243579     9A    -11.241082
      10A    -11.239174    11A    -11.237279    12A     -1.458924
      13A     -1.258608    14A     -1.105571    15A     -1.088489
      16A     -1.033931    17A     -0.998210    18A     -0.875456
      19A     -0.863353    20A     -0.796044    21A     -0.777670
      22A     -0.744943    23A     -0.687094    24A     -0.662316
      25A     -0.646167    26A     -0.635709    27A     -0.606951
      28A     -0.585579    29A     -0.575354    30A     -0.571839
      31A     -0.548804    32A     -0.538076    33A     -0.520416
      34A     -0.425014    35A     -0.421554    36A     -0.383790
      37A     -0.348731    38A     -0.299061

  @DF-RHF Final Energy:  -474.33039089739128

   => Energetics <=

    Nuclear Repulsion Energy =            539.8499091450283913
    One-Electron Energy =               -1714.2885209431756266
    Two-Electron Energy =                 700.1082209007557822
    Total Energy =                       -474.3303908973913394
  Basis Set: (AUG-CC-PVTZ AUX)
    Blend: AUG-CC-PVTZ-RI
    Molecular point group: c1

    Geometry (in Angstrom), charge = 0, multiplicity = 1:

       Center              X                  Y                   Z               Mass
    ------------   -----------------  -----------------  -----------------  -----------------
         O            3.061203115029    -0.717717792154    -0.004076038345    15.994914619570
         N           -1.100137884971    -1.156783792154    -0.004216038345    14.003074004430
         C            0.950240115029     0.063831207846    -0.004151038345    12.000000000000
         C           -0.513987884971     0.063416207846    -0.004140038345    12.000000000000
         C            1.855581115029     1.175866207846    -0.004238038345    12.000000000000
         C           -1.259150484971     1.251371807846     0.045946961655    12.000000000000
         C            1.741167115029    -1.059477792154    -0.004058038345    12.000000000000
         C           -2.649909884971     1.180190207846    -0.004055038345    12.000000000000
         C            3.114125115029     0.647922207846    -0.004182038345    12.000000000000
         C           -3.259086884971    -0.073647792154    -0.004134038345    12.000000000000
         C           -2.440896884971    -1.204768792154    -0.004208038345    12.000000000000
         H            1.616093115029     2.230781207846    -0.004348038345     1.007825032230
         H           -0.757678884971     2.215099207846    -0.003978038345     1.007825032230
         H            1.515741115029    -2.114699792154    -0.003978038345     1.007825032230
         H            4.105038115029     1.077277207846    -0.004208038345     1.007825032230
         H           -3.246929884971     2.089056207846    -0.003991038345     1.007825032230
         H           -4.340454884971    -0.176824792154    -0.004138038345     1.007825032230
         H           -2.875979884971    -2.203161792154    -0.004267038345     1.007825032230

  Basis Set: AUG-CC-PVTZ
    Blend: AUG-CC-PVTZ
  Basis Set: (AUG-CC-PVTZ AUX)
    Blend: AUG-CC-PVTZ-JKFIT
	 Reference Energy          =    -474.3303908973912826 [Eh]
	 Singles Energy            =      -0.0000000000000000 [Eh]
	 Same-Spin Energy          =      -0.5142213002405763 [Eh]
	 Opposite-Spin Energy      =      -1.5569446838414964 [Eh]
	 Correlation Energy        =      -2.0711659840820729 [Eh]
	 Total Energy              =    -476.4015568814733683 [Eh]

	 ================> DF-SCS-MP2 Energies <==================
	-----------------------------------------------------------
	 SCS Same-Spin Scale       =       0.3333333333333333 [-]
	 SCS Opposite-Spin Scale   =       1.2000000000000000 [-]
	 SCS Same-Spin Energy      =      -0.1714071000801921 [Eh]
	 SCS Opposite-Spin Energy  =      -1.8683336206097956 [Eh]
	 SCS Correlation Energy    =      -2.0397407206899878 [Eh]
	 SCS Total Energy          =    -476.3701316180812455 [Eh]
	-----------------------------------------------------------

  Dipole Moment: [D]
     X:    -1.3435      Y:     2.0173      Z:    -0.0153     Total:     2.4238

*** Psi4 exiting successfully. Buy a developer a beer!
