                               Psi4 1.4a2.dev612

  ==> Input File <==

--------------------------------------------------------------------------
#psi4
#
memory 32 gb

molecule  {
0 1
  O        3.0870850    -0.7380670     0.0000600
  N       -1.0742560    -1.1771330    -0.0000800
  C        0.9761220     0.0434820    -0.0000150
  C       -0.4881060     0.0430670    -0.0000040
  C        1.8814630     1.1555170    -0.0001020
  C       -1.2332690     1.2310260     0.0000830
  C        1.7670483    -1.0798431    -0.1999220
  C       -2.6240280     1.1598410     0.0000810
  C        3.1400070     0.6275730    -0.0000460
  C       -3.2332050    -0.0939970     0.0000020
  C       -2.4150150    -1.2251180    -0.0000720
  H        1.6419750     2.2104320    -0.0002120
  H       -0.7317970     2.1947500     0.0001580
  H        1.5416230    -2.1350490     0.0001580
  H        4.1309200     1.0569280    -0.0000720
  H       -3.2210480     2.0687070     0.0001450
  H       -4.3145730    -0.1971740    -0.0000020
  H       -2.8500980    -2.2235110    -0.0001310
units angstrom
no_reorient  #important for SAPT in psi4, default
symmetry c1  #important for SAPT in psi4, default
}

set PROPERTIES_ORIGIN ["COM"]
properties('MP2/aug-cc-pvtz', properties = ['dipole'])
--------------------------------------------------------------------------

    Molecular point group: c1
  Charge       = 0
  Multiplicity = 1
  Basis Set: AUG-CC-PVTZ
    Blend: AUG-CC-PVTZ
  Basis Set: (AUG-CC-PVTZ AUX)
    Blend: AUG-CC-PVTZ-JKFIT

    Orbital Energies [Eh]
    ---------------------

    Doubly Occupied:

       1A    -20.626018     2A    -15.567030     3A    -11.295642
       4A    -11.293151     5A    -11.292787     6A    -11.280231
       7A    -11.264207     8A    -11.244987     9A    -11.244307
      10A    -11.242726    11A    -11.237531    12A     -1.452295
      13A     -1.259596    14A     -1.104777    15A     -1.089733
      16A     -1.034327    17A     -0.995437    18A     -0.875933
      19A     -0.864023    20A     -0.792505    21A     -0.776458
      22A     -0.741744    23A     -0.687212    24A     -0.663475
      25A     -0.646057    26A     -0.633905    27A     -0.600542
      28A     -0.585361    29A     -0.574390    30A     -0.569513
      31A     -0.550563    32A     -0.533702    33A     -0.521715
      34A     -0.424606    35A     -0.420970    36A     -0.384468
      37A     -0.348881    38A     -0.300049

  @DF-RHF Final Energy:  -474.31859193247038

   => Energetics <=

    Nuclear Repulsion Energy =            539.3514563082577524
    One-Electron Energy =               -1713.2983897302963214
    Two-Electron Energy =                 699.6283414895680153
    Total Energy =                       -474.3185919324704400
  Basis Set: (AUG-CC-PVTZ AUX)
    Blend: AUG-CC-PVTZ-RI
    Molecular point group: c1

    Geometry (in Angstrom), charge = 0, multiplicity = 1:

       Center              X                  Y                   Z               Mass
    ------------   -----------------  -----------------  -----------------  -----------------
         O            3.061203206030    -0.717716741502     0.016606090837    15.994914619570
         N           -1.100137793970    -1.156782741502     0.016466090837    14.003074004430
         C            0.950240206030     0.063832258498     0.016531090837    12.000000000000
         C           -0.513987793970     0.063417258498     0.016542090837    12.000000000000
         C            1.855581206030     1.175867258498     0.016444090837    12.000000000000
         C           -1.259150793970     1.251376258498     0.016629090837    12.000000000000
         C            1.741166506030    -1.059492841502    -0.183375909163    12.000000000000
         C           -2.649909793970     1.180191258498     0.016627090837    12.000000000000
         C            3.114125206030     0.647923258498     0.016500090837    12.000000000000
         C           -3.259086793970    -0.073646741502     0.016548090837    12.000000000000
         C           -2.440896793970    -1.204767741502     0.016474090837    12.000000000000
         H            1.616093206030     2.230782258498     0.016334090837     1.007825032230
         H           -0.757678793970     2.215100258498     0.016704090837     1.007825032230
         H            1.515741206030    -2.114698741502     0.016704090837     1.007825032230
         H            4.105038206030     1.077278258498     0.016474090837     1.007825032230
         H           -3.246929793970     2.089057258498     0.016691090837     1.007825032230
         H           -4.340454793970    -0.176823741502     0.016544090837     1.007825032230
         H           -2.875979793970    -2.203160741502     0.016415090837     1.007825032230

  Basis Set: AUG-CC-PVTZ
    Blend: AUG-CC-PVTZ
  Basis Set: (AUG-CC-PVTZ AUX)
    Blend: AUG-CC-PVTZ-JKFIT
	 Reference Energy          =    -474.3185919324703832 [Eh]
	 Singles Energy            =      -0.0000000000000000 [Eh]
	 Same-Spin Energy          =      -0.5151777137770608 [Eh]
	 Opposite-Spin Energy      =      -1.5592854376405325 [Eh]
	 Correlation Energy        =      -2.0744631514175933 [Eh]
	 Total Energy              =    -476.3930550838879867 [Eh]

	 ================> DF-SCS-MP2 Energies <==================
	-----------------------------------------------------------
	 SCS Same-Spin Scale       =       0.3333333333333333 [-]
	 SCS Opposite-Spin Scale   =       1.2000000000000000 [-]
	 SCS Same-Spin Energy      =      -0.1717259045923536 [Eh]
	 SCS Opposite-Spin Energy  =      -1.8711425251686389 [Eh]
	 SCS Correlation Energy    =      -2.0428684297609925 [Eh]
	 SCS Total Energy          =    -476.3614603622313552 [Eh]
	-----------------------------------------------------------

  Dipole Moment: [D]
     X:    -1.4342      Y:     2.1446      Z:     0.0692     Total:     2.5809

*** Psi4 exiting successfully. Buy a developer a beer!
