                               Psi4 1.4a2.dev612

  ==> Input File <==

--------------------------------------------------------------------------
#psi4
#
memory 32 gb

molecule  {
0 1
  O        3.0870850    -0.7380670     0.0000600
  N       -1.0742560    -1.1771330    -0.0000800
  C        0.9761220     0.0434820    -0.0000150
  C       -0.4881060     0.0430670    -0.0000040
  C        1.8814630     1.1555170    -0.0001020
  C       -1.2332690     1.2310260     0.0000830
  C        1.7670486    -1.0798350    -0.0999220
  C       -2.6240280     1.1598410     0.0000810
  C        3.1400070     0.6275730    -0.0000460
  C       -3.2332050    -0.0939970     0.0000020
  C       -2.4150150    -1.2251180    -0.0000720
  H        1.6419750     2.2104320    -0.0002120
  H       -0.7317970     2.1947500     0.0001580
  H        1.5416230    -2.1350490     0.0001580
  H        4.1309200     1.0569280    -0.0000720
  H       -3.2210480     2.0687070     0.0001450
  H       -4.3145730    -0.1971740    -0.0000020
  H       -2.8500980    -2.2235110    -0.0001310
units angstrom
no_reorient  #important for SAPT in psi4, default
symmetry c1  #important for SAPT in psi4, default
}

set PROPERTIES_ORIGIN ["COM"]
properties('MP2/aug-cc-pvtz', properties = ['dipole'])
--------------------------------------------------------------------------

    Molecular point group: c1
  Charge       = 0
  Multiplicity = 1
  Basis Set: AUG-CC-PVTZ
    Blend: AUG-CC-PVTZ
  Basis Set: (AUG-CC-PVTZ AUX)
    Blend: AUG-CC-PVTZ-JKFIT

    Orbital Energies [Eh]
    ---------------------

    Doubly Occupied:

       1A    -20.628000     2A    -15.566024     3A    -11.293914
       4A    -11.293675     5A    -11.292408     6A    -11.279679
       7A    -11.263580     8A    -11.243796     9A    -11.241521
      10A    -11.240426    11A    -11.237358    12A     -1.457212
      13A     -1.258861    14A     -1.105344    15A     -1.088898
      16A     -1.034056    17A     -0.997521    18A     -0.875641
      19A     -0.863561    20A     -0.795137    21A     -0.777310
      22A     -0.744134    23A     -0.687212    24A     -0.662754
      25A     -0.646285    26A     -0.635288    27A     -0.605138
      28A     -0.585583    29A     -0.574879    30A     -0.571640
      31A     -0.549427    32A     -0.536932    33A     -0.520837
      34A     -0.424526    35A     -0.421845    36A     -0.383998
      37A     -0.348779    38A     -0.299272

  @DF-RHF Final Energy:  -474.32798429886736

   => Energetics <=

    Nuclear Repulsion Energy =            539.7460391193317264
    One-Electron Energy =               -1714.0831468438771026
    Two-Electron Energy =                 700.0091234256780126
    Total Energy =                       -474.3279842988673636
  Basis Set: (AUG-CC-PVTZ AUX)
    Blend: AUG-CC-PVTZ-RI
    Molecular point group: c1

    Geometry (in Angstrom), charge = 0, multiplicity = 1:

       Center              X                  Y                   Z               Mass
    ------------   -----------------  -----------------  -----------------  -----------------
         O            3.061203181211    -0.717717411603     0.008333239164    15.994914619570
         N           -1.100137818789    -1.156783411603     0.008193239164    14.003074004430
         C            0.950240181211     0.063831588397     0.008258239164    12.000000000000
         C           -0.513987818789     0.063416588397     0.008269239164    12.000000000000
         C            1.855581181211     1.175866588397     0.008171239164    12.000000000000
         C           -1.259150818789     1.251375588397     0.008356239164    12.000000000000
         C            1.741166781211    -1.059485411603    -0.091648760836    12.000000000000
         C           -2.649909818789     1.180190588397     0.008354239164    12.000000000000
         C            3.114125181211     0.647922588397     0.008227239164    12.000000000000
         C           -3.259086818789    -0.073647411603     0.008275239164    12.000000000000
         C           -2.440896818789    -1.204768411603     0.008201239164    12.000000000000
         H            1.616093181211     2.230781588397     0.008061239164     1.007825032230
         H           -0.757678818789     2.215099588397     0.008431239164     1.007825032230
         H            1.515741181211    -2.114699411603     0.008431239164     1.007825032230
         H            4.105038181211     1.077277588397     0.008201239164     1.007825032230
         H           -3.246929818789     2.089056588397     0.008418239164     1.007825032230
         H           -4.340454818789    -0.176824411603     0.008271239164     1.007825032230
         H           -2.875979818789    -2.203161411603     0.008142239164     1.007825032230

  Basis Set: AUG-CC-PVTZ
    Blend: AUG-CC-PVTZ
  Basis Set: (AUG-CC-PVTZ AUX)
    Blend: AUG-CC-PVTZ-JKFIT
	 Reference Energy          =    -474.3279842988673636 [Eh]
	 Singles Energy            =      -0.0000000000000000 [Eh]
	 Same-Spin Energy          =      -0.5144534383472175 [Eh]
	 Opposite-Spin Energy      =      -1.5575069280620686 [Eh]
	 Correlation Energy        =      -2.0719603664092858 [Eh]
	 Total Energy              =    -476.3999446652766210 [Eh]

	 ================> DF-SCS-MP2 Energies <==================
	-----------------------------------------------------------
	 SCS Same-Spin Scale       =       0.3333333333333333 [-]
	 SCS Opposite-Spin Scale   =       1.2000000000000000 [-]
	 SCS Same-Spin Energy      =      -0.1714844794490725 [Eh]
	 SCS Opposite-Spin Energy  =      -1.8690083136744822 [Eh]
	 SCS Correlation Energy    =      -2.0404927931235548 [Eh]
	 SCS Total Energy          =    -476.3684770919909397 [Eh]
	-----------------------------------------------------------

  Dipole Moment: [D]
     X:    -1.3675      Y:     2.0538      Z:     0.0312     Total:     2.4677

*** Psi4 exiting successfully. Buy a developer a beer!
