                               Psi4 1.4a2.dev612

  ==> Input File <==

--------------------------------------------------------------------------
#psi4
#
memory 32 gb

molecule  {
0 1
  O        3.0870850    -0.7380670     0.0000600
  N       -1.0742560    -1.1771330    -0.0000800
  C        0.9761220     0.0434820    -0.0000150
  C       -0.4881060     0.0430670    -0.0000040
  C        1.8814630     1.1555170    -0.0001020
  C       -1.2332690     1.2310260     0.0000830
  C        1.7670490    -1.0798270     0.0000780
  C       -2.6240280     1.1598410     0.0000810
  C        3.1400070     0.6275730    -0.0000460
  C       -3.2332050    -0.0939970     0.0000020
  C       -2.4150150    -1.2251180    -0.0000720
  H        1.6419750     2.2104320    -0.0002120
  H       -0.7317970     2.1947575    -0.0998420
  H        1.5416230    -2.1350490     0.0001580
  H        4.1309200     1.0569280    -0.0000720
  H       -3.2210480     2.0687070     0.0001450
  H       -4.3145730    -0.1971740    -0.0000020
  H       -2.8500980    -2.2235110    -0.0001310
units angstrom
no_reorient  #important for SAPT in psi4, default
symmetry c1  #important for SAPT in psi4, default
}

set PROPERTIES_ORIGIN ["COM"]
properties('MP2/aug-cc-pvtz', properties = ['dipole'])
--------------------------------------------------------------------------

    Molecular point group: c1
  Charge       = 0
  Multiplicity = 1
  Basis Set: AUG-CC-PVTZ
    Blend: AUG-CC-PVTZ
  Basis Set: (AUG-CC-PVTZ AUX)
    Blend: AUG-CC-PVTZ-JKFIT

    Orbital Energies [Eh]
    ---------------------

    Doubly Occupied:

       1A    -20.628659     2A    -15.565728     3A    -11.293860
       4A    -11.293328     5A    -11.292370     6A    -11.279595
       7A    -11.263440     8A    -11.243771     9A    -11.241149
      10A    -11.239153    11A    -11.237239    12A     -1.458897
      13A     -1.258672    14A     -1.105557    15A     -1.088590
      16A     -1.033943    17A     -0.998197    18A     -0.875553
      19A     -0.863224    20A     -0.796017    21A     -0.777678
      22A     -0.744924    23A     -0.686926    24A     -0.662549
      25A     -0.645855    26A     -0.635679    27A     -0.606899
      28A     -0.585532    29A     -0.575338    30A     -0.571854
      31A     -0.548969    32A     -0.538044    33A     -0.520249
      34A     -0.424666    35A     -0.422047    36A     -0.383759
      37A     -0.348722    38A     -0.299039

  @DF-RHF Final Energy:  -474.33052277043049

   => Energetics <=

    Nuclear Repulsion Energy =            539.8602156298795762
    One-Electron Energy =               -1714.3101404306059976
    Two-Electron Energy =                 700.1194020302959871
    Total Energy =                       -474.3305227704304343
  Basis Set: (AUG-CC-PVTZ AUX)
    Blend: AUG-CC-PVTZ-RI
    Molecular point group: c1

    Geometry (in Angstrom), charge = 0, multiplicity = 1:

       Center              X                  Y                   Z               Mass
    ------------   -----------------  -----------------  -----------------  -----------------
         O            3.061203148120    -0.717718125541     0.000755186409    15.994914619570
         N           -1.100137851880    -1.156784125541     0.000615186409    14.003074004430
         C            0.950240148120     0.063830874459     0.000680186409    12.000000000000
         C           -0.513987851880     0.063415874459     0.000691186409    12.000000000000
         C            1.855581148120     1.175865874459     0.000593186409    12.000000000000
         C           -1.259150851880     1.251374874459     0.000778186409    12.000000000000
         C            1.741167148120    -1.059478125541     0.000773186409    12.000000000000
         C           -2.649909851880     1.180189874459     0.000776186409    12.000000000000
         C            3.114125148120     0.647921874459     0.000649186409    12.000000000000
         C           -3.259086851880    -0.073648125541     0.000697186409    12.000000000000
         C           -2.440896851880    -1.204769125541     0.000623186409    12.000000000000
         H            1.616093148120     2.230780874459     0.000483186409     1.007825032230
         H           -0.757678851880     2.215106374459    -0.099146813591     1.007825032230
         H            1.515741148120    -2.114700125541     0.000853186409     1.007825032230
         H            4.105038148120     1.077276874459     0.000623186409     1.007825032230
         H           -3.246929851880     2.089055874459     0.000840186409     1.007825032230
         H           -4.340454851880    -0.176825125541     0.000693186409     1.007825032230
         H           -2.875979851880    -2.203162125541     0.000564186409     1.007825032230

  Basis Set: AUG-CC-PVTZ
    Blend: AUG-CC-PVTZ
  Basis Set: (AUG-CC-PVTZ AUX)
    Blend: AUG-CC-PVTZ-JKFIT
	 Reference Energy          =    -474.3305227704304912 [Eh]
	 Singles Energy            =      -0.0000000000000000 [Eh]
	 Same-Spin Energy          =      -0.5142279723223069 [Eh]
	 Opposite-Spin Energy      =      -1.5569566073897376 [Eh]
	 Correlation Energy        =      -2.0711845797120443 [Eh]
	 Total Energy              =    -476.4017073501425443 [Eh]

	 ================> DF-SCS-MP2 Energies <==================
	-----------------------------------------------------------
	 SCS Same-Spin Scale       =       0.3333333333333333 [-]
	 SCS Opposite-Spin Scale   =       1.2000000000000000 [-]
	 SCS Same-Spin Energy      =      -0.1714093241074356 [Eh]
	 SCS Opposite-Spin Energy  =      -1.8683479288676850 [Eh]
	 SCS Correlation Energy    =      -2.0397572529751207 [Eh]
	 SCS Total Energy          =    -476.3702800234055985 [Eh]
	-----------------------------------------------------------

  Dipole Moment: [D]
     X:    -1.3465      Y:     2.0156      Z:    -0.0568     Total:     2.4247

*** Psi4 exiting successfully. Buy a developer a beer!
