                               Psi4 1.4a2.dev612

  ==> Input File <==

--------------------------------------------------------------------------
#psi4
#
memory 32 gb

molecule  {
0 1
  O        3.0870850    -0.7380670     0.0000600
  N       -1.0742560    -1.1771330    -0.0000800
  C        0.9761220     0.0434820    -0.0000150
  C       -0.4881060     0.0430670    -0.0000040
  C        1.8814630     1.1555170    -0.0001020
  C       -1.2332690     1.2310260     0.0000830
  C        1.7670490    -1.0798270     0.0000780
  C       -2.6240280     1.1598410     0.0000810
  C        3.1400070     0.6275730    -0.0000460
  C       -3.2332050    -0.0939970     0.0000020
  C       -2.4150150    -1.2251180    -0.0000720
  H        1.6419750     2.2104320    -0.0002120
  H       -0.7317970     2.1947500     0.0001580
  H        1.5416230    -2.1350490     0.0001580
  H        4.1309200     1.0569280    -0.0000720
  H       -3.2210480     2.0687070     0.0001450
  H       -4.3145730    -0.1971740    -0.0000020
  H       -2.8500962    -2.2235263     0.2498690
units angstrom
no_reorient  #important for SAPT in psi4, default
symmetry c1  #important for SAPT in psi4, default
}

set PROPERTIES_ORIGIN ["COM"]
properties('MP2/aug-cc-pvtz', properties = ['dipole'])
--------------------------------------------------------------------------

    Molecular point group: c1
  Charge       = 0
  Multiplicity = 1
  Basis Set: AUG-CC-PVTZ
    Blend: AUG-CC-PVTZ
  Basis Set: (AUG-CC-PVTZ AUX)
    Blend: AUG-CC-PVTZ-JKFIT

    Orbital Energies [Eh]
    ---------------------

    Doubly Occupied:

       1A    -20.628786     2A    -15.566138     3A    -11.293970
       4A    -11.293480     5A    -11.292624     6A    -11.282208
       7A    -11.263608     8A    -11.243861     9A    -11.241603
      10A    -11.239319    11A    -11.237411    12A     -1.459020
      13A     -1.258874    14A     -1.105627    15A     -1.088944
      16A     -1.033735    17A     -0.998248    18A     -0.875768
      19A     -0.861967    20A     -0.795510    21A     -0.777731
      22A     -0.744284    23A     -0.686867    24A     -0.662701
      25A     -0.643835    26A     -0.635801    27A     -0.606470
      28A     -0.585113    29A     -0.575371    30A     -0.572072
      31A     -0.549150    32A     -0.538250    33A     -0.518078
      34A     -0.426714    35A     -0.419989    36A     -0.383713
      37A     -0.348503    38A     -0.299143

  @DF-RHF Final Energy:  -474.32663472148863

   => Energetics <=

    Nuclear Repulsion Energy =            539.7704401211854019
    One-Electron Energy =               -1714.1251810612625377
    Two-Electron Energy =                 700.0281062185885048
    Total Energy =                       -474.3266347214886309
  Basis Set: (AUG-CC-PVTZ AUX)
    Blend: AUG-CC-PVTZ-RI
    Molecular point group: c1

    Geometry (in Angstrom), charge = 0, multiplicity = 1:

       Center              X                  Y                   Z               Mass
    ------------   -----------------  -----------------  -----------------  -----------------
         O            3.061203135614    -0.717717967127    -0.001676609801    15.994914619570
         N           -1.100137864386    -1.156783967127    -0.001816609801    14.003074004430
         C            0.950240135614     0.063831032873    -0.001751609801    12.000000000000
         C           -0.513987864386     0.063416032873    -0.001740609801    12.000000000000
         C            1.855581135614     1.175866032873    -0.001838609801    12.000000000000
         C           -1.259150864386     1.251375032873    -0.001653609801    12.000000000000
         C            1.741167135614    -1.059477967127    -0.001658609801    12.000000000000
         C           -2.649909864386     1.180190032873    -0.001655609801    12.000000000000
         C            3.114125135614     0.647922032873    -0.001782609801    12.000000000000
         C           -3.259086864386    -0.073647967127    -0.001734609801    12.000000000000
         C           -2.440896864386    -1.204768967127    -0.001808609801    12.000000000000
         H            1.616093135614     2.230781032873    -0.001948609801     1.007825032230
         H           -0.757678864386     2.215099032873    -0.001578609801     1.007825032230
         H            1.515741135614    -2.114699967127    -0.001578609801     1.007825032230
         H            4.105038135614     1.077277032873    -0.001808609801     1.007825032230
         H           -3.246929864386     2.089056032873    -0.001591609801     1.007825032230
         H           -4.340454864386    -0.176824967127    -0.001738609801     1.007825032230
         H           -2.875978064386    -2.203177267127     0.248132390199     1.007825032230

  Basis Set: AUG-CC-PVTZ
    Blend: AUG-CC-PVTZ
  Basis Set: (AUG-CC-PVTZ AUX)
    Blend: AUG-CC-PVTZ-JKFIT
	 Reference Energy          =    -474.3266347214886309 [Eh]
	 Singles Energy            =      -0.0000000000000000 [Eh]
	 Same-Spin Energy          =      -0.5144674271886567 [Eh]
	 Opposite-Spin Energy      =      -1.5575003321352987 [Eh]
	 Correlation Energy        =      -2.0719677593239556 [Eh]
	 Total Energy              =    -476.3986024808125990 [Eh]

	 ================> DF-SCS-MP2 Energies <==================
	-----------------------------------------------------------
	 SCS Same-Spin Scale       =       0.3333333333333333 [-]
	 SCS Opposite-Spin Scale   =       1.2000000000000000 [-]
	 SCS Same-Spin Energy      =      -0.1714891423962189 [Eh]
	 SCS Opposite-Spin Energy  =      -1.8690003985623584 [Eh]
	 SCS Correlation Energy    =      -2.0404895409585775 [Eh]
	 SCS Total Energy          =    -476.3671242624471915 [Eh]
	-----------------------------------------------------------

  Dipole Moment: [D]
     X:    -1.3114      Y:     2.0649      Z:     0.1271     Total:     2.4494

*** Psi4 exiting successfully. Buy a developer a beer!
