                               Psi4 1.4a2.dev612

  ==> Input File <==

--------------------------------------------------------------------------
#psi4
#
memory 32 gb

molecule  {
0 1
  O        3.0870850    -0.7380670     0.0000600
  N       -1.0742560    -1.1771330    -0.0000800
  C        0.9761220     0.0434820    -0.0000150
  C       -0.4881060     0.0430670    -0.0000040
  C        1.8814630     1.1555170    -0.0001020
  C       -1.2332690     1.2310260     0.0000830
  C        1.7670488    -1.0798310    -0.0499220
  C       -2.6240280     1.1598410     0.0000810
  C        3.1400070     0.6275730    -0.0000460
  C       -3.2332050    -0.0939970     0.0000020
  C       -2.4150150    -1.2251180    -0.0000720
  H        1.6419750     2.2104320    -0.0002120
  H       -0.7317970     2.1947500     0.0001580
  H        1.5416230    -2.1350490     0.0001580
  H        4.1309200     1.0569280    -0.0000720
  H       -3.2210480     2.0687070     0.0001450
  H       -4.3145730    -0.1971740    -0.0000020
  H       -2.8500980    -2.2235110    -0.0001310
units angstrom
no_reorient  #important for SAPT in psi4, default
symmetry c1  #important for SAPT in psi4, default
}

set PROPERTIES_ORIGIN ["COM"]
properties('MP2/aug-cc-pvtz', properties = ['dipole'])
--------------------------------------------------------------------------

    Molecular point group: c1
  Charge       = 0
  Multiplicity = 1
  Basis Set: AUG-CC-PVTZ
    Blend: AUG-CC-PVTZ
  Basis Set: (AUG-CC-PVTZ AUX)
    Blend: AUG-CC-PVTZ-JKFIT

    Orbital Energies [Eh]
    ---------------------

    Doubly Occupied:

       1A    -20.628491     2A    -15.565776     3A    -11.293793
       4A    -11.293489     5A    -11.292317     6A    -11.279543
       7A    -11.263425     8A    -11.243502     9A    -11.241223
      10A    -11.239470    11A    -11.237297    12A     -1.458470
      13A     -1.258680    14A     -1.105503    15A     -1.088692
      16A     -1.034000    17A     -0.998042    18A     -0.875571
      19A     -0.863454    20A     -0.795825    21A     -0.777575
      22A     -0.744757    23A     -0.687226    24A     -0.662577
      25A     -0.646327    26A     -0.635589    27A     -0.606501
      28A     -0.585635    29A     -0.575217    30A     -0.571835
      31A     -0.549062    32A     -0.537797    33A     -0.520619
      34A     -0.424614    35A     -0.421969    36A     -0.383883
      37A     -0.348756    38A     -0.299089

  @DF-RHF Final Energy:  -474.33033724969363

   => Energetics <=

    Nuclear Repulsion Energy =            539.8459762194147515
    One-Electron Energy =               -1714.2814413789797072
    Two-Electron Energy =                 700.1051279098713849
    Total Energy =                       -474.3303372496935708
  Basis Set: (AUG-CC-PVTZ AUX)
    Blend: AUG-CC-PVTZ-RI
    Molecular point group: c1

    Geometry (in Angstrom), charge = 0, multiplicity = 1:

       Center              X                  Y                   Z               Mass
    ------------   -----------------  -----------------  -----------------  -----------------
         O            3.061203164666    -0.717717742517     0.004196813328    15.994914619570
         N           -1.100137835334    -1.156783742517     0.004056813328    14.003074004430
         C            0.950240164666     0.063831257483     0.004121813328    12.000000000000
         C           -0.513987835334     0.063416257483     0.004132813328    12.000000000000
         C            1.855581164666     1.175866257483     0.004034813328    12.000000000000
         C           -1.259150835334     1.251375257483     0.004219813328    12.000000000000
         C            1.741166964666    -1.059481742517    -0.045785186672    12.000000000000
         C           -2.649909835334     1.180190257483     0.004217813328    12.000000000000
         C            3.114125164666     0.647922257483     0.004090813328    12.000000000000
         C           -3.259086835334    -0.073647742517     0.004138813328    12.000000000000
         C           -2.440896835334    -1.204768742517     0.004064813328    12.000000000000
         H            1.616093164666     2.230781257483     0.003924813328     1.007825032230
         H           -0.757678835334     2.215099257483     0.004294813328     1.007825032230
         H            1.515741164666    -2.114699742517     0.004294813328     1.007825032230
         H            4.105038164666     1.077277257483     0.004064813328     1.007825032230
         H           -3.246929835334     2.089056257483     0.004281813328     1.007825032230
         H           -4.340454835334    -0.176824742517     0.004134813328     1.007825032230
         H           -2.875979835334    -2.203161742517     0.004005813328     1.007825032230

  Basis Set: AUG-CC-PVTZ
    Blend: AUG-CC-PVTZ
  Basis Set: (AUG-CC-PVTZ AUX)
    Blend: AUG-CC-PVTZ-JKFIT
	 Reference Energy          =    -474.3303372496936277 [Eh]
	 Singles Energy            =      -0.0000000000000000 [Eh]
	 Same-Spin Energy          =      -0.5142644334535869 [Eh]
	 Opposite-Spin Energy      =      -1.5570834252717169 [Eh]
	 Correlation Energy        =      -2.0713478587253036 [Eh]
	 Total Energy              =    -476.4016851084189170 [Eh]

	 ================> DF-SCS-MP2 Energies <==================
	-----------------------------------------------------------
	 SCS Same-Spin Scale       =       0.3333333333333333 [-]
	 SCS Opposite-Spin Scale   =       1.2000000000000000 [-]
	 SCS Same-Spin Energy      =      -0.1714214778178623 [Eh]
	 SCS Opposite-Spin Energy  =      -1.8685001103260603 [Eh]
	 SCS Correlation Energy    =      -2.0399215881439225 [Eh]
	 SCS Total Energy          =    -476.3702588378375253 [Eh]
	-----------------------------------------------------------

  Dipole Moment: [D]
     X:    -1.3499      Y:     2.0300      Z:     0.0151     Total:     2.4379

*** Psi4 exiting successfully. Buy a developer a beer!
