                               Psi4 1.4a2.dev612

  ==> Input File <==

--------------------------------------------------------------------------
#psi4
#
memory 32 gb

molecule  {
0 1
  O        3.0870850    -0.7380670     0.0000600
  N       -1.0742560    -1.1771330    -0.0000800
  C        0.9761220     0.0434820    -0.0000150
  C       -0.4881060     0.0430670    -0.0000040
  C        1.8814630     1.1555170    -0.0001020
  C       -1.2332690     1.2310260     0.0000830
  C        1.7670490    -1.0798270     0.0000780
  C       -2.6240280     1.1598410     0.0000810
  C        3.1400070     0.6275730    -0.0000460
  C       -3.2332050    -0.0939970     0.0000020
  C       -2.4150150    -1.2251180    -0.0000720
  H        1.6419750     2.2104320    -0.0002120
  H       -0.7317970     2.1947500     0.0001580
  H        1.5416230    -2.1350490     0.0001580
  H        4.1309200     1.0569280    -0.0000720
  H       -3.2210487     2.0687202    -0.1998550
  H       -4.3145730    -0.1971740    -0.0000020
  H       -2.8500980    -2.2235110    -0.0001310
units angstrom
no_reorient  #important for SAPT in psi4, default
symmetry c1  #important for SAPT in psi4, default
}

set PROPERTIES_ORIGIN ["COM"]
properties('MP2/aug-cc-pvtz', properties = ['dipole'])
--------------------------------------------------------------------------

    Molecular point group: c1
  Charge       = 0
  Multiplicity = 1
  Basis Set: AUG-CC-PVTZ
    Blend: AUG-CC-PVTZ
  Basis Set: (AUG-CC-PVTZ AUX)
    Blend: AUG-CC-PVTZ-JKFIT

    Orbital Energies [Eh]
    ---------------------

    Doubly Occupied:

       1A    -20.628720     2A    -15.565993     3A    -11.293900
       4A    -11.293418     5A    -11.292421     6A    -11.279636
       7A    -11.265053     8A    -11.243711     9A    -11.241436
      10A    -11.239249    11A    -11.237336    12A     -1.458958
      13A     -1.258832    14A     -1.105648    15A     -1.088335
      16A     -1.034123    17A     -0.998317    18A     -0.875220
      19A     -0.862873    20A     -0.796064    21A     -0.777060
      22A     -0.744290    23A     -0.686812    24A     -0.662649
      25A     -0.645836    26A     -0.635753    27A     -0.607052
      28A     -0.585337    29A     -0.574923    30A     -0.571041
      31A     -0.547918    32A     -0.537937    33A     -0.520714
      34A     -0.425504    35A     -0.421409    36A     -0.383255
      37A     -0.348856    38A     -0.299125

  @DF-RHF Final Energy:  -474.32838199063076

   => Energetics <=

    Nuclear Repulsion Energy =            539.8107191187369835
    One-Electron Energy =               -1714.2087755752659177
    Two-Electron Energy =                 700.0696744658982880
    Total Energy =                       -474.3283819906307599
  Basis Set: (AUG-CC-PVTZ AUX)
    Blend: AUG-CC-PVTZ-RI
    Molecular point group: c1

    Geometry (in Angstrom), charge = 0, multiplicity = 1:

       Center              X                  Y                   Z               Mass
    ------------   -----------------  -----------------  -----------------  -----------------
         O            3.061203152984    -0.717718165144     0.001449985326    15.994914619570
         N           -1.100137847016    -1.156784165144     0.001309985326    14.003074004430
         C            0.950240152984     0.063830834856     0.001374985326    12.000000000000
         C           -0.513987847016     0.063415834856     0.001385985326    12.000000000000
         C            1.855581152984     1.175865834856     0.001287985326    12.000000000000
         C           -1.259150847016     1.251374834856     0.001472985326    12.000000000000
         C            1.741167152984    -1.059478165144     0.001467985326    12.000000000000
         C           -2.649909847016     1.180189834856     0.001470985326    12.000000000000
         C            3.114125152984     0.647921834856     0.001343985326    12.000000000000
         C           -3.259086847016    -0.073648165144     0.001391985326    12.000000000000
         C           -2.440896847016    -1.204769165144     0.001317985326    12.000000000000
         H            1.616093152984     2.230780834856     0.001177985326     1.007825032230
         H           -0.757678847016     2.215098834856     0.001547985326     1.007825032230
         H            1.515741152984    -2.114700165144     0.001547985326     1.007825032230
         H            4.105038152984     1.077276834856     0.001317985326     1.007825032230
         H           -3.246930547016     2.089069034856    -0.198465014674     1.007825032230
         H           -4.340454847016    -0.176825165144     0.001387985326     1.007825032230
         H           -2.875979847016    -2.203162165144     0.001258985326     1.007825032230

  Basis Set: AUG-CC-PVTZ
    Blend: AUG-CC-PVTZ
  Basis Set: (AUG-CC-PVTZ AUX)
    Blend: AUG-CC-PVTZ-JKFIT
	 Reference Energy          =    -474.3283819906307599 [Eh]
	 Singles Energy            =      -0.0000000000000000 [Eh]
	 Same-Spin Energy          =      -0.5143613649919654 [Eh]
	 Opposite-Spin Energy      =      -1.5572224216548911 [Eh]
	 Correlation Energy        =      -2.0715837866468565 [Eh]
	 Total Energy              =    -476.3999657772776004 [Eh]

	 ================> DF-SCS-MP2 Energies <==================
	-----------------------------------------------------------
	 SCS Same-Spin Scale       =       0.3333333333333333 [-]
	 SCS Opposite-Spin Scale   =       1.2000000000000000 [-]
	 SCS Same-Spin Energy      =      -0.1714537883306551 [Eh]
	 SCS Opposite-Spin Energy  =      -1.8686669059858692 [Eh]
	 SCS Correlation Energy    =      -2.0401206943165242 [Eh]
	 SCS Total Energy          =    -476.3685026849472592 [Eh]
	-----------------------------------------------------------

  Dipole Moment: [D]
     X:    -1.3231      Y:     1.9963      Z:    -0.1190     Total:     2.3979

*** Psi4 exiting successfully. Buy a developer a beer!
