                               Psi4 1.4a2.dev612

  ==> Input File <==

--------------------------------------------------------------------------
#psi4
#
memory 32 gb

molecule  {
0 1
  O        3.0870850    -0.7380670     0.0000600
  N       -1.0742560    -1.1771330    -0.0000800
  C        0.9761220     0.0434820    -0.0000150
  C       -0.4881060     0.0430670    -0.0000040
  C        1.8814630     1.1555170    -0.0001020
  C       -1.2332690     1.2310260     0.0000830
  C        1.7670490    -1.0798270     0.0000780
  C       -2.6240280     1.1598410     0.0000810
  C        3.1400070     0.6275730    -0.0000460
  C       -3.2332050    -0.0939970     0.0000020
  C       -2.4150150    -1.2251180    -0.0000720
  H        1.6419750     2.2104320    -0.0002120
  H       -0.7317970     2.1947500     0.0001580
  H        1.5416230    -2.1350490     0.0001580
  H        4.1309200     1.0569280    -0.0000720
  H       -3.2210480     2.0687070     0.0001450
  H       -4.3145730    -0.1971740    -0.0000020
  H       -2.8500976    -2.2235141     0.0498690
units angstrom
no_reorient  #important for SAPT in psi4, default
symmetry c1  #important for SAPT in psi4, default
}

set PROPERTIES_ORIGIN ["COM"]
properties('MP2/aug-cc-pvtz', properties = ['dipole'])
--------------------------------------------------------------------------

    Molecular point group: c1
  Charge       = 0
  Multiplicity = 1
  Basis Set: AUG-CC-PVTZ
    Blend: AUG-CC-PVTZ
  Basis Set: (AUG-CC-PVTZ AUX)
    Blend: AUG-CC-PVTZ-JKFIT

    Orbital Energies [Eh]
    ---------------------

    Doubly Occupied:

       1A    -20.628660     2A    -15.565711     3A    -11.293835
       4A    -11.293356     5A    -11.292301     6A    -11.279608
       7A    -11.263383     8A    -11.243423     9A    -11.241143
      10A    -11.239164    11A    -11.237276    12A     -1.458898
      13A     -1.258630    14A     -1.105560    15A     -1.088636
      16A     -1.033972    17A     -0.998217    18A     -0.875556
      19A     -0.863355    20A     -0.796034    21A     -0.777671
      22A     -0.744937    23A     -0.687215    24A     -0.662525
      25A     -0.646234    26A     -0.635690    27A     -0.606955
      28A     -0.585631    29A     -0.575346    30A     -0.571883
      31A     -0.548939    32A     -0.538101    33A     -0.520449
      34A     -0.424796    35A     -0.421861    36A     -0.383839
      37A     -0.348738    38A     -0.299034

  @DF-RHF Final Energy:  -474.33095484750527

   => Energetics <=

    Nuclear Repulsion Energy =            539.8749247284703188
    One-Electron Energy =               -1714.3386348720814567
    Two-Electron Energy =                 700.1327552961057563
    Total Energy =                       -474.3309548475052679
  Basis Set: (AUG-CC-PVTZ AUX)
    Blend: AUG-CC-PVTZ-RI
    Molecular point group: c1

    Geometry (in Angstrom), charge = 0, multiplicity = 1:

       Center              X                  Y                   Z               Mass
    ------------   -----------------  -----------------  -----------------  -----------------
         O            3.061203145341    -0.717718051892    -0.000287011967    15.994914619570
         N           -1.100137854659    -1.156784051892    -0.000427011967    14.003074004430
         C            0.950240145341     0.063830948108    -0.000362011967    12.000000000000
         C           -0.513987854659     0.063415948108    -0.000351011967    12.000000000000
         C            1.855581145341     1.175865948108    -0.000449011967    12.000000000000
         C           -1.259150854659     1.251374948108    -0.000264011967    12.000000000000
         C            1.741167145341    -1.059478051892    -0.000269011967    12.000000000000
         C           -2.649909854659     1.180189948108    -0.000266011967    12.000000000000
         C            3.114125145341     0.647921948108    -0.000393011967    12.000000000000
         C           -3.259086854659    -0.073648051892    -0.000345011967    12.000000000000
         C           -2.440896854659    -1.204769051892    -0.000419011967    12.000000000000
         H            1.616093145341     2.230780948108    -0.000559011967     1.007825032230
         H           -0.757678854659     2.215098948108    -0.000189011967     1.007825032230
         H            1.515741145341    -2.114700051892    -0.000189011967     1.007825032230
         H            4.105038145341     1.077276948108    -0.000419011967     1.007825032230
         H           -3.246929854659     2.089055948108    -0.000202011967     1.007825032230
         H           -4.340454854659    -0.176825051892    -0.000349011967     1.007825032230
         H           -2.875979454659    -2.203165151892     0.049521988033     1.007825032230

  Basis Set: AUG-CC-PVTZ
    Blend: AUG-CC-PVTZ
  Basis Set: (AUG-CC-PVTZ AUX)
    Blend: AUG-CC-PVTZ-JKFIT
	 Reference Energy          =    -474.3309548475052679 [Eh]
	 Singles Energy            =      -0.0000000000000000 [Eh]
	 Same-Spin Energy          =      -0.5142114936594750 [Eh]
	 Opposite-Spin Energy      =      -1.5569682166098047 [Eh]
	 Correlation Energy        =      -2.0711797102692797 [Eh]
	 Total Energy              =    -476.4021345577745592 [Eh]

	 ================> DF-SCS-MP2 Energies <==================
	-----------------------------------------------------------
	 SCS Same-Spin Scale       =       0.3333333333333333 [-]
	 SCS Opposite-Spin Scale   =       1.2000000000000000 [-]
	 SCS Same-Spin Energy      =      -0.1714038312198250 [Eh]
	 SCS Opposite-Spin Energy  =      -1.8683618599317655 [Eh]
	 SCS Correlation Energy    =      -2.0397656911515907 [Eh]
	 SCS Total Energy          =    -476.3707205386568830 [Eh]
	-----------------------------------------------------------

  Dipole Moment: [D]
     X:    -1.3426      Y:     2.0236      Z:     0.0260     Total:     2.4287

*** Psi4 exiting successfully. Buy a developer a beer!
