                               Psi4 1.4a2.dev612

  ==> Input File <==

--------------------------------------------------------------------------
#psi4
#
memory 32 gb

molecule  {
0 1
  O        3.0870850    -0.7380670     0.0000600
  N       -1.0742560    -1.1771330    -0.0000800
  C        0.9761220     0.0434820    -0.0000150
  C       -0.4881060     0.0430670    -0.0000040
  C        1.8814630     1.1555170    -0.0001020
  C       -1.2332690     1.2310260     0.0000830
  C        1.7670490    -1.0798270     0.0000780
  C       -2.6240280     1.1598410     0.0000810
  C        3.1400070     0.6275730    -0.0000460
  C       -3.2332050    -0.0939970     0.0000020
  C       -2.4150150    -1.2251180    -0.0000720
  H        1.6419750     2.2104320    -0.0002120
  H       -0.7317971     2.1947688    -0.2498420
  H        1.5416230    -2.1350490     0.0001580
  H        4.1309200     1.0569280    -0.0000720
  H       -3.2210480     2.0687070     0.0001450
  H       -4.3145730    -0.1971740    -0.0000020
  H       -2.8500980    -2.2235110    -0.0001310
units angstrom
no_reorient  #important for SAPT in psi4, default
symmetry c1  #important for SAPT in psi4, default
}

set PROPERTIES_ORIGIN ["COM"]
properties('MP2/aug-cc-pvtz', properties = ['dipole'])
--------------------------------------------------------------------------

    Molecular point group: c1
  Charge       = 0
  Multiplicity = 1
  Basis Set: AUG-CC-PVTZ
    Blend: AUG-CC-PVTZ
  Basis Set: (AUG-CC-PVTZ AUX)
    Blend: AUG-CC-PVTZ-JKFIT

    Orbital Energies [Eh]
    ---------------------

    Doubly Occupied:

       1A    -20.628685     2A    -15.565917     3A    -11.294021
       4A    -11.293216     5A    -11.292809     6A    -11.280107
       7A    -11.263802     8A    -11.245665     9A    -11.241292
      10A    -11.239139    11A    -11.237086    12A     -1.458922
      13A     -1.258950    14A     -1.105563    15A     -1.088443
      16A     -1.033756    17A     -0.998112    18A     -0.875608
      19A     -0.862281    20A     -0.795824    21A     -0.777730
      22A     -0.744738    23A     -0.685535    24A     -0.662721
      25A     -0.643380    26A     -0.635638    27A     -0.606497
      28A     -0.584900    29A     -0.575299    30A     -0.571729
      31A     -0.549176    32A     -0.537807    33A     -0.518631
      34A     -0.424725    35A     -0.422291    36A     -0.383338
      37A     -0.348593    38A     -0.299098

  @DF-RHF Final Energy:  -474.32708401647693

   => Energetics <=

    Nuclear Repulsion Energy =            539.7621699169662861
    One-Electron Energy =               -1714.1164596149756107
    Two-Electron Energy =                 700.0272056815324504
    Total Energy =                       -474.3270840164768742
  Basis Set: (AUG-CC-PVTZ AUX)
    Blend: AUG-CC-PVTZ-RI
    Molecular point group: c1

    Geometry (in Angstrom), charge = 0, multiplicity = 1:

       Center              X                  Y                   Z               Mass
    ------------   -----------------  -----------------  -----------------  -----------------
         O            3.061203148815    -0.717718204053     0.001797384784    15.994914619570
         N           -1.100137851185    -1.156784204053     0.001657384784    14.003074004430
         C            0.950240148815     0.063830795947     0.001722384784    12.000000000000
         C           -0.513987851185     0.063415795947     0.001733384784    12.000000000000
         C            1.855581148815     1.175865795947     0.001635384784    12.000000000000
         C           -1.259150851185     1.251374795947     0.001820384784    12.000000000000
         C            1.741167148815    -1.059478204053     0.001815384784    12.000000000000
         C           -2.649909851185     1.180189795947     0.001818384784    12.000000000000
         C            3.114125148815     0.647921795947     0.001691384784    12.000000000000
         C           -3.259086851185    -0.073648204053     0.001739384784    12.000000000000
         C           -2.440896851185    -1.204769204053     0.001665384784    12.000000000000
         H            1.616093148815     2.230780795947     0.001525384784     1.007825032230
         H           -0.757678951185     2.215117595947    -0.248104615216     1.007825032230
         H            1.515741148815    -2.114700204053     0.001895384784     1.007825032230
         H            4.105038148815     1.077276795947     0.001665384784     1.007825032230
         H           -3.246929851185     2.089055795947     0.001882384784     1.007825032230
         H           -4.340454851185    -0.176825204053     0.001735384784     1.007825032230
         H           -2.875979851185    -2.203162204053     0.001606384784     1.007825032230

  Basis Set: AUG-CC-PVTZ
    Blend: AUG-CC-PVTZ
  Basis Set: (AUG-CC-PVTZ AUX)
    Blend: AUG-CC-PVTZ-JKFIT
	 Reference Energy          =    -474.3270840164769311 [Eh]
	 Singles Energy            =      -0.0000000000000000 [Eh]
	 Same-Spin Energy          =      -0.5143737263884658 [Eh]
	 Opposite-Spin Energy      =      -1.5571994283606512 [Eh]
	 Correlation Energy        =      -2.0715731547491170 [Eh]
	 Total Energy              =    -476.3986571712260343 [Eh]

	 ================> DF-SCS-MP2 Energies <==================
	-----------------------------------------------------------
	 SCS Same-Spin Scale       =       0.3333333333333333 [-]
	 SCS Opposite-Spin Scale   =       1.2000000000000000 [-]
	 SCS Same-Spin Energy      =      -0.1714579087961552 [Eh]
	 SCS Opposite-Spin Energy  =      -1.8686393140327813 [Eh]
	 SCS Correlation Energy    =      -2.0400972228289365 [Eh]
	 SCS Total Energy          =    -476.3671812393058644 [Eh]
	-----------------------------------------------------------

  Dipole Moment: [D]
     X:    -1.3598      Y:     1.9834      Z:    -0.1405     Total:     2.4089

*** Psi4 exiting successfully. Buy a developer a beer!
