                               Psi4 1.4a2.dev612

  ==> Input File <==

--------------------------------------------------------------------------
#psi4
#
memory 32 gb

molecule  {
0 1
  O        3.0870850    -0.7380670     0.0000600
  N       -1.0742560    -1.1771330    -0.0000800
  C        0.9761220     0.0434820    -0.0000150
  C       -0.4881060     0.0430670    -0.0000040
  C        1.8814630     1.1555170    -0.0001020
  C       -1.2332690     1.2310260     0.0000830
  C        1.7670490    -1.0798270     0.0000780
  C       -2.6240280     1.1598410     0.0000810
  C        3.1400070     0.6275730    -0.0000460
  C       -3.2332050    -0.0939970     0.0000020
  C       -2.4150150    -1.2251180    -0.0000720
  H        1.6419750     2.2104320    -0.0002120
  H       -0.7317970     2.1947500     0.0001580
  H        1.5416223    -2.1350412     0.1001580
  H        4.1309200     1.0569280    -0.0000720
  H       -3.2210480     2.0687070     0.0001450
  H       -4.3145730    -0.1971740    -0.0000020
  H       -2.8500980    -2.2235110    -0.0001310
units angstrom
no_reorient  #important for SAPT in psi4, default
symmetry c1  #important for SAPT in psi4, default
}

set PROPERTIES_ORIGIN ["COM"]
properties('MP2/aug-cc-pvtz', properties = ['dipole'])
--------------------------------------------------------------------------

    Molecular point group: c1
  Charge       = 0
  Multiplicity = 1
  Basis Set: AUG-CC-PVTZ
    Blend: AUG-CC-PVTZ
  Basis Set: (AUG-CC-PVTZ AUX)
    Blend: AUG-CC-PVTZ-JKFIT

    Orbital Energies [Eh]
    ---------------------

    Doubly Occupied:

       1A    -20.628599     2A    -15.565711     3A    -11.294078
       4A    -11.293468     5A    -11.292302     6A    -11.279506
       7A    -11.263392     8A    -11.243450     9A    -11.241163
      10A    -11.239264    11A    -11.237321    12A     -1.458867
      13A     -1.258637    14A     -1.105600    15A     -1.088649
      16A     -1.033995    17A     -0.998056    18A     -0.875526
      19A     -0.863439    20A     -0.796068    21A     -0.777227
      22A     -0.744632    23A     -0.687216    24A     -0.662535
      25A     -0.646364    26A     -0.635933    27A     -0.606156
      28A     -0.585557    29A     -0.575164    30A     -0.571873
      31A     -0.548946    32A     -0.537892    33A     -0.520577
      34A     -0.424673    35A     -0.421981    36A     -0.383855
      37A     -0.348763    38A     -0.299049

  @DF-RHF Final Energy:  -474.33056724632797

   => Energetics <=

    Nuclear Repulsion Energy =            539.8599449264939949
    One-Electron Energy =               -1714.3100595006244475
    Two-Electron Energy =                 700.1195473278025929
    Total Energy =                       -474.3305672463279734
  Basis Set: (AUG-CC-PVTZ AUX)
    Blend: AUG-CC-PVTZ-RI
    Molecular point group: c1

    Geometry (in Angstrom), charge = 0, multiplicity = 1:

       Center              X                  Y                   Z               Mass
    ------------   -----------------  -----------------  -----------------  -----------------
         O            3.061203152984    -0.717718127625    -0.000634411425    15.994914619570
         N           -1.100137847016    -1.156784127625    -0.000774411425    14.003074004430
         C            0.950240152984     0.063830872375    -0.000709411425    12.000000000000
         C           -0.513987847016     0.063415872375    -0.000698411425    12.000000000000
         C            1.855581152984     1.175865872375    -0.000796411425    12.000000000000
         C           -1.259150847016     1.251374872375    -0.000611411425    12.000000000000
         C            1.741167152984    -1.059478127625    -0.000616411425    12.000000000000
         C           -2.649909847016     1.180189872375    -0.000613411425    12.000000000000
         C            3.114125152984     0.647921872375    -0.000740411425    12.000000000000
         C           -3.259086847016    -0.073648127625    -0.000692411425    12.000000000000
         C           -2.440896847016    -1.204769127625    -0.000766411425    12.000000000000
         H            1.616093152984     2.230780872375    -0.000906411425     1.007825032230
         H           -0.757678847016     2.215098872375    -0.000536411425     1.007825032230
         H            1.515740452984    -2.114692327625     0.099463588575     1.007825032230
         H            4.105038152984     1.077276872375    -0.000766411425     1.007825032230
         H           -3.246929847016     2.089055872375    -0.000549411425     1.007825032230
         H           -4.340454847016    -0.176825127625    -0.000696411425     1.007825032230
         H           -2.875979847016    -2.203162127625    -0.000825411425     1.007825032230

  Basis Set: AUG-CC-PVTZ
    Blend: AUG-CC-PVTZ
  Basis Set: (AUG-CC-PVTZ AUX)
    Blend: AUG-CC-PVTZ-JKFIT
	 Reference Energy          =    -474.3305672463279734 [Eh]
	 Singles Energy            =      -0.0000000000000000 [Eh]
	 Same-Spin Energy          =      -0.5142497910890851 [Eh]
	 Opposite-Spin Energy      =      -1.5570455030634445 [Eh]
	 Correlation Energy        =      -2.0712952941525296 [Eh]
	 Total Energy              =    -476.4018625404805221 [Eh]

	 ================> DF-SCS-MP2 Energies <==================
	-----------------------------------------------------------
	 SCS Same-Spin Scale       =       0.3333333333333333 [-]
	 SCS Opposite-Spin Scale   =       1.2000000000000000 [-]
	 SCS Same-Spin Energy      =      -0.1714165970296950 [Eh]
	 SCS Opposite-Spin Energy  =      -1.8684546036761334 [Eh]
	 SCS Correlation Energy    =      -2.0398712007058286 [Eh]
	 SCS Total Energy          =    -476.3704384470337914 [Eh]
	-----------------------------------------------------------

  Dipole Moment: [D]
     X:    -1.3451      Y:     2.0295      Z:     0.0838     Total:     2.4362

*** Psi4 exiting successfully. Buy a developer a beer!
