                               Psi4 1.4a2.dev612

  ==> Input File <==

--------------------------------------------------------------------------
#psi4
#
memory 32 gb

molecule  {
0 1
  O        3.0870850    -0.7380670     0.0000600
  N       -1.0742560    -1.1771330    -0.0000800
  C        0.9761220     0.0434820    -0.0000150
  C       -0.4881060     0.0430670    -0.0000040
  C        1.8814630     1.1555170    -0.0001020
  C       -1.2332690     1.2310260     0.0000830
  C        1.7670490    -1.0798270     0.0000780
  C       -2.6240280     1.1598410     0.0000810
  C        3.1400070     0.6275730    -0.0000460
  C       -3.2332050    -0.0939970     0.0000020
  C       -2.4150150    -1.2251180    -0.0000720
  H        1.6419750     2.2104320    -0.0002120
  H       -0.7317970     2.1947500     0.0001580
  H        1.5416210    -2.1350257     0.3001580
  H        4.1309200     1.0569280    -0.0000720
  H       -3.2210480     2.0687070     0.0001450
  H       -4.3145730    -0.1971740    -0.0000020
  H       -2.8500980    -2.2235110    -0.0001310
units angstrom
no_reorient  #important for SAPT in psi4, default
symmetry c1  #important for SAPT in psi4, default
}

set PROPERTIES_ORIGIN ["COM"]
properties('MP2/aug-cc-pvtz', properties = ['dipole'])
--------------------------------------------------------------------------

    Molecular point group: c1
  Charge       = 0
  Multiplicity = 1
  Basis Set: AUG-CC-PVTZ
    Blend: AUG-CC-PVTZ
  Basis Set: (AUG-CC-PVTZ AUX)
    Blend: AUG-CC-PVTZ-JKFIT

    Orbital Energies [Eh]
    ---------------------

    Doubly Occupied:

       1A    -20.628212     2A    -15.565843     3A    -11.296025
       4A    -11.294381     5A    -11.292415     6A    -11.279567
       7A    -11.263533     8A    -11.243801     9A    -11.241463
      10A    -11.240111    11A    -11.237720    12A     -1.458694
      13A     -1.258767    14A     -1.105943    15A     -1.088843
      16A     -1.034110    17A     -0.996901    18A     -0.875392
      19A     -0.863596    20A     -0.796171    21A     -0.774315
      22A     -0.741946    23A     -0.687095    24A     -0.662662
      25A     -0.646537    26A     -0.637368    27A     -0.600997
      28A     -0.584771    29A     -0.573693    30A     -0.571461
      31A     -0.549062    32A     -0.535988    33A     -0.520800
      34A     -0.424812    35A     -0.421830    36A     -0.383939
      37A     -0.348880    38A     -0.299217

  @DF-RHF Final Energy:  -474.32543371150223

   => Energetics <=

    Nuclear Repulsion Energy =            539.7103317768079478
    One-Electron Energy =               -1714.0178052338330872
    Two-Electron Energy =                 699.9820397455227976
    Total Energy =                       -474.3254337115022281
  Basis Set: (AUG-CC-PVTZ AUX)
    Blend: AUG-CC-PVTZ-RI
    Molecular point group: c1

    Geometry (in Angstrom), charge = 0, multiplicity = 1:

       Center              X                  Y                   Z               Mass
    ------------   -----------------  -----------------  -----------------  -----------------
         O            3.061203162016    -0.717718235319    -0.002024009259    15.994914619570
         N           -1.100137837984    -1.156784235319    -0.002164009259    14.003074004430
         C            0.950240162016     0.063830764681    -0.002099009259    12.000000000000
         C           -0.513987837984     0.063415764681    -0.002088009259    12.000000000000
         C            1.855581162016     1.175865764681    -0.002186009259    12.000000000000
         C           -1.259150837984     1.251374764681    -0.002001009259    12.000000000000
         C            1.741167162016    -1.059478235319    -0.002006009259    12.000000000000
         C           -2.649909837984     1.180189764681    -0.002003009259    12.000000000000
         C            3.114125162016     0.647921764681    -0.002130009259    12.000000000000
         C           -3.259086837984    -0.073648235319    -0.002082009259    12.000000000000
         C           -2.440896837984    -1.204769235319    -0.002156009259    12.000000000000
         H            1.616093162016     2.230780764681    -0.002296009259     1.007825032230
         H           -0.757678837984     2.215098764681    -0.001926009259     1.007825032230
         H            1.515739162016    -2.114676935319     0.298073990741     1.007825032230
         H            4.105038162016     1.077276764681    -0.002156009259     1.007825032230
         H           -3.246929837984     2.089055764681    -0.001939009259     1.007825032230
         H           -4.340454837984    -0.176825235319    -0.002086009259     1.007825032230
         H           -2.875979837984    -2.203162235319    -0.002215009259     1.007825032230

  Basis Set: AUG-CC-PVTZ
    Blend: AUG-CC-PVTZ
  Basis Set: (AUG-CC-PVTZ AUX)
    Blend: AUG-CC-PVTZ-JKFIT
	 Reference Energy          =    -474.3254337115022281 [Eh]
	 Singles Energy            =      -0.0000000000000000 [Eh]
	 Same-Spin Energy          =      -0.5146270533828092 [Eh]
	 Opposite-Spin Energy      =      -1.5578557803375017 [Eh]
	 Correlation Energy        =      -2.0724828337203109 [Eh]
	 Total Energy              =    -476.3979165452225288 [Eh]

	 ================> DF-SCS-MP2 Energies <==================
	-----------------------------------------------------------
	 SCS Same-Spin Scale       =       0.3333333333333333 [-]
	 SCS Opposite-Spin Scale   =       1.2000000000000000 [-]
	 SCS Same-Spin Energy      =      -0.1715423511276031 [Eh]
	 SCS Opposite-Spin Energy  =      -1.8694269364050020 [Eh]
	 SCS Correlation Energy    =      -2.0409692875326053 [Eh]
	 SCS Total Energy          =    -476.3664029990348467 [Eh]
	-----------------------------------------------------------

  Dipole Moment: [D]
     X:    -1.3525      Y:     2.0880      Z:     0.2467     Total:     2.5000

*** Psi4 exiting successfully. Buy a developer a beer!
