                               Psi4 1.4a2.dev612

  ==> Input File <==

--------------------------------------------------------------------------
#psi4
#
memory 32 gb

molecule  {
0 1
  O        3.0870850    -0.7380670     0.0000600
  N       -1.0742560    -1.1771330    -0.0000800
  C        0.9761220     0.0434820    -0.0000150
  C       -0.4881060     0.0430670    -0.0000040
  C        1.8814630     1.1555170    -0.0001020
  C       -1.2332690     1.2310260     0.0000830
  C        1.7670490    -1.0798270     0.0000780
  C       -2.6240280     1.1598410     0.0000810
  C        3.1400070     0.6275730    -0.0000460
  C       -3.2332050    -0.0939970     0.0000020
  C       -2.4150150    -1.2251180    -0.0000720
  H        1.6419750     2.2104320    -0.0002120
  H       -0.7317970     2.1947500     0.0001580
  H        1.5416230    -2.1350490     0.0001580
  H        4.1309200     1.0569280    -0.0000720
  H       -3.2210485     2.0687169    -0.1498550
  H       -4.3145730    -0.1971740    -0.0000020
  H       -2.8500980    -2.2235110    -0.0001310
units angstrom
no_reorient  #important for SAPT in psi4, default
symmetry c1  #important for SAPT in psi4, default
}

set PROPERTIES_ORIGIN ["COM"]
properties('MP2/aug-cc-pvtz', properties = ['dipole'])
--------------------------------------------------------------------------

    Molecular point group: c1
  Charge       = 0
  Multiplicity = 1
  Basis Set: AUG-CC-PVTZ
    Blend: AUG-CC-PVTZ
  Basis Set: (AUG-CC-PVTZ AUX)
    Blend: AUG-CC-PVTZ-JKFIT

    Orbital Energies [Eh]
    ---------------------

    Doubly Occupied:

       1A    -20.628691     2A    -15.565862     3A    -11.293869
       4A    -11.293388     5A    -11.292361     6A    -11.279574
       7A    -11.264322     8A    -11.243576     9A    -11.241298
      10A    -11.239209    11A    -11.237307    12A     -1.458929
      13A     -1.258738    14A     -1.105608    15A     -1.088456
      16A     -1.034061    17A     -0.998272    18A     -0.875350
      19A     -0.863108    20A     -0.796059    21A     -0.777316
      22A     -0.744580    23A     -0.686989    24A     -0.662590
      25A     -0.646052    26A     -0.635723    27A     -0.607018
      28A     -0.585459    29A     -0.575080    30A     -0.571437
      31A     -0.548366    32A     -0.538014    33A     -0.520640
      34A     -0.425172    35A     -0.421628    36A     -0.383509
      37A     -0.348809    38A     -0.299083

  @DF-RHF Final Energy:  -474.32961497781150

   => Energetics <=

    Nuclear Repulsion Energy =            539.8404499394879394
    One-Electron Energy =               -1714.2691260471551686
    Two-Electron Energy =                 700.0990611298558406
    Total Energy =                       -474.3296149778115023
  Basis Set: (AUG-CC-PVTZ AUX)
    Blend: AUG-CC-PVTZ-RI
    Molecular point group: c1

    Geometry (in Angstrom), charge = 0, multiplicity = 1:

       Center              X                  Y                   Z               Mass
    ------------   -----------------  -----------------  -----------------  -----------------
         O            3.061203151594    -0.717718142216     0.001102585867    15.994914619570
         N           -1.100137848406    -1.156784142216     0.000962585867    14.003074004430
         C            0.950240151594     0.063830857784     0.001027585867    12.000000000000
         C           -0.513987848406     0.063415857784     0.001038585867    12.000000000000
         C            1.855581151594     1.175865857784     0.000940585867    12.000000000000
         C           -1.259150848406     1.251374857784     0.001125585867    12.000000000000
         C            1.741167151594    -1.059478142216     0.001120585867    12.000000000000
         C           -2.649909848406     1.180189857784     0.001123585867    12.000000000000
         C            3.114125151594     0.647921857784     0.000996585867    12.000000000000
         C           -3.259086848406    -0.073648142216     0.001044585867    12.000000000000
         C           -2.440896848406    -1.204769142216     0.000970585867    12.000000000000
         H            1.616093151594     2.230780857784     0.000830585867     1.007825032230
         H           -0.757678848406     2.215098857784     0.001200585867     1.007825032230
         H            1.515741151594    -2.114700142216     0.001200585867     1.007825032230
         H            4.105038151594     1.077276857784     0.000970585867     1.007825032230
         H           -3.246930348406     2.089065757784    -0.148812414133     1.007825032230
         H           -4.340454848406    -0.176825142216     0.001040585867     1.007825032230
         H           -2.875979848406    -2.203162142216     0.000911585867     1.007825032230

  Basis Set: AUG-CC-PVTZ
    Blend: AUG-CC-PVTZ
  Basis Set: (AUG-CC-PVTZ AUX)
    Blend: AUG-CC-PVTZ-JKFIT
	 Reference Energy          =    -474.3296149778115023 [Eh]
	 Singles Energy            =      -0.0000000000000000 [Eh]
	 Same-Spin Energy          =      -0.5142909160901095 [Eh]
	 Opposite-Spin Energy      =      -1.5570876633395909 [Eh]
	 Correlation Energy        =      -2.0713785794297004 [Eh]
	 Total Energy              =    -476.4009935572411791 [Eh]

	 ================> DF-SCS-MP2 Energies <==================
	-----------------------------------------------------------
	 SCS Same-Spin Scale       =       0.3333333333333333 [-]
	 SCS Opposite-Spin Scale   =       1.2000000000000000 [-]
	 SCS Same-Spin Energy      =      -0.1714303053633698 [Eh]
	 SCS Opposite-Spin Energy  =      -1.8685051960075090 [Eh]
	 SCS Correlation Energy    =      -2.0399355013708789 [Eh]
	 SCS Total Energy          =    -476.3695504791824078 [Eh]
	-----------------------------------------------------------

  Dipole Moment: [D]
     X:    -1.3322      Y:     2.0074      Z:    -0.0897     Total:     2.4109

*** Psi4 exiting successfully. Buy a developer a beer!
