                               Psi4 1.4a2.dev612

  ==> Input File <==

--------------------------------------------------------------------------
#psi4
#
memory 32 gb

molecule  {
0 1
  O        3.0870850    -0.7380670     0.0000600
  N       -1.0742560    -1.1771330    -0.0000800
  C        0.9761220     0.0434820    -0.0000150
  C       -0.4881060     0.0430670    -0.0000040
  C        1.8814630     1.1555170    -0.0001020
  C       -1.2332690     1.2310260     0.0000830
  C        1.7670490    -1.0798270     0.0000780
  C       -2.6240280     1.1598410     0.0000810
  C        3.1400070     0.6275730    -0.0000460
  C       -3.2332050    -0.0939970     0.0000020
  C       -2.4150150    -1.2251180    -0.0000720
  H        1.6419739     2.2104414     0.0997880
  H       -0.7317970     2.1947500     0.0001580
  H        1.5416230    -2.1350490     0.0001580
  H        4.1309200     1.0569280    -0.0000720
  H       -3.2210480     2.0687070     0.0001450
  H       -4.3145730    -0.1971740    -0.0000020
  H       -2.8500980    -2.2235110    -0.0001310
units angstrom
no_reorient  #important for SAPT in psi4, default
symmetry c1  #important for SAPT in psi4, default
}

set PROPERTIES_ORIGIN ["COM"]
properties('MP2/aug-cc-pvtz', properties = ['dipole'])
--------------------------------------------------------------------------

    Molecular point group: c1
  Charge       = 0
  Multiplicity = 1
  Basis Set: AUG-CC-PVTZ
    Blend: AUG-CC-PVTZ
  Basis Set: (AUG-CC-PVTZ AUX)
    Blend: AUG-CC-PVTZ-JKFIT

    Orbital Energies [Eh]
    ---------------------

    Doubly Occupied:

       1A    -20.628751     2A    -15.565687     3A    -11.293856
       4A    -11.293552     5A    -11.292263     6A    -11.279482
       7A    -11.263348     8A    -11.243370     9A    -11.241115
      10A    -11.239203    11A    -11.237603    12A     -1.458992
      13A     -1.258608    14A     -1.105533    15A     -1.088601
      16A     -1.033953    17A     -0.998241    18A     -0.875541
      19A     -0.863380    20A     -0.795618    21A     -0.777692
      22A     -0.744736    23A     -0.687204    24A     -0.662441
      25A     -0.646281    26A     -0.635800    27A     -0.606974
      28A     -0.585658    29A     -0.574907    30A     -0.571430
      31A     -0.548910    32A     -0.538121    33A     -0.520510
      34A     -0.424594    35A     -0.421979    36A     -0.383815
      37A     -0.348745    38A     -0.299056

  @DF-RHF Final Energy:  -474.33056634063814

   => Energetics <=

    Nuclear Repulsion Energy =            539.8608639787889842
    One-Electron Energy =               -1714.3117608024736001
    Two-Electron Energy =                 700.1203304830464731
    Total Energy =                       -474.3305663406381427
  Basis Set: (AUG-CC-PVTZ AUX)
    Blend: AUG-CC-PVTZ-RI
    Molecular point group: c1

    Geometry (in Angstrom), charge = 0, multiplicity = 1:

       Center              X                  Y                   Z               Mass
    ------------   -----------------  -----------------  -----------------  -----------------
         O            3.061203155763    -0.717718138742    -0.000634411425    15.994914619570
         N           -1.100137844237    -1.156784138742    -0.000774411425    14.003074004430
         C            0.950240155763     0.063830861258    -0.000709411425    12.000000000000
         C           -0.513987844237     0.063415861258    -0.000698411425    12.000000000000
         C            1.855581155763     1.175865861258    -0.000796411425    12.000000000000
         C           -1.259150844237     1.251374861258    -0.000611411425    12.000000000000
         C            1.741167155763    -1.059478138742    -0.000616411425    12.000000000000
         C           -2.649909844237     1.180189861258    -0.000613411425    12.000000000000
         C            3.114125155763     0.647921861258    -0.000740411425    12.000000000000
         C           -3.259086844237    -0.073648138742    -0.000692411425    12.000000000000
         C           -2.440896844237    -1.204769138742    -0.000766411425    12.000000000000
         H            1.616092055763     2.230790261258     0.099093588575     1.007825032230
         H           -0.757678844237     2.215098861258    -0.000536411425     1.007825032230
         H            1.515741155763    -2.114700138742    -0.000536411425     1.007825032230
         H            4.105038155763     1.077276861258    -0.000766411425     1.007825032230
         H           -3.246929844237     2.089055861258    -0.000549411425     1.007825032230
         H           -4.340454844237    -0.176825138742    -0.000696411425     1.007825032230
         H           -2.875979844237    -2.203162138742    -0.000825411425     1.007825032230

  Basis Set: AUG-CC-PVTZ
    Blend: AUG-CC-PVTZ
  Basis Set: (AUG-CC-PVTZ AUX)
    Blend: AUG-CC-PVTZ-JKFIT
	 Reference Energy          =    -474.3305663406381427 [Eh]
	 Singles Energy            =      -0.0000000000000000 [Eh]
	 Same-Spin Energy          =      -0.5142348098177107 [Eh]
	 Opposite-Spin Energy      =      -1.5569995878118843 [Eh]
	 Correlation Energy        =      -2.0712343976295950 [Eh]
	 Total Energy              =    -476.4018007382677524 [Eh]

	 ================> DF-SCS-MP2 Energies <==================
	-----------------------------------------------------------
	 SCS Same-Spin Scale       =       0.3333333333333333 [-]
	 SCS Opposite-Spin Scale   =       1.2000000000000000 [-]
	 SCS Same-Spin Energy      =      -0.1714116032725702 [Eh]
	 SCS Opposite-Spin Energy  =      -1.8683995053742610 [Eh]
	 SCS Correlation Energy    =      -2.0398111086468314 [Eh]
	 SCS Total Energy          =    -476.3703774492850016 [Eh]
	-----------------------------------------------------------

  Dipole Moment: [D]
     X:    -1.3413      Y:     2.0152      Z:     0.0757     Total:     2.4219

*** Psi4 exiting successfully. Buy a developer a beer!
