                               Psi4 1.4a2.dev612

  ==> Input File <==

--------------------------------------------------------------------------
#psi4
#
memory 32 gb

molecule  {
0 1
  O        3.0870850    -0.7380670     0.0000600
  N       -1.0742560    -1.1771330    -0.0000800
  C        0.9761220     0.0434820    -0.0000150
  C       -0.4881060     0.0430670    -0.0000040
  C        1.8814630     1.1555170    -0.0001020
  C       -1.2332690     1.2310260     0.0000830
  C        1.7670490    -1.0798270     0.0000780
  C       -2.6240280     1.1598410     0.0000810
  C        3.1400070     0.6275730    -0.0000460
  C       -3.2332050    -0.0939970     0.0000020
  C       -2.4150150    -1.2251180    -0.0000720
  H        1.6419750     2.2104320    -0.0002120
  H       -0.7317971     2.1947726    -0.2998420
  H        1.5416230    -2.1350490     0.0001580
  H        4.1309200     1.0569280    -0.0000720
  H       -3.2210480     2.0687070     0.0001450
  H       -4.3145730    -0.1971740    -0.0000020
  H       -2.8500980    -2.2235110    -0.0001310
units angstrom
no_reorient  #important for SAPT in psi4, default
symmetry c1  #important for SAPT in psi4, default
}

set PROPERTIES_ORIGIN ["COM"]
properties('MP2/aug-cc-pvtz', properties = ['dipole'])
--------------------------------------------------------------------------

    Molecular point group: c1
  Charge       = 0
  Multiplicity = 1
  Basis Set: AUG-CC-PVTZ
    Blend: AUG-CC-PVTZ
  Basis Set: (AUG-CC-PVTZ AUX)
    Blend: AUG-CC-PVTZ-JKFIT

    Orbital Energies [Eh]
    ---------------------

    Doubly Occupied:

       1A    -20.628698     2A    -15.566020     3A    -11.294104
       4A    -11.293159     5A    -11.293040     6A    -11.280372
       7A    -11.263995     8A    -11.246633     9A    -11.241371
      10A    -11.239135    11A    -11.237008    12A     -1.458936
      13A     -1.259098    14A     -1.105570    15A     -1.088381
      16A     -1.033669    17A     -0.998074    18A     -0.875649
      19A     -0.861833    20A     -0.795734    21A     -0.777759
      22A     -0.744659    23A     -0.684933    24A     -0.662816
      25A     -0.642142    26A     -0.635606    27A     -0.606285
      28A     -0.584566    29A     -0.575271    30A     -0.571652
      31A     -0.549287    32A     -0.537698    33A     -0.517742
      34A     -0.424755    35A     -0.422413    36A     -0.383132
      37A     -0.348531    38A     -0.299131

  @DF-RHF Final Energy:  -474.32511375167621

   => Energetics <=

    Nuclear Repulsion Energy =            539.7125311600892701
    One-Electron Energy =               -1714.0175753414134761
    Two-Electron Energy =                 699.9799304296481068
    Total Energy =                       -474.3251137516762128
  Basis Set: (AUG-CC-PVTZ AUX)
    Blend: AUG-CC-PVTZ-RI
    Molecular point group: c1

    Geometry (in Angstrom), charge = 0, multiplicity = 1:

       Center              X                  Y                   Z               Mass
    ------------   -----------------  -----------------  -----------------  -----------------
         O            3.061203148815    -0.717718230455     0.002144784243    15.994914619570
         N           -1.100137851185    -1.156784230455     0.002004784243    14.003074004430
         C            0.950240148815     0.063830769545     0.002069784243    12.000000000000
         C           -0.513987851185     0.063415769545     0.002080784243    12.000000000000
         C            1.855581148815     1.175865769545     0.001982784243    12.000000000000
         C           -1.259150851185     1.251374769545     0.002167784243    12.000000000000
         C            1.741167148815    -1.059478230455     0.002162784243    12.000000000000
         C           -2.649909851185     1.180189769545     0.002165784243    12.000000000000
         C            3.114125148815     0.647921769545     0.002038784243    12.000000000000
         C           -3.259086851185    -0.073648230455     0.002086784243    12.000000000000
         C           -2.440896851185    -1.204769230455     0.002012784243    12.000000000000
         H            1.616093148815     2.230780769545     0.001872784243     1.007825032230
         H           -0.757678951185     2.215121369545    -0.297757215757     1.007825032230
         H            1.515741148815    -2.114700230455     0.002242784243     1.007825032230
         H            4.105038148815     1.077276769545     0.002012784243     1.007825032230
         H           -3.246929851185     2.089055769545     0.002229784243     1.007825032230
         H           -4.340454851185    -0.176825230455     0.002082784243     1.007825032230
         H           -2.875979851185    -2.203162230455     0.001953784243     1.007825032230

  Basis Set: AUG-CC-PVTZ
    Blend: AUG-CC-PVTZ
  Basis Set: (AUG-CC-PVTZ AUX)
    Blend: AUG-CC-PVTZ-JKFIT
	 Reference Energy          =    -474.3251137516762128 [Eh]
	 Singles Energy            =      -0.0000000000000000 [Eh]
	 Same-Spin Energy          =      -0.5144485921590018 [Eh]
	 Opposite-Spin Energy      =      -1.5573728614595075 [Eh]
	 Correlation Energy        =      -2.0718214536185093 [Eh]
	 Total Energy              =    -476.3969352052947102 [Eh]

	 ================> DF-SCS-MP2 Energies <==================
	-----------------------------------------------------------
	 SCS Same-Spin Scale       =       0.3333333333333333 [-]
	 SCS Opposite-Spin Scale   =       1.2000000000000000 [-]
	 SCS Same-Spin Energy      =      -0.1714828640530006 [Eh]
	 SCS Opposite-Spin Energy  =      -1.8688474337514089 [Eh]
	 SCS Correlation Energy    =      -2.0403302978044096 [Eh]
	 SCS Total Energy          =    -476.3654440494806295 [Eh]
	-----------------------------------------------------------

  Dipole Moment: [D]
     X:    -1.3667      Y:     1.9669      Z:    -0.1676     Total:     2.4010

*** Psi4 exiting successfully. Buy a developer a beer!
