                               Psi4 1.4a2.dev612

  ==> Input File <==

--------------------------------------------------------------------------
#psi4
#
memory 32 gb

molecule  {
0 1
  O        3.0870850    -0.7380670     0.0000600
  N       -1.0742560    -1.1771330    -0.0000800
  C        0.9761220     0.0434820    -0.0000150
  C       -0.4881060     0.0430670    -0.0000040
  C        1.8814630     1.1555170    -0.0001020
  C       -1.2332690     1.2310260     0.0000830
  C        1.7670485    -1.0798391    -0.1499220
  C       -2.6240280     1.1598410     0.0000810
  C        3.1400070     0.6275730    -0.0000460
  C       -3.2332050    -0.0939970     0.0000020
  C       -2.4150150    -1.2251180    -0.0000720
  H        1.6419750     2.2104320    -0.0002120
  H       -0.7317970     2.1947500     0.0001580
  H        1.5416230    -2.1350490     0.0001580
  H        4.1309200     1.0569280    -0.0000720
  H       -3.2210480     2.0687070     0.0001450
  H       -4.3145730    -0.1971740    -0.0000020
  H       -2.8500980    -2.2235110    -0.0001310
units angstrom
no_reorient  #important for SAPT in psi4, default
symmetry c1  #important for SAPT in psi4, default
}

set PROPERTIES_ORIGIN ["COM"]
properties('MP2/aug-cc-pvtz', properties = ['dipole'])
--------------------------------------------------------------------------

    Molecular point group: c1
  Charge       = 0
  Multiplicity = 1
  Basis Set: AUG-CC-PVTZ
    Blend: AUG-CC-PVTZ
  Basis Set: (AUG-CC-PVTZ AUX)
    Blend: AUG-CC-PVTZ-JKFIT

    Orbital Energies [Eh]
    ---------------------

    Doubly Occupied:

       1A    -20.627177     2A    -15.566440     3A    -11.294625
       4A    -11.293470     5A    -11.292563     6A    -11.279907
       7A    -11.263840     8A    -11.244289     9A    -11.242044
      10A    -11.242020    11A    -11.237433    12A     -1.455141
      13A     -1.259165    14A     -1.105095    15A     -1.089244
      16A     -1.034160    17A     -0.996653    18A     -0.875761
      19A     -0.863748    20A     -0.794017    21A     -0.776917
      22A     -0.743117    23A     -0.687201    24A     -0.663052
      25A     -0.646198    26A     -0.634746    27A     -0.603058
      28A     -0.585494    29A     -0.574515    30A     -0.571012
      31A     -0.549950    32A     -0.535554    33A     -0.521202
      34A     -0.424489    35A     -0.421541    36A     -0.384193
      37A     -0.348820    38A     -0.299587

  @DF-RHF Final Energy:  -474.32406645894230

   => Energetics <=

    Nuclear Repulsion Energy =            539.5806329251915940
    One-Electron Energy =               -1713.7545220742060792
    Two-Electron Energy =                 699.8498226900721875
    Total Energy =                       -474.3240664589422977
  Basis Set: (AUG-CC-PVTZ AUX)
    Blend: AUG-CC-PVTZ-RI
    Molecular point group: c1

    Geometry (in Angstrom), charge = 0, multiplicity = 1:

       Center              X                  Y                   Z               Mass
    ------------   -----------------  -----------------  -----------------  -----------------
         O            3.061203189484    -0.717717072416     0.012469665000    15.994914619570
         N           -1.100137810516    -1.156783072416     0.012329665000    14.003074004430
         C            0.950240189484     0.063831927584     0.012394665000    12.000000000000
         C           -0.513987810516     0.063416927584     0.012405665000    12.000000000000
         C            1.855581189484     1.175866927584     0.012307665000    12.000000000000
         C           -1.259150810516     1.251375927584     0.012492665000    12.000000000000
         C            1.741166689484    -1.059489172416    -0.137512335000    12.000000000000
         C           -2.649909810516     1.180190927584     0.012490665000    12.000000000000
         C            3.114125189484     0.647922927584     0.012363665000    12.000000000000
         C           -3.259086810516    -0.073647072416     0.012411665000    12.000000000000
         C           -2.440896810516    -1.204768072416     0.012337665000    12.000000000000
         H            1.616093189484     2.230781927584     0.012197665000     1.007825032230
         H           -0.757678810516     2.215099927584     0.012567665000     1.007825032230
         H            1.515741189484    -2.114699072416     0.012567665000     1.007825032230
         H            4.105038189484     1.077277927584     0.012337665000     1.007825032230
         H           -3.246929810516     2.089056927584     0.012554665000     1.007825032230
         H           -4.340454810516    -0.176824072416     0.012407665000     1.007825032230
         H           -2.875979810516    -2.203161072416     0.012278665000     1.007825032230

  Basis Set: AUG-CC-PVTZ
    Blend: AUG-CC-PVTZ
  Basis Set: (AUG-CC-PVTZ AUX)
    Blend: AUG-CC-PVTZ-JKFIT
	 Reference Energy          =    -474.3240664589422977 [Eh]
	 Singles Energy            =      -0.0000000000000000 [Eh]
	 Same-Spin Energy          =      -0.5147618974787905 [Eh]
	 Opposite-Spin Energy      =      -1.5582450896958995 [Eh]
	 Correlation Energy        =      -2.0730069871746899 [Eh]
	 Total Energy              =    -476.3970734461169627 [Eh]

	 ================> DF-SCS-MP2 Energies <==================
	-----------------------------------------------------------
	 SCS Same-Spin Scale       =       0.3333333333333333 [-]
	 SCS Opposite-Spin Scale   =       1.2000000000000000 [-]
	 SCS Same-Spin Energy      =      -0.1715872991595968 [Eh]
	 SCS Opposite-Spin Energy  =      -1.8698941076350792 [Eh]
	 SCS Correlation Energy    =      -2.0414814067946763 [Eh]
	 SCS Total Energy          =    -476.3655478657369713 [Eh]
	-----------------------------------------------------------

  Dipole Moment: [D]
     X:    -1.3960      Y:     2.0926      Z:     0.0491     Total:     2.5160

*** Psi4 exiting successfully. Buy a developer a beer!
