                               Psi4 1.4a2.dev612

  ==> Input File <==

--------------------------------------------------------------------------
#psi4
#
memory 32 gb

molecule  {
0 1
  O        3.0870850    -0.7380670     0.0000600
  N       -1.0742560    -1.1771330    -0.0000800
  C        0.9761220     0.0434820    -0.0000150
  C       -0.4881060     0.0430670    -0.0000040
  C        1.8814630     1.1555170    -0.0001020
  C       -1.2332690     1.2310260     0.0000830
  C        1.7670490    -1.0798270     0.0000780
  C       -2.6240280     1.1598410     0.0000810
  C        3.1400070     0.6275730    -0.0000460
  C       -3.2332050    -0.0939970     0.0000020
  C       -2.4150150    -1.2251180    -0.0000720
  H        1.6419750     2.2104320    -0.0002120
  H       -0.7317970     2.1947500     0.0001580
  H        1.5416230    -2.1350490     0.0001580
  H        4.1309200     1.0569280    -0.0000720
  H       -3.2210480     2.0687070     0.0001450
  H       -4.3145730    -0.1971740    -0.0000020
  H       -2.8500973    -2.2235171     0.0998690
units angstrom
no_reorient  #important for SAPT in psi4, default
symmetry c1  #important for SAPT in psi4, default
}

set PROPERTIES_ORIGIN ["COM"]
properties('MP2/aug-cc-pvtz', properties = ['dipole'])
--------------------------------------------------------------------------

    Molecular point group: c1
  Charge       = 0
  Multiplicity = 1
  Basis Set: AUG-CC-PVTZ
    Blend: AUG-CC-PVTZ
  Basis Set: (AUG-CC-PVTZ AUX)
    Blend: AUG-CC-PVTZ-JKFIT

    Orbital Energies [Eh]
    ---------------------

    Doubly Occupied:

       1A    -20.628676     2A    -15.565764     3A    -11.293852
       4A    -11.293371     5A    -11.292341     6A    -11.279939
       7A    -11.263411     8A    -11.243478     9A    -11.241200
      10A    -11.239184    11A    -11.237292    12A     -1.458913
      13A     -1.258660    14A     -1.105568    15A     -1.088675
      16A     -1.033939    17A     -0.998220    18A     -0.875582
      19A     -0.863168    20A     -0.795963    21A     -0.777678
      22A     -0.744849    23A     -0.687163    24A     -0.662545
      25A     -0.645924    26A     -0.635704    27A     -0.606895
      28A     -0.585569    29A     -0.575352    30A     -0.571907
      31A     -0.548964    32A     -0.538119    33A     -0.520155
      34A     -0.425153    35A     -0.421511    36A     -0.383822
      37A     -0.348708    38A     -0.299047

  @DF-RHF Final Energy:  -474.33044694460256

   => Energetics <=

    Nuclear Repulsion Energy =            539.8615452592255224
    One-Electron Energy =               -1714.3114661046959100
    Two-Electron Energy =                 700.1194739008678880
    Total Energy =                       -474.3304469446024996
  Basis Set: (AUG-CC-PVTZ AUX)
    Blend: AUG-CC-PVTZ-RI
    Molecular point group: c1

    Geometry (in Angstrom), charge = 0, multiplicity = 1:

       Center              X                  Y                   Z               Mass
    ------------   -----------------  -----------------  -----------------  -----------------
         O            3.061203143256    -0.717718031048    -0.000634411425    15.994914619570
         N           -1.100137856744    -1.156784031048    -0.000774411425    14.003074004430
         C            0.950240143256     0.063830968952    -0.000709411425    12.000000000000
         C           -0.513987856744     0.063415968952    -0.000698411425    12.000000000000
         C            1.855581143256     1.175865968952    -0.000796411425    12.000000000000
         C           -1.259150856744     1.251374968952    -0.000611411425    12.000000000000
         C            1.741167143256    -1.059478031048    -0.000616411425    12.000000000000
         C           -2.649909856744     1.180189968952    -0.000613411425    12.000000000000
         C            3.114125143256     0.647921968952    -0.000740411425    12.000000000000
         C           -3.259086856744    -0.073648031048    -0.000692411425    12.000000000000
         C           -2.440896856744    -1.204769031048    -0.000766411425    12.000000000000
         H            1.616093143256     2.230780968952    -0.000906411425     1.007825032230
         H           -0.757678856744     2.215098968952    -0.000536411425     1.007825032230
         H            1.515741143256    -2.114700031048    -0.000536411425     1.007825032230
         H            4.105038143256     1.077276968952    -0.000766411425     1.007825032230
         H           -3.246929856744     2.089055968952    -0.000549411425     1.007825032230
         H           -4.340454856744    -0.176825031048    -0.000696411425     1.007825032230
         H           -2.875979156744    -2.203168131048     0.099174588575     1.007825032230

  Basis Set: AUG-CC-PVTZ
    Blend: AUG-CC-PVTZ
  Basis Set: (AUG-CC-PVTZ AUX)
    Blend: AUG-CC-PVTZ-JKFIT
	 Reference Energy          =    -474.3304469446025564 [Eh]
	 Singles Energy            =      -0.0000000000000000 [Eh]
	 Same-Spin Energy          =      -0.5142432481351475 [Eh]
	 Opposite-Spin Energy      =      -1.5570241484976395 [Eh]
	 Correlation Energy        =      -2.0712673966327868 [Eh]
	 Total Energy              =    -476.4017143412353334 [Eh]

	 ================> DF-SCS-MP2 Energies <==================
	-----------------------------------------------------------
	 SCS Same-Spin Scale       =       0.3333333333333333 [-]
	 SCS Opposite-Spin Scale   =       1.2000000000000000 [-]
	 SCS Same-Spin Energy      =      -0.1714144160450492 [Eh]
	 SCS Opposite-Spin Energy  =      -1.8684289781971672 [Eh]
	 SCS Correlation Energy    =      -2.0398433942422165 [Eh]
	 SCS Total Energy          =    -476.3702903388447680 [Eh]
	-----------------------------------------------------------

  Dipole Moment: [D]
     X:    -1.3387      Y:     2.0288      Z:     0.0517     Total:     2.4312

*** Psi4 exiting successfully. Buy a developer a beer!
