                               Psi4 1.4a2.dev612

  ==> Input File <==

--------------------------------------------------------------------------
#psi4
#
memory 32 gb

molecule  {
0 1
  O        3.0870850    -0.7380670     0.0000600
  N       -1.0742560    -1.1771330    -0.0000800
  C        0.9761220     0.0434820    -0.0000150
  C       -0.4881060     0.0430670    -0.0000040
  C        1.8814630     1.1555170    -0.0001020
  C       -1.2332690     1.2310260     0.0000830
  C        1.7670490    -1.0798270     0.0000780
  C       -2.6240280     1.1598410     0.0000810
  C        3.1400070     0.6275730    -0.0000460
  C       -3.2332050    -0.0939970     0.0000020
  C       -2.4150150    -1.2251180    -0.0000720
  H        1.6419750     2.2104320    -0.0002120
  H       -0.7317970     2.1947500     0.0001580
  H        1.5416230    -2.1350490     0.0001580
  H        4.1309200     1.0569280    -0.0000720
  H       -3.2210483     2.0687136    -0.0998550
  H       -4.3145730    -0.1971740    -0.0000020
  H       -2.8500980    -2.2235110    -0.0001310
units angstrom
no_reorient  #important for SAPT in psi4, default
symmetry c1  #important for SAPT in psi4, default
}

set PROPERTIES_ORIGIN ["COM"]
properties('MP2/aug-cc-pvtz', properties = ['dipole'])
--------------------------------------------------------------------------

    Molecular point group: c1
  Charge       = 0
  Multiplicity = 1
  Basis Set: AUG-CC-PVTZ
    Blend: AUG-CC-PVTZ
  Basis Set: (AUG-CC-PVTZ AUX)
    Blend: AUG-CC-PVTZ-JKFIT

    Orbital Energies [Eh]
    ---------------------

    Doubly Occupied:

       1A    -20.628671     2A    -15.565768     3A    -11.293847
       4A    -11.293367     5A    -11.292320     6A    -11.279531
       7A    -11.263797     8A    -11.243480     9A    -11.241200
      10A    -11.239180    11A    -11.237286    12A     -1.458908
      13A     -1.258672    14A     -1.105580    15A     -1.088548
      16A     -1.034017    17A     -0.998241    18A     -0.875455
      19A     -0.863280    20A     -0.796058    21A     -0.777509
      22A     -0.744793    23A     -0.687122    24A     -0.662550
      25A     -0.646209    26A     -0.635702    27A     -0.606994
      28A     -0.585560    29A     -0.575218    30A     -0.571691
      31A     -0.548681    32A     -0.538061    33A     -0.520588
      34A     -0.424902    35A     -0.421817    36A     -0.383694
      37A     -0.348775    38A     -0.299053

  @DF-RHF Final Energy:  -474.33046363781477

   => Energetics <=

    Nuclear Repulsion Energy =            539.8619887092633007
    One-Electron Energy =               -1714.3126572403782575
    Two-Electron Energy =                 700.1202048933000697
    Total Energy =                       -474.3304636378147734
  Basis Set: (AUG-CC-PVTZ AUX)
    Blend: AUG-CC-PVTZ-RI
    Molecular point group: c1

    Geometry (in Angstrom), charge = 0, multiplicity = 1:

       Center              X                  Y                   Z               Mass
    ------------   -----------------  -----------------  -----------------  -----------------
         O            3.061203150204    -0.717718119288     0.000755186409    15.994914619570
         N           -1.100137849796    -1.156784119288     0.000615186409    14.003074004430
         C            0.950240150204     0.063830880712     0.000680186409    12.000000000000
         C           -0.513987849796     0.063415880712     0.000691186409    12.000000000000
         C            1.855581150204     1.175865880712     0.000593186409    12.000000000000
         C           -1.259150849796     1.251374880712     0.000778186409    12.000000000000
         C            1.741167150204    -1.059478119288     0.000773186409    12.000000000000
         C           -2.649909849796     1.180189880712     0.000776186409    12.000000000000
         C            3.114125150204     0.647921880712     0.000649186409    12.000000000000
         C           -3.259086849796    -0.073648119288     0.000697186409    12.000000000000
         C           -2.440896849796    -1.204769119288     0.000623186409    12.000000000000
         H            1.616093150204     2.230780880712     0.000483186409     1.007825032230
         H           -0.757678849796     2.215098880712     0.000853186409     1.007825032230
         H            1.515741150204    -2.114700119288     0.000853186409     1.007825032230
         H            4.105038150204     1.077276880712     0.000623186409     1.007825032230
         H           -3.246930149796     2.089062480712    -0.099159813591     1.007825032230
         H           -4.340454849796    -0.176825119288     0.000693186409     1.007825032230
         H           -2.875979849796    -2.203162119288     0.000564186409     1.007825032230

  Basis Set: AUG-CC-PVTZ
    Blend: AUG-CC-PVTZ
  Basis Set: (AUG-CC-PVTZ AUX)
    Blend: AUG-CC-PVTZ-JKFIT
	 Reference Energy          =    -474.3304636378147734 [Eh]
	 Singles Energy            =      -0.0000000000000000 [Eh]
	 Same-Spin Energy          =      -0.5142407069819480 [Eh]
	 Opposite-Spin Energy      =      -1.5570042469650514 [Eh]
	 Correlation Energy        =      -2.0712449539469993 [Eh]
	 Total Energy              =    -476.4017085917617464 [Eh]

	 ================> DF-SCS-MP2 Energies <==================
	-----------------------------------------------------------
	 SCS Same-Spin Scale       =       0.3333333333333333 [-]
	 SCS Opposite-Spin Scale   =       1.2000000000000000 [-]
	 SCS Same-Spin Energy      =      -0.1714135689939827 [Eh]
	 SCS Opposite-Spin Energy  =      -1.8684050963580616 [Eh]
	 SCS Correlation Energy    =      -2.0398186653520445 [Eh]
	 SCS Total Energy          =    -476.3702823031668458 [Eh]
	-----------------------------------------------------------

  Dipole Moment: [D]
     X:    -1.3387      Y:     2.0155      Z:    -0.0599     Total:     2.4203

*** Psi4 exiting successfully. Buy a developer a beer!
