                               Psi4 1.4a2.dev612

  ==> Input File <==

--------------------------------------------------------------------------
#psi4
#
memory 32 gb

molecule  {
0 1
  O        3.0870850    -0.7380670     0.0000600
  N       -1.0742560    -1.1771330    -0.0000800
  C        0.9761220     0.0434820    -0.0000150
  C       -0.4881060     0.0430670    -0.0000040
  C        1.8814630     1.1555170    -0.0001020
  C       -1.2332690     1.2310260     0.0000830
  C        1.7670490    -1.0798270     0.0000780
  C       -2.6240280     1.1598410     0.0000810
  C        3.1400070     0.6275730    -0.0000460
  C       -3.2332050    -0.0939970     0.0000020
  C       -2.4150150    -1.2251180    -0.0000720
  H        1.6419750     2.2104320    -0.0002120
  H       -0.7317970     2.1947500     0.0001580
  H        1.5416230    -2.1350490     0.0001580
  H        4.1309225     1.0569082    -0.2500720
  H       -3.2210480     2.0687070     0.0001450
  H       -4.3145730    -0.1971740    -0.0000020
  H       -2.8500980    -2.2235110    -0.0001310
units angstrom
no_reorient  #important for SAPT in psi4, default
symmetry c1  #important for SAPT in psi4, default
}

set PROPERTIES_ORIGIN ["COM"]
properties('MP2/aug-cc-pvtz', properties = ['dipole'])
--------------------------------------------------------------------------

    Molecular point group: c1
  Charge       = 0
  Multiplicity = 1
  Basis Set: AUG-CC-PVTZ
    Blend: AUG-CC-PVTZ
  Basis Set: (AUG-CC-PVTZ AUX)
    Blend: AUG-CC-PVTZ-JKFIT

    Orbital Energies [Eh]
    ---------------------

    Doubly Occupied:

       1A    -20.628560     2A    -15.565963     3A    -11.295080
       4A    -11.294717     5A    -11.292565     6A    -11.279733
       7A    -11.263603     8A    -11.243658     9A    -11.241350
      10A    -11.239632    11A    -11.238078    12A     -1.458941
      13A     -1.258892    14A     -1.106018    15A     -1.088866
      16A     -1.034026    17A     -0.997468    18A     -0.875685
      19A     -0.863463    20A     -0.795581    21A     -0.776025
      22A     -0.743218    23A     -0.686977    24A     -0.662640
      25A     -0.646583    26A     -0.637256    27A     -0.602141
      28A     -0.584809    29A     -0.575715    30A     -0.571364
      31A     -0.549192    32A     -0.537357    33A     -0.520524
      34A     -0.424934    35A     -0.422269    36A     -0.384065
      37A     -0.348817    38A     -0.299335

  @DF-RHF Final Energy:  -474.32746723853336

   => Energetics <=

    Nuclear Repulsion Energy =            539.7703151006760436
    One-Electron Energy =               -1714.1253720736328887
    Two-Electron Energy =                 700.0275897344234863
    Total Energy =                       -474.3274672385333588
  Basis Set: (AUG-CC-PVTZ AUX)
    Blend: AUG-CC-PVTZ-RI
    Molecular point group: c1

    Geometry (in Angstrom), charge = 0, multiplicity = 1:

       Center              X                  Y                   Z               Mass
    ------------   -----------------  -----------------  -----------------  -----------------
         O            3.061203130750    -0.717717935861     0.001797384784    15.994914619570
         N           -1.100137869250    -1.156783935861     0.001657384784    14.003074004430
         C            0.950240130750     0.063831064139     0.001722384784    12.000000000000
         C           -0.513987869250     0.063416064139     0.001733384784    12.000000000000
         C            1.855581130750     1.175866064139     0.001635384784    12.000000000000
         C           -1.259150869250     1.251375064139     0.001820384784    12.000000000000
         C            1.741167130750    -1.059477935861     0.001815384784    12.000000000000
         C           -2.649909869250     1.180190064139     0.001818384784    12.000000000000
         C            3.114125130750     0.647922064139     0.001691384784    12.000000000000
         C           -3.259086869250    -0.073647935861     0.001739384784    12.000000000000
         C           -2.440896869250    -1.204768935861     0.001665384784    12.000000000000
         H            1.616093130750     2.230781064139     0.001525384784     1.007825032230
         H           -0.757678869250     2.215099064139     0.001895384784     1.007825032230
         H            1.515741130750    -2.114699935861     0.001895384784     1.007825032230
         H            4.105040630750     1.077257264139    -0.248334615216     1.007825032230
         H           -3.246929869250     2.089056064139     0.001882384784     1.007825032230
         H           -4.340454869250    -0.176824935861     0.001735384784     1.007825032230
         H           -2.875979869250    -2.203161935861     0.001606384784     1.007825032230

  Basis Set: AUG-CC-PVTZ
    Blend: AUG-CC-PVTZ
  Basis Set: (AUG-CC-PVTZ AUX)
    Blend: AUG-CC-PVTZ-JKFIT
	 Reference Energy          =    -474.3274672385333588 [Eh]
	 Singles Energy            =      -0.0000000000000000 [Eh]
	 Same-Spin Energy          =      -0.5144355689965068 [Eh]
	 Opposite-Spin Energy      =      -1.5575056840701946 [Eh]
	 Correlation Energy        =      -2.0719412530667016 [Eh]
	 Total Energy              =    -476.3994084916000702 [Eh]

	 ================> DF-SCS-MP2 Energies <==================
	-----------------------------------------------------------
	 SCS Same-Spin Scale       =       0.3333333333333333 [-]
	 SCS Opposite-Spin Scale   =       1.2000000000000000 [-]
	 SCS Same-Spin Energy      =      -0.1714785229988356 [Eh]
	 SCS Opposite-Spin Energy  =      -1.8690068208842334 [Eh]
	 SCS Correlation Energy    =      -2.0404853438830690 [Eh]
	 SCS Total Energy          =    -476.3679525824164216 [Eh]
	-----------------------------------------------------------

  Dipole Moment: [D]
     X:    -1.4112      Y:     2.0009      Z:    -0.2133     Total:     2.4578

*** Psi4 exiting successfully. Buy a developer a beer!
