                               Psi4 1.4a2.dev612

  ==> Input File <==

--------------------------------------------------------------------------
#psi4
#
memory 32 gb

molecule  {
0 1
  O        3.0870850    -0.7380670     0.0000600
  N       -1.0742560    -1.1771330    -0.0000800
  C        0.9761220     0.0434820    -0.0000150
  C       -0.4881060     0.0430670    -0.0000040
  C        1.8814630     1.1555170    -0.0001020
  C       -1.2332690     1.2310260     0.0000830
  C        1.7670490    -1.0798270     0.0000780
  C       -2.6240280     1.1598410     0.0000810
  C        3.1400070     0.6275730    -0.0000460
  C       -3.2332050    -0.0939970     0.0000020
  C       -2.4150150    -1.2251180    -0.0000720
  H        1.6419750     2.2104320    -0.0002120
  H       -0.7317970     2.1947500     0.0001580
  H        1.5416230    -2.1350490     0.0001580
  H        4.1309200     1.0569280    -0.0000720
  H       -3.2210482     2.0687103    -0.0498550
  H       -4.3145730    -0.1971740    -0.0000020
  H       -2.8500980    -2.2235110    -0.0001310
units angstrom
no_reorient  #important for SAPT in psi4, default
symmetry c1  #important for SAPT in psi4, default
}

set PROPERTIES_ORIGIN ["COM"]
properties('MP2/aug-cc-pvtz', properties = ['dipole'])
--------------------------------------------------------------------------

    Molecular point group: c1
  Charge       = 0
  Multiplicity = 1
  Basis Set: AUG-CC-PVTZ
    Blend: AUG-CC-PVTZ
  Basis Set: (AUG-CC-PVTZ AUX)
    Blend: AUG-CC-PVTZ-JKFIT

    Orbital Energies [Eh]
    ---------------------

    Doubly Occupied:

       1A    -20.628659     2A    -15.565712     3A    -11.293834
       4A    -11.293355     5A    -11.292295     6A    -11.279506
       7A    -11.263480     8A    -11.243423     9A    -11.241143
      10A    -11.239164    11A    -11.237274    12A     -1.458897
      13A     -1.258633    14A     -1.105563    15A     -1.088604
      16A     -1.033992    17A     -0.998222    18A     -0.875524
      19A     -0.863384    20A     -0.796058    21A     -0.777628
      22A     -0.744923    23A     -0.687204    24A     -0.662526
      25A     -0.646305    26A     -0.635689    27A     -0.606980
      28A     -0.585628    29A     -0.575311    30A     -0.571831
      31A     -0.548868    32A     -0.538087    33A     -0.520557
      34A     -0.424720    35A     -0.421950    36A     -0.383807
      37A     -0.348755    38A     -0.299035

  @DF-RHF Final Energy:  -474.33095914986768

   => Energetics <=

    Nuclear Repulsion Energy =            539.8750355677015023
    One-Electron Energy =               -1714.3389372254941918
    Two-Electron Energy =                 700.1329425079248949
    Total Energy =                       -474.3309591498676809
  Basis Set: (AUG-CC-PVTZ AUX)
    Blend: AUG-CC-PVTZ-RI
    Molecular point group: c1

    Geometry (in Angstrom), charge = 0, multiplicity = 1:

       Center              X                  Y                   Z               Mass
    ------------   -----------------  -----------------  -----------------  -----------------
         O            3.061203149510    -0.717718096359     0.000407786950    15.994914619570
         N           -1.100137850490    -1.156784096359     0.000267786950    14.003074004430
         C            0.950240149510     0.063830903641     0.000332786950    12.000000000000
         C           -0.513987850490     0.063415903641     0.000343786950    12.000000000000
         C            1.855581149510     1.175865903641     0.000245786950    12.000000000000
         C           -1.259150850490     1.251374903641     0.000430786950    12.000000000000
         C            1.741167149510    -1.059478096359     0.000425786950    12.000000000000
         C           -2.649909850490     1.180189903641     0.000428786950    12.000000000000
         C            3.114125149510     0.647921903641     0.000301786950    12.000000000000
         C           -3.259086850490    -0.073648096359     0.000349786950    12.000000000000
         C           -2.440896850490    -1.204769096359     0.000275786950    12.000000000000
         H            1.616093149510     2.230780903641     0.000135786950     1.007825032230
         H           -0.757678850490     2.215098903641     0.000505786950     1.007825032230
         H            1.515741149510    -2.114700096359     0.000505786950     1.007825032230
         H            4.105038149510     1.077276903641     0.000275786950     1.007825032230
         H           -3.246930050490     2.089059203641    -0.049507213050     1.007825032230
         H           -4.340454850490    -0.176825096359     0.000345786950     1.007825032230
         H           -2.875979850490    -2.203162096359     0.000216786950     1.007825032230

  Basis Set: AUG-CC-PVTZ
    Blend: AUG-CC-PVTZ
  Basis Set: (AUG-CC-PVTZ AUX)
    Blend: AUG-CC-PVTZ-JKFIT
	 Reference Energy          =    -474.3309591498676809 [Eh]
	 Singles Energy            =      -0.0000000000000000 [Eh]
	 Same-Spin Energy          =      -0.5142108484347264 [Eh]
	 Opposite-Spin Energy      =      -1.5569627438818072 [Eh]
	 Correlation Energy        =      -2.0711735923165335 [Eh]
	 Total Energy              =    -476.4021327421842216 [Eh]

	 ================> DF-SCS-MP2 Energies <==================
	-----------------------------------------------------------
	 SCS Same-Spin Scale       =       0.3333333333333333 [-]
	 SCS Opposite-Spin Scale   =       1.2000000000000000 [-]
	 SCS Same-Spin Energy      =      -0.1714036161449088 [Eh]
	 SCS Opposite-Spin Energy  =      -1.8683552926581686 [Eh]
	 SCS Correlation Energy    =      -2.0397589088030772 [Eh]
	 SCS Total Energy          =    -476.3707180586707750 [Eh]
	-----------------------------------------------------------

  Dipole Moment: [D]
     X:    -1.3426      Y:     2.0203      Z:    -0.0300     Total:     2.4259

*** Psi4 exiting successfully. Buy a developer a beer!
