                               Psi4 1.4a2.dev612

  ==> Input File <==

--------------------------------------------------------------------------
#psi4
#
memory 32 gb

molecule  {
0 1
  O        3.0870850    -0.7380670     0.0000600
  N       -1.0742560    -1.1771330    -0.0000800
  C        0.9761220     0.0434820    -0.0000150
  C       -0.4881060     0.0430670    -0.0000040
  C        1.8814630     1.1555170    -0.0001020
  C       -1.2332690     1.2310260     0.0000830
  C        1.7670490    -1.0798270     0.0000780
  C       -2.6240280     1.1598410     0.0000810
  C        3.1400070     0.6275730    -0.0000460
  C       -3.2332050    -0.0939970     0.0000020
  C       -2.4150150    -1.2251180    -0.0000720
  H        1.6419750     2.2104320    -0.0002120
  H       -0.7317970     2.1947500     0.0001580
  H        1.5416230    -2.1350490     0.0001580
  H        4.1309205     1.0569240    -0.0500720
  H       -3.2210480     2.0687070     0.0001450
  H       -4.3145730    -0.1971740    -0.0000020
  H       -2.8500980    -2.2235110    -0.0001310
units angstrom
no_reorient  #important for SAPT in psi4, default
symmetry c1  #important for SAPT in psi4, default
}

set PROPERTIES_ORIGIN ["COM"]
properties('MP2/aug-cc-pvtz', properties = ['dipole'])
--------------------------------------------------------------------------

    Molecular point group: c1
  Charge       = 0
  Multiplicity = 1
  Basis Set: AUG-CC-PVTZ
    Blend: AUG-CC-PVTZ
  Basis Set: (AUG-CC-PVTZ AUX)
    Blend: AUG-CC-PVTZ-JKFIT

    Orbital Energies [Eh]
    ---------------------

    Doubly Occupied:

       1A    -20.628650     2A    -15.565705     3A    -11.293866
       4A    -11.293421     5A    -11.292299     6A    -11.279507
       7A    -11.263383     8A    -11.243415     9A    -11.241133
      10A    -11.239177    11A    -11.237303    12A     -1.458894
      13A     -1.258631    14A     -1.105576    15A     -1.088634
      16A     -1.033984    17A     -0.998184    18A     -0.875553
      19A     -0.863420    20A     -0.796032    21A     -0.777597
      22A     -0.744896    23A     -0.687222    24A     -0.662524
      25A     -0.646348    26A     -0.635762    27A     -0.606751
      28A     -0.585624    29A     -0.575359    30A     -0.571860
      31A     -0.548941    32A     -0.538069    33A     -0.520547
      34A     -0.424667    35A     -0.422010    36A     -0.383853
      37A     -0.348751    38A     -0.299042

  @DF-RHF Final Energy:  -474.33099090016071

   => Energetics <=

    Nuclear Repulsion Energy =            539.8749146826608012
    One-Electron Energy =               -1714.3386327209070714
    Two-Electron Energy =                 700.1327271380855564
    Total Energy =                       -474.3309909001607139
  Basis Set: (AUG-CC-PVTZ AUX)
    Blend: AUG-CC-PVTZ-RI
    Molecular point group: c1

    Geometry (in Angstrom), charge = 0, multiplicity = 1:

       Center              X                  Y                   Z               Mass
    ------------   -----------------  -----------------  -----------------  -----------------
         O            3.061203144646    -0.717718045639     0.000407786950    15.994914619570
         N           -1.100137855354    -1.156784045639     0.000267786950    14.003074004430
         C            0.950240144646     0.063830954361     0.000332786950    12.000000000000
         C           -0.513987855354     0.063415954361     0.000343786950    12.000000000000
         C            1.855581144646     1.175865954361     0.000245786950    12.000000000000
         C           -1.259150855354     1.251374954361     0.000430786950    12.000000000000
         C            1.741167144646    -1.059478045639     0.000425786950    12.000000000000
         C           -2.649909855354     1.180189954361     0.000428786950    12.000000000000
         C            3.114125144646     0.647921954361     0.000301786950    12.000000000000
         C           -3.259086855354    -0.073648045639     0.000349786950    12.000000000000
         C           -2.440896855354    -1.204769045639     0.000275786950    12.000000000000
         H            1.616093144646     2.230780954361     0.000135786950     1.007825032230
         H           -0.757678855354     2.215098954361     0.000505786950     1.007825032230
         H            1.515741144646    -2.114700045639     0.000505786950     1.007825032230
         H            4.105038644646     1.077272954361    -0.049724213050     1.007825032230
         H           -3.246929855354     2.089055954361     0.000492786950     1.007825032230
         H           -4.340454855354    -0.176825045639     0.000345786950     1.007825032230
         H           -2.875979855354    -2.203162045639     0.000216786950     1.007825032230

  Basis Set: AUG-CC-PVTZ
    Blend: AUG-CC-PVTZ
  Basis Set: (AUG-CC-PVTZ AUX)
    Blend: AUG-CC-PVTZ-JKFIT
	 Reference Energy          =    -474.3309909001607139 [Eh]
	 Singles Energy            =      -0.0000000000000000 [Eh]
	 Same-Spin Energy          =      -0.5142105130003964 [Eh]
	 Opposite-Spin Energy      =      -1.5569718207441043 [Eh]
	 Correlation Energy        =      -2.0711823337445008 [Eh]
	 Total Energy              =    -476.4021732339052164 [Eh]

	 ================> DF-SCS-MP2 Energies <==================
	-----------------------------------------------------------
	 SCS Same-Spin Scale       =       0.3333333333333333 [-]
	 SCS Opposite-Spin Scale   =       1.2000000000000000 [-]
	 SCS Same-Spin Energy      =      -0.1714035043334655 [Eh]
	 SCS Opposite-Spin Energy  =      -1.8683661848929252 [Eh]
	 SCS Correlation Energy    =      -2.0397696892263908 [Eh]
	 SCS Total Energy          =    -476.3707605893870891 [Eh]
	-----------------------------------------------------------

  Dipole Moment: [D]
     X:    -1.3467      Y:     2.0210      Z:    -0.0433     Total:     2.4290

*** Psi4 exiting successfully. Buy a developer a beer!
