                               Psi4 1.4a2.dev612

  ==> Input File <==

--------------------------------------------------------------------------
#psi4
#
memory 32 gb

molecule  {
0 1
  O        3.0870850    -0.7380670     0.0000600
  N       -1.0742560    -1.1771330    -0.0000800
  C        0.9761220     0.0434820    -0.0000150
  C       -0.4881060     0.0430670    -0.0000040
  C        1.8814630     1.1555170    -0.0001020
  C       -1.2332690     1.2310260     0.0000830
  C        1.7670490    -1.0798270     0.0000780
  C       -2.6240280     1.1598410     0.0000810
  C        3.1400070     0.6275730    -0.0000460
  C       -3.2332050    -0.0939970     0.0000020
  C       -2.4150150    -1.2251180    -0.0000720
  H        1.6419728     2.2104509     0.1997880
  H       -0.7317970     2.1947500     0.0001580
  H        1.5416230    -2.1350490     0.0001580
  H        4.1309200     1.0569280    -0.0000720
  H       -3.2210480     2.0687070     0.0001450
  H       -4.3145730    -0.1971740    -0.0000020
  H       -2.8500980    -2.2235110    -0.0001310
units angstrom
no_reorient  #important for SAPT in psi4, default
symmetry c1  #important for SAPT in psi4, default
}

set PROPERTIES_ORIGIN ["COM"]
properties('MP2/aug-cc-pvtz', properties = ['dipole'])
--------------------------------------------------------------------------

    Molecular point group: c1
  Charge       = 0
  Multiplicity = 1
  Basis Set: AUG-CC-PVTZ
    Blend: AUG-CC-PVTZ
  Basis Set: (AUG-CC-PVTZ AUX)
    Blend: AUG-CC-PVTZ-JKFIT

    Orbital Energies [Eh]
    ---------------------

    Doubly Occupied:

       1A    -20.629041     2A    -15.565671     3A    -11.294156
       4A    -11.293934     5A    -11.292196     6A    -11.279437
       7A    -11.263274     8A    -11.243270     9A    -11.241090
      10A    -11.239472    11A    -11.238468    12A     -1.459290
      13A     -1.258572    14A     -1.105467    15A     -1.088536
      16A     -1.033871    17A     -0.998322    18A     -0.875527
      19A     -0.863272    20A     -0.794390    21A     -0.777764
      22A     -0.744055    23A     -0.687124    24A     -0.662218
      25A     -0.646117    26A     -0.636133    27A     -0.606994
      28A     -0.585679    29A     -0.574160    30A     -0.569543
      31A     -0.548849    32A     -0.538197    33A     -0.520398
      34A     -0.424420    35A     -0.421919    36A     -0.383729
      37A     -0.348737    38A     -0.299138

  @DF-RHF Final Energy:  -474.32877923476002

   => Energetics <=

    Nuclear Repulsion Energy =            539.8062372806242593
    One-Electron Energy =               -1714.2051746388085576
    Two-Electron Energy =                 700.0701581234243349
    Total Energy =                       -474.3287792347600771
  Basis Set: (AUG-CC-PVTZ AUX)
    Blend: AUG-CC-PVTZ-RI
    Molecular point group: c1

    Geometry (in Angstrom), charge = 0, multiplicity = 1:

       Center              X                  Y                   Z               Mass
    ------------   -----------------  -----------------  -----------------  -----------------
         O            3.061203163406    -0.717718204748    -0.001329210342    15.994914619570
         N           -1.100137836594    -1.156784204748    -0.001469210342    14.003074004430
         C            0.950240163406     0.063830795252    -0.001404210342    12.000000000000
         C           -0.513987836594     0.063415795252    -0.001393210342    12.000000000000
         C            1.855581163406     1.175865795252    -0.001491210342    12.000000000000
         C           -1.259150836594     1.251374795252    -0.001306210342    12.000000000000
         C            1.741167163406    -1.059478204748    -0.001311210342    12.000000000000
         C           -2.649909836594     1.180189795252    -0.001308210342    12.000000000000
         C            3.114125163406     0.647921795252    -0.001435210342    12.000000000000
         C           -3.259086836594    -0.073648204748    -0.001387210342    12.000000000000
         C           -2.440896836594    -1.204769204748    -0.001461210342    12.000000000000
         H            1.616090963406     2.230799695252     0.198398789658     1.007825032230
         H           -0.757678836594     2.215098795252    -0.001231210342     1.007825032230
         H            1.515741163406    -2.114700204748    -0.001231210342     1.007825032230
         H            4.105038163406     1.077276795252    -0.001461210342     1.007825032230
         H           -3.246929836594     2.089055795252    -0.001244210342     1.007825032230
         H           -4.340454836594    -0.176825204748    -0.001391210342     1.007825032230
         H           -2.875979836594    -2.203162204748    -0.001520210342     1.007825032230

  Basis Set: AUG-CC-PVTZ
    Blend: AUG-CC-PVTZ
  Basis Set: (AUG-CC-PVTZ AUX)
    Blend: AUG-CC-PVTZ-JKFIT
	 Reference Energy          =    -474.3287792347600202 [Eh]
	 Singles Energy            =      -0.0000000000000000 [Eh]
	 Same-Spin Energy          =      -0.5143354200292236 [Eh]
	 Opposite-Spin Energy      =      -1.5571971895755932 [Eh]
	 Correlation Energy        =      -2.0715326096048168 [Eh]
	 Total Energy              =    -476.4003118443648646 [Eh]

	 ================> DF-SCS-MP2 Energies <==================
	-----------------------------------------------------------
	 SCS Same-Spin Scale       =       0.3333333333333333 [-]
	 SCS Opposite-Spin Scale   =       1.2000000000000000 [-]
	 SCS Same-Spin Energy      =      -0.1714451400097412 [Eh]
	 SCS Opposite-Spin Energy  =      -1.8686366274907118 [Eh]
	 SCS Correlation Energy    =      -2.0400817675004532 [Eh]
	 SCS Total Energy          =    -476.3688610022604735 [Eh]
	-----------------------------------------------------------

  Dipole Moment: [D]
     X:    -1.3334      Y:     1.9954      Z:     0.1502     Total:     2.4047

*** Psi4 exiting successfully. Buy a developer a beer!
