                               Psi4 1.4a2.dev612

  ==> Input File <==

--------------------------------------------------------------------------
#psi4
#
memory 32 gb

molecule  {
0 1
  O        3.0870850    -0.7380670     0.0000600
  N       -1.0742560    -1.1771330    -0.0000800
  C        0.9761220     0.0434820    -0.0000150
  C       -0.4881060     0.0430670    -0.0000040
  C        1.8814630     1.1555170    -0.0001020
  C       -1.2332690     1.2310260     0.0000830
  C        1.7670490    -1.0798270     0.0000780
  C       -2.6240280     1.1598410     0.0000810
  C        3.1400070     0.6275730    -0.0000460
  C       -3.2332050    -0.0939970     0.0000020
  C       -2.4150150    -1.2251180    -0.0000720
  H        1.6419750     2.2104320    -0.0002120
  H       -0.7317970     2.1947500     0.0001580
  H        1.5416230    -2.1350490     0.0001580
  H        4.1309200     1.0569280    -0.0000720
  H       -3.2210480     2.0687070     0.0001450
  H       -4.3145730    -0.1971740    -0.0000020
  H       -2.8500958    -2.2235293     0.2998690
units angstrom
no_reorient  #important for SAPT in psi4, default
symmetry c1  #important for SAPT in psi4, default
}

set PROPERTIES_ORIGIN ["COM"]
properties('MP2/aug-cc-pvtz', properties = ['dipole'])
--------------------------------------------------------------------------

    Molecular point group: c1
  Charge       = 0
  Multiplicity = 1
  Basis Set: AUG-CC-PVTZ
    Blend: AUG-CC-PVTZ
  Basis Set: (AUG-CC-PVTZ AUX)
    Blend: AUG-CC-PVTZ-JKFIT

    Orbital Energies [Eh]
    ---------------------

    Doubly Occupied:

       1A    -20.628845     2A    -15.566335     3A    -11.294033
       4A    -11.293538     5A    -11.292773     6A    -11.283364
       7A    -11.263713     8A    -11.244060     9A    -11.241815
      10A    -11.239391    11A    -11.237474    12A     -1.459077
      13A     -1.258988    14A     -1.105662    15A     -1.089086
      16A     -1.033644    17A     -0.998268    18A     -0.875869
      19A     -0.861407    20A     -0.795299    21A     -0.777763
      22A     -0.744018    23A     -0.686751    24A     -0.662792
      25A     -0.642802    26A     -0.635851    27A     -0.606247
      28A     -0.584864    29A     -0.575368    30A     -0.572160
      31A     -0.549252    32A     -0.538318    33A     -0.516977
      34A     -0.427282    35A     -0.419436    36A     -0.383662
      37A     -0.348400    38A     -0.299194

  @DF-RHF Final Energy:  -474.32448148448111

   => Energetics <=

    Nuclear Repulsion Energy =            539.7244065728677924
    One-Electron Energy =               -1714.0302190591448834
    Two-Electron Energy =                 699.9813310017959793
    Total Energy =                       -474.3244814844811117
  Basis Set: (AUG-CC-PVTZ AUX)
    Blend: AUG-CC-PVTZ-RI
    Molecular point group: c1

    Geometry (in Angstrom), charge = 0, multiplicity = 1:

       Center              X                  Y                   Z               Mass
    ------------   -----------------  -----------------  -----------------  -----------------
         O            3.061203132834    -0.717717946283    -0.002024009259    15.994914619570
         N           -1.100137867166    -1.156783946283    -0.002164009259    14.003074004430
         C            0.950240132834     0.063831053717    -0.002099009259    12.000000000000
         C           -0.513987867166     0.063416053717    -0.002088009259    12.000000000000
         C            1.855581132834     1.175866053717    -0.002186009259    12.000000000000
         C           -1.259150867166     1.251375053717    -0.002001009259    12.000000000000
         C            1.741167132834    -1.059477946283    -0.002006009259    12.000000000000
         C           -2.649909867166     1.180190053717    -0.002003009259    12.000000000000
         C            3.114125132834     0.647922053717    -0.002130009259    12.000000000000
         C           -3.259086867166    -0.073647946283    -0.002082009259    12.000000000000
         C           -2.440896867166    -1.204768946283    -0.002156009259    12.000000000000
         H            1.616093132834     2.230781053717    -0.002296009259     1.007825032230
         H           -0.757678867166     2.215099053717    -0.001926009259     1.007825032230
         H            1.515741132834    -2.114699946283    -0.001926009259     1.007825032230
         H            4.105038132834     1.077277053717    -0.002156009259     1.007825032230
         H           -3.246929867166     2.089056053717    -0.001939009259     1.007825032230
         H           -4.340454867166    -0.176824946283    -0.002086009259     1.007825032230
         H           -2.875977667166    -2.203180246283     0.297784990741     1.007825032230

  Basis Set: AUG-CC-PVTZ
    Blend: AUG-CC-PVTZ
  Basis Set: (AUG-CC-PVTZ AUX)
    Blend: AUG-CC-PVTZ-JKFIT
	 Reference Energy          =    -474.3244814844811117 [Eh]
	 Singles Energy            =      -0.0000000000000000 [Eh]
	 Same-Spin Energy          =      -0.5145834902649522 [Eh]
	 Opposite-Spin Energy      =      -1.5577745005580779 [Eh]
	 Correlation Energy        =      -2.0723579908230301 [Eh]
	 Total Energy              =    -476.3968394753041480 [Eh]

	 ================> DF-SCS-MP2 Energies <==================
	-----------------------------------------------------------
	 SCS Same-Spin Scale       =       0.3333333333333333 [-]
	 SCS Opposite-Spin Scale   =       1.2000000000000000 [-]
	 SCS Same-Spin Energy      =      -0.1715278300883174 [Eh]
	 SCS Opposite-Spin Energy  =      -1.8693294006696934 [Eh]
	 SCS Correlation Energy    =      -2.0408572307580108 [Eh]
	 SCS Total Energy          =    -476.3653387152391474 [Eh]
	-----------------------------------------------------------

  Dipole Moment: [D]
     X:    -1.2973      Y:     2.0835      Z:     0.1512     Total:     2.4591

*** Psi4 exiting successfully. Buy a developer a beer!
