                               Psi4 1.4a2.dev612

  ==> Input File <==

--------------------------------------------------------------------------
#psi4
#
memory 32 gb

molecule  {
0 1
  O        3.0870850    -0.7380670     0.0000600
  N       -1.0742560    -1.1771330    -0.0000800
  C        0.9761220     0.0434820    -0.0000150
  C       -0.4881060     0.0430670    -0.0000040
  C        1.8814630     1.1555170    -0.0001020
  C       -1.2332690     1.2310260     0.0000830
  C        1.7670490    -1.0798270     0.0000780
  C       -2.6240280     1.1598410     0.0000810
  C        3.1400070     0.6275730    -0.0000460
  C       -3.2332050    -0.0939970     0.0000020
  C       -2.4150150    -1.2251180    -0.0000720
  H        1.6419750     2.2104320    -0.0002120
  H       -0.7317970     2.1947500     0.0001580
  H        1.5416227    -2.1350451     0.0501580
  H        4.1309200     1.0569280    -0.0000720
  H       -3.2210480     2.0687070     0.0001450
  H       -4.3145730    -0.1971740    -0.0000020
  H       -2.8500980    -2.2235110    -0.0001310
units angstrom
no_reorient  #important for SAPT in psi4, default
symmetry c1  #important for SAPT in psi4, default
}

set PROPERTIES_ORIGIN ["COM"]
properties('MP2/aug-cc-pvtz', properties = ['dipole'])
--------------------------------------------------------------------------

    Molecular point group: c1
  Charge       = 0
  Multiplicity = 1
  Basis Set: AUG-CC-PVTZ
    Blend: AUG-CC-PVTZ
  Basis Set: (AUG-CC-PVTZ AUX)
    Blend: AUG-CC-PVTZ-JKFIT

    Orbital Energies [Eh]
    ---------------------

    Doubly Occupied:

       1A    -20.628641     2A    -15.565698     3A    -11.293892
       4A    -11.293380     5A    -11.292291     6A    -11.279500
       7A    -11.263379     8A    -11.243416     9A    -11.241133
      10A    -11.239185    11A    -11.237283    12A     -1.458886
      13A     -1.258625    14A     -1.105568    15A     -1.088630
      16A     -1.033986    17A     -0.998176    18A     -0.875542
      19A     -0.863424    20A     -0.796060    21A     -0.777556
      22A     -0.744883    23A     -0.687228    24A     -0.662523
      25A     -0.646344    26A     -0.635749    27A     -0.606766
      28A     -0.585628    29A     -0.575300    30A     -0.571875
      31A     -0.548934    32A     -0.538045    33A     -0.520554
      34A     -0.424660    35A     -0.421995    36A     -0.383847
      37A     -0.348752    38A     -0.299034

  @DF-RHF Final Energy:  -474.33098533224540

   => Energetics <=

    Nuclear Repulsion Energy =            539.8745232787192663
    One-Electron Energy =               -1714.3382821084010175
    Two-Electron Energy =                 700.1327734974364603
    Total Energy =                       -474.3309853322454046
  Basis Set: (AUG-CC-PVTZ AUX)
    Blend: AUG-CC-PVTZ-RI
    Molecular point group: c1

    Geometry (in Angstrom), charge = 0, multiplicity = 1:

       Center              X                  Y                   Z               Mass
    ------------   -----------------  -----------------  -----------------  -----------------
         O            3.061203150204    -0.717718100528    -0.000287011967    15.994914619570
         N           -1.100137849796    -1.156784100528    -0.000427011967    14.003074004430
         C            0.950240150204     0.063830899472    -0.000362011967    12.000000000000
         C           -0.513987849796     0.063415899472    -0.000351011967    12.000000000000
         C            1.855581150204     1.175865899472    -0.000449011967    12.000000000000
         C           -1.259150849796     1.251374899472    -0.000264011967    12.000000000000
         C            1.741167150204    -1.059478100528    -0.000269011967    12.000000000000
         C           -2.649909849796     1.180189899472    -0.000266011967    12.000000000000
         C            3.114125150204     0.647921899472    -0.000393011967    12.000000000000
         C           -3.259086849796    -0.073648100528    -0.000345011967    12.000000000000
         C           -2.440896849796    -1.204769100528    -0.000419011967    12.000000000000
         H            1.616093150204     2.230780899472    -0.000559011967     1.007825032230
         H           -0.757678849796     2.215098899472    -0.000189011967     1.007825032230
         H            1.515740850204    -2.114696200528     0.049810988033     1.007825032230
         H            4.105038150204     1.077276899472    -0.000419011967     1.007825032230
         H           -3.246929849796     2.089055899472    -0.000202011967     1.007825032230
         H           -4.340454849796    -0.176825100528    -0.000349011967     1.007825032230
         H           -2.875979849796    -2.203162100528    -0.000478011967     1.007825032230

  Basis Set: AUG-CC-PVTZ
    Blend: AUG-CC-PVTZ
  Basis Set: (AUG-CC-PVTZ AUX)
    Blend: AUG-CC-PVTZ-JKFIT
	 Reference Energy          =    -474.3309853322454046 [Eh]
	 Singles Energy            =      -0.0000000000000000 [Eh]
	 Same-Spin Energy          =      -0.5142132183649516 [Eh]
	 Opposite-Spin Energy      =      -1.5569743006960026 [Eh]
	 Correlation Energy        =      -2.0711875190609543 [Eh]
	 Total Energy              =    -476.4021728513063749 [Eh]

	 ================> DF-SCS-MP2 Energies <==================
	-----------------------------------------------------------
	 SCS Same-Spin Scale       =       0.3333333333333333 [-]
	 SCS Opposite-Spin Scale   =       1.2000000000000000 [-]
	 SCS Same-Spin Energy      =      -0.1714044061216505 [Eh]
	 SCS Opposite-Spin Energy  =      -1.8683691608352031 [Eh]
	 SCS Correlation Energy    =      -2.0397735669568537 [Eh]
	 SCS Total Energy          =    -476.3707588992022579 [Eh]
	-----------------------------------------------------------

  Dipole Moment: [D]
     X:    -1.3442      Y:     2.0238      Z:     0.0420     Total:     2.4299

*** Psi4 exiting successfully. Buy a developer a beer!
