                               Psi4 1.3.2 release

  ==> Input File <==

--------------------------------------------------------------------------
#psi4
#
memory 32 gb

molecule  {
0 1
  O       -1.2523610    -0.3679540     1.1390180
  C       -0.6414680    -0.4631600    -0.1573930
  C        0.8068160    -0.0466880    -0.0850580
  C       -1.4810420     0.4064310    -1.0751840
  C        1.0983630     1.3493650     0.3860570
  C        1.7702672    -0.9063557    -0.4463085
  H       -0.6847220    -1.5045720    -0.5137440
  H       -1.0704880     0.4059060    -2.0885930
  H       -2.5045050     0.0256980    -1.1039840
  H       -1.5089050     1.4302280    -0.6989750
  H        0.5609280     1.5513020     1.3193640
  H        2.1701080     1.4924500     0.5529100
  H        0.7653060     2.0941260    -0.3453770
  H        1.5377490    -1.9244940    -0.7449540
  H        2.8237910    -0.6585230    -0.3492850
  H       -0.7244690    -0.9269870     1.7376420
units angstrom
no_reorient  #important for SAPT in psi4, default
symmetry c1  #important for SAPT in psi4, default
}

set PROPERTIES_ORIGIN ["COM"]
properties('MP2/aug-cc-pvtz', properties = ['dipole'])
--------------------------------------------------------------------------

    Molecular point group: c1
  Charge       = 0
  Multiplicity = 1
  Basis Set: AUG-CC-PVTZ
    Blend: AUG-CC-PVTZ
  Basis Set: (AUG-CC-PVTZ AUX)
    Blend: AUG-CC-PVTZ-JKFIT

    Orbital Energies [Eh]
    ---------------------

    Doubly Occupied:

       1A    -20.558260     2A    -11.284282     3A    -11.241974
       4A    -11.222785     5A    -11.221386     6A    -11.214092
       7A     -1.357697     8A     -1.093441     9A     -0.998721
      10A     -0.938287    11A     -0.846336    12A     -0.734737
      13A     -0.691768    14A     -0.649762    15A     -0.597702
      16A     -0.590344    17A     -0.564543    18A     -0.548927
      19A     -0.531258    20A     -0.523117    21A     -0.511270
      22A     -0.478677    23A     -0.440444    24A     -0.358778

  @DF-RHF Final Energy:  -270.10171281853906

   => Energetics <=

    Nuclear Repulsion Energy =            245.4861449429563436
    One-Electron Energy =                -852.7785433931985608
    Two-Electron Energy =                 337.1906856317031611
    Total Energy =                       -270.1017128185390561
  Basis Set: (AUG-CC-PVTZ AUX)
    Blend: AUG-CC-PVTZ-RI
    Molecular point group: c1

    Geometry (in Angstrom), charge = 0, multiplicity = 1:

       Center              X                  Y                   Z               Mass
    ------------   -----------------  -----------------  -----------------  -----------------
         O           -1.252120503224    -0.370165868516     1.145624324468    15.994914619570
         C           -0.641227503224    -0.465371868516    -0.150786675532    12.000000000000
         C            0.807056496776    -0.048899868516    -0.078451675532    12.000000000000
         C           -1.480801503224     0.404219131484    -1.068577675532    12.000000000000
         C            1.098603496776     1.347153131484     0.392663324468    12.000000000000
         C            1.770507696776    -0.908567568516    -0.439702175532    12.000000000000
         H           -0.684481503224    -1.506783868516    -0.507137675532     1.007825032230
         H           -1.070247503224     0.403694131484    -2.081986675532     1.007825032230
         H           -2.504264503224     0.023486131484    -1.097377675532     1.007825032230
         H           -1.508664503224     1.428016131484    -0.692368675532     1.007825032230
         H            0.561168496776     1.549090131484     1.325970324468     1.007825032230
         H            2.170348496776     1.490238131484     0.559516324468     1.007825032230
         H            0.765546496776     2.091914131484    -0.338770675532     1.007825032230
         H            1.537989496776    -1.926705868516    -0.738347675532     1.007825032230
         H            2.824031496776    -0.660734868516    -0.342678675532     1.007825032230
         H           -0.724228503224    -0.929198868516     1.744248324468     1.007825032230

  Basis Set: AUG-CC-PVTZ
    Blend: AUG-CC-PVTZ
  Basis Set: (AUG-CC-PVTZ AUX)
    Blend: AUG-CC-PVTZ-JKFIT
	 Reference Energy          =    -270.1017128185390561 [Eh]
	 Singles Energy            =      -0.0000000000000000 [Eh]
	 Same-Spin Energy          =      -0.2756749771573105 [Eh]
	 Opposite-Spin Energy      =      -0.9506471897107120 [Eh]
	 Correlation Energy        =      -1.2263221668680226 [Eh]
	 Total Energy              =    -271.3280349854071005 [Eh]

	 ================> DF-SCS-MP2 Energies <==================
	-----------------------------------------------------------
	 SCS Same-Spin Scale       =       0.3333333333333333 [-]
	 SCS Opposite-Spin Scale   =       1.2000000000000000 [-]
	 SCS Same-Spin Energy      =      -0.0918916590524368 [Eh]
	 SCS Opposite-Spin Energy  =      -1.1407766276528544 [Eh]
	 SCS Correlation Energy    =      -1.2326682867052912 [Eh]
	 SCS Total Energy          =    -271.3343811052443471 [Eh]
	-----------------------------------------------------------

  Dipole Moment: [D]
     X:     1.1111      Y:    -0.4599      Z:    -0.3112     Total:     1.2421

*** Psi4 exiting successfully. Buy a developer a beer!
