                               Psi4 1.3.2 release

  ==> Input File <==

--------------------------------------------------------------------------
#psi4
#
memory 32 gb

molecule  {
0 1
  O       -1.2523610    -0.3679540     1.1390180
  C       -0.6414680    -0.4631600    -0.1573930
  C        0.8068160    -0.0466880    -0.0850580
  C       -1.4810420     0.4064310    -1.0751840
  C        1.0983630     1.3493650     0.3860570
  C        1.7719920    -0.9222190    -0.3989230
  H       -0.6847220    -1.5045720    -0.5137440
  H       -1.0704880     0.4059060    -2.0885930
  H       -2.5045050     0.0256980    -1.1039840
  H       -1.5089050     1.4302280    -0.6989750
  H        0.5609280     1.5513020     1.3193640
  H        2.1701080     1.4924500     0.5529100
  H        0.7653060     2.0941260    -0.3453770
  H        1.5377490    -1.9244940    -0.7449540
  H        2.8237910    -0.6585230    -0.3492850
  H       -0.7244690    -0.9269870     1.7376420
units angstrom
no_reorient  #important for SAPT in psi4, default
symmetry c1  #important for SAPT in psi4, default
}

set PROPERTIES_ORIGIN ["COM"]
properties('MP2/aug-cc-pvtz', properties = ['dipole'])
--------------------------------------------------------------------------

    Molecular point group: c1
  Charge       = 0
  Multiplicity = 1
  Basis Set: AUG-CC-PVTZ
    Blend: AUG-CC-PVTZ
  Basis Set: (AUG-CC-PVTZ AUX)
    Blend: AUG-CC-PVTZ-JKFIT

    Orbital Energies [Eh]
    ---------------------

    Doubly Occupied:

       1A    -20.558032     2A    -11.284217     3A    -11.241839
       4A    -11.222707     5A    -11.221343     6A    -11.214167
       7A     -1.357488     8A     -1.093413     9A     -0.998883
      10A     -0.938350    11A     -0.846332    12A     -0.734761
      13A     -0.691683    14A     -0.649855    15A     -0.597744
      16A     -0.590765    17A     -0.564363    18A     -0.548997
      19A     -0.531331    20A     -0.523399    21A     -0.511084
      22A     -0.478411    23A     -0.440387    24A     -0.359031

  @DF-RHF Final Energy:  -270.10214489605914

   => Energetics <=

    Nuclear Repulsion Energy =            245.5084129103178725
    One-Electron Energy =                -852.8239526164668405
    Two-Electron Energy =                 337.2133948100897669
    Total Energy =                       -270.1021448960591442
  Basis Set: (AUG-CC-PVTZ AUX)
    Blend: AUG-CC-PVTZ-RI
    Molecular point group: c1

    Geometry (in Angstrom), charge = 0, multiplicity = 1:

       Center              X                  Y                   Z               Mass
    ------------   -----------------  -----------------  -----------------  -----------------
         O           -1.252360968414    -0.367954266327     1.139018014587    15.994914619570
         C           -0.641467968414    -0.463160266327    -0.157392985413    12.000000000000
         C            0.806816031586    -0.046688266327    -0.085057985413    12.000000000000
         C           -1.481041968414     0.406430733673    -1.075183985413    12.000000000000
         C            1.098363031586     1.349364733673     0.386057014587    12.000000000000
         C            1.771992031586    -0.922219266327    -0.398922985413    12.000000000000
         H           -0.684721968414    -1.504572266327    -0.513743985413     1.007825032230
         H           -1.070487968414     0.405905733673    -2.088592985413     1.007825032230
         H           -2.504504968414     0.025697733673    -1.103983985413     1.007825032230
         H           -1.508904968414     1.430227733673    -0.698974985413     1.007825032230
         H            0.560928031586     1.551301733673     1.319364014587     1.007825032230
         H            2.170108031586     1.492449733673     0.552910014587     1.007825032230
         H            0.765306031586     2.094125733673    -0.345376985413     1.007825032230
         H            1.537749031586    -1.924494266327    -0.744953985413     1.007825032230
         H            2.823791031586    -0.658523266327    -0.349284985413     1.007825032230
         H           -0.724468968414    -0.926987266327     1.737642014587     1.007825032230

  Basis Set: AUG-CC-PVTZ
    Blend: AUG-CC-PVTZ
  Basis Set: (AUG-CC-PVTZ AUX)
    Blend: AUG-CC-PVTZ-JKFIT
	 Reference Energy          =    -270.1021448960591442 [Eh]
	 Singles Energy            =      -0.0000000000000000 [Eh]
	 Same-Spin Energy          =      -0.2756556764487886 [Eh]
	 Opposite-Spin Energy      =      -0.9506096821207140 [Eh]
	 Correlation Energy        =      -1.2262653585695025 [Eh]
	 Total Energy              =    -271.3284102546286363 [Eh]

	 ================> DF-SCS-MP2 Energies <==================
	-----------------------------------------------------------
	 SCS Same-Spin Scale       =       0.3333333333333333 [-]
	 SCS Opposite-Spin Scale   =       1.2000000000000000 [-]
	 SCS Same-Spin Energy      =      -0.0918852254829295 [Eh]
	 SCS Opposite-Spin Energy  =      -1.1407316185448566 [Eh]
	 SCS Correlation Energy    =      -1.2326168440277860 [Eh]
	 SCS Total Energy          =    -271.3347617400869467 [Eh]
	-----------------------------------------------------------

  Dipole Moment: [D]
     X:     1.1142      Y:    -0.4402      Z:    -0.3768     Total:     1.2559

*** Psi4 exiting successfully. Buy a developer a beer!
