                               Psi4 1.3.2 release

  ==> Input File <==

--------------------------------------------------------------------------
#psi4
#
memory 32 gb

molecule  {
0 1
  O       -1.2523610    -0.3679540     1.1390180
  C       -0.6414680    -0.4631600    -0.1573930
  C        0.8068160    -0.0466880    -0.0850580
  C       -1.4810420     0.4064310    -1.0751840
  C        1.0983630     1.3493650     0.3860570
  C        1.7668175    -0.8746292    -0.5410794
  H       -0.6847220    -1.5045720    -0.5137440
  H       -1.0704880     0.4059060    -2.0885930
  H       -2.5045050     0.0256980    -1.1039840
  H       -1.5089050     1.4302280    -0.6989750
  H        0.5609280     1.5513020     1.3193640
  H        2.1701080     1.4924500     0.5529100
  H        0.7653060     2.0941260    -0.3453770
  H        1.5377490    -1.9244940    -0.7449540
  H        2.8237910    -0.6585230    -0.3492850
  H       -0.7244690    -0.9269870     1.7376420
units angstrom
no_reorient  #important for SAPT in psi4, default
symmetry c1  #important for SAPT in psi4, default
}

set PROPERTIES_ORIGIN ["COM"]
properties('MP2/aug-cc-pvtz', properties = ['dipole'])
--------------------------------------------------------------------------

    Molecular point group: c1
  Charge       = 0
  Multiplicity = 1
  Basis Set: AUG-CC-PVTZ
    Blend: AUG-CC-PVTZ
  Basis Set: (AUG-CC-PVTZ AUX)
    Blend: AUG-CC-PVTZ-JKFIT

    Orbital Energies [Eh]
    ---------------------

    Doubly Occupied:

       1A    -20.559288     2A    -11.284965     3A    -11.244807
       4A    -11.224210     5A    -11.222112     6A    -11.214445
       7A     -1.358681     8A     -1.093444     9A     -0.998651
      10A     -0.937942    11A     -0.846463    12A     -0.734231
      13A     -0.692275    14A     -0.648093    15A     -0.596380
      16A     -0.588297    17A     -0.565447    18A     -0.549294
      19A     -0.531537    20A     -0.522122    21A     -0.511063
      22A     -0.479143    23A     -0.441054    24A     -0.358019

  @DF-RHF Final Energy:  -270.09691328588792

   => Energetics <=

    Nuclear Repulsion Energy =            245.3182214221345703
    One-Electron Energy =                -852.4263465961416841
    Two-Electron Energy =                 337.0112118881191918
    Total Energy =                       -270.0969132858879220
  Basis Set: (AUG-CC-PVTZ AUX)
    Blend: AUG-CC-PVTZ-RI
    Molecular point group: c1

    Geometry (in Angstrom), charge = 0, multiplicity = 1:

       Center              X                  Y                   Z               Mass
    ------------   -----------------  -----------------  -----------------  -----------------
         O           -1.251639558901    -0.374589058952     1.158836930287    15.994914619570
         C           -0.640746558902    -0.469795058952    -0.137574069713    12.000000000000
         C            0.807537441098    -0.053323058952    -0.065239069713    12.000000000000
         C           -1.480320558902     0.399795941048    -1.055365069713    12.000000000000
         C            1.099084441099     1.342729941048     0.405875930287    12.000000000000
         C            1.767538941098    -0.881264258952    -0.521260469713    12.000000000000
         H           -0.684000558902    -1.511207058952    -0.493925069713     1.007825032230
         H           -1.069766558902     0.399270941048    -2.068774069713     1.007825032230
         H           -2.503783558901     0.019062941048    -1.084165069713     1.007825032230
         H           -1.508183558902     1.423592941048    -0.679156069713     1.007825032230
         H            0.561649441098     1.544666941048     1.339182930287     1.007825032230
         H            2.170829441098     1.485814941048     0.572728930287     1.007825032230
         H            0.766027441098     2.087490941048    -0.325558069713     1.007825032230
         H            1.538470441098    -1.931129058952    -0.725135069713     1.007825032230
         H            2.824512441098    -0.665158058952    -0.329466069713     1.007825032230
         H           -0.723747558902    -0.933622058952     1.757460930287     1.007825032230

  Basis Set: AUG-CC-PVTZ
    Blend: AUG-CC-PVTZ
  Basis Set: (AUG-CC-PVTZ AUX)
    Blend: AUG-CC-PVTZ-JKFIT
	 Reference Energy          =    -270.0969132858879220 [Eh]
	 Singles Energy            =      -0.0000000000000000 [Eh]
	 Same-Spin Energy          =      -0.2759677089779396 [Eh]
	 Opposite-Spin Energy      =      -0.9514090885372961 [Eh]
	 Correlation Energy        =      -1.2273767975152357 [Eh]
	 Total Energy              =    -271.3242900834031843 [Eh]

	 ================> DF-SCS-MP2 Energies <==================
	-----------------------------------------------------------
	 SCS Same-Spin Scale       =       0.3333333333333333 [-]
	 SCS Opposite-Spin Scale   =       1.2000000000000000 [-]
	 SCS Same-Spin Energy      =      -0.0919892363259799 [Eh]
	 SCS Opposite-Spin Energy  =      -1.1416909062447553 [Eh]
	 SCS Correlation Energy    =      -1.2336801425707351 [Eh]
	 SCS Total Energy          =    -271.3305934284586556 [Eh]
	-----------------------------------------------------------

  Dipole Moment: [D]
     X:     1.0666      Y:    -0.4665      Z:    -0.1676     Total:     1.1762

*** Psi4 exiting successfully. Buy a developer a beer!
