                               Psi4 1.3.2 release

  ==> Input File <==

--------------------------------------------------------------------------
#psi4
#
memory 32 gb

molecule  {
0 1
  O       -1.2523610    -0.3679540     1.1390180
  C       -0.6414680    -0.4631600    -0.1573930
  C        0.8068160    -0.0466880    -0.0850580
  C       -1.4810420     0.4064310    -1.0751840
  C        1.0983630     1.3493650     0.3860570
  C        1.7633678    -0.8429027    -0.6358503
  H       -0.6847220    -1.5045720    -0.5137440
  H       -1.0704880     0.4059060    -2.0885930
  H       -2.5045050     0.0256980    -1.1039840
  H       -1.5089050     1.4302280    -0.6989750
  H        0.5609280     1.5513020     1.3193640
  H        2.1701080     1.4924500     0.5529100
  H        0.7653060     2.0941260    -0.3453770
  H        1.5377490    -1.9244940    -0.7449540
  H        2.8237910    -0.6585230    -0.3492850
  H       -0.7244690    -0.9269870     1.7376420
units angstrom
no_reorient  #important for SAPT in psi4, default
symmetry c1  #important for SAPT in psi4, default
}

set PROPERTIES_ORIGIN ["COM"]
properties('MP2/aug-cc-pvtz', properties = ['dipole'])
--------------------------------------------------------------------------

    Molecular point group: c1
  Charge       = 0
  Multiplicity = 1
  Basis Set: AUG-CC-PVTZ
    Blend: AUG-CC-PVTZ
  Basis Set: (AUG-CC-PVTZ AUX)
    Blend: AUG-CC-PVTZ-JKFIT

    Orbital Energies [Eh]
    ---------------------

    Doubly Occupied:

       1A    -20.561042     2A    -11.286384     3A    -11.250915
       4A    -11.227241     5A    -11.223679     6A    -11.215468
       7A     -1.360396     8A     -1.093433     9A     -0.998954
      10A     -0.937208    11A     -0.846773    12A     -0.733414
      13A     -0.693324    14A     -0.644603    15A     -0.596074
      16A     -0.582580    17A     -0.567040    18A     -0.550336
      19A     -0.532411    20A     -0.521367    21A     -0.509009
      22A     -0.479291    23A     -0.442233    24A     -0.357061

  @DF-RHF Final Energy:  -270.08663737836758

   => Energetics <=

    Nuclear Repulsion Energy =            244.9925251103587698
    One-Electron Energy =                -851.7378491946629993
    Two-Electron Energy =                 336.6586867059366455
    Total Energy =                       -270.0866373783675840
  Basis Set: (AUG-CC-PVTZ AUX)
    Blend: AUG-CC-PVTZ-RI
    Molecular point group: c1

    Geometry (in Angstrom), charge = 0, multiplicity = 1:

       Center              X                  Y                   Z               Mass
    ------------   -----------------  -----------------  -----------------  -----------------
         O           -1.251158614579    -0.379012249389     1.172049536107    15.994914619570
         C           -0.640265614579    -0.474218249389    -0.124361463893    12.000000000000
         C            0.808018385421    -0.057746249389    -0.052026463893    12.000000000000
         C           -1.479839614579     0.395372750611    -1.042152463893    12.000000000000
         C            1.099565385421     1.338306750611     0.419088536107    12.000000000000
         C            1.764570185421    -0.853960949389    -0.602818763893    12.000000000000
         H           -0.683519614579    -1.515630249389    -0.480712463893     1.007825032230
         H           -1.069285614579     0.394847750611    -2.055561463893     1.007825032230
         H           -2.503302614579     0.014639750611    -1.070952463893     1.007825032230
         H           -1.507702614579     1.419169750611    -0.665943463893     1.007825032230
         H            0.562130385421     1.540243750611     1.352395536107     1.007825032230
         H            2.171310385421     1.481391750611     0.585941536107     1.007825032230
         H            0.766508385421     2.083067750611    -0.312345463893     1.007825032230
         H            1.538951385421    -1.935552249389    -0.711922463893     1.007825032230
         H            2.824993385421    -0.669581249389    -0.316253463893     1.007825032230
         H           -0.723266614579    -0.938045249389     1.770673536107     1.007825032230

  Basis Set: AUG-CC-PVTZ
    Blend: AUG-CC-PVTZ
  Basis Set: (AUG-CC-PVTZ AUX)
    Blend: AUG-CC-PVTZ-JKFIT
	 Reference Energy          =    -270.0866373783675840 [Eh]
	 Singles Energy            =      -0.0000000000000000 [Eh]
	 Same-Spin Energy          =      -0.2765778449381300 [Eh]
	 Opposite-Spin Energy      =      -0.9531078759267914 [Eh]
	 Correlation Energy        =      -1.2296857208649214 [Eh]
	 Total Energy              =    -271.3163230992324770 [Eh]

	 ================> DF-SCS-MP2 Energies <==================
	-----------------------------------------------------------
	 SCS Same-Spin Scale       =       0.3333333333333333 [-]
	 SCS Opposite-Spin Scale   =       1.2000000000000000 [-]
	 SCS Same-Spin Energy      =      -0.0921926149793767 [Eh]
	 SCS Opposite-Spin Energy  =      -1.1437294511121496 [Eh]
	 SCS Correlation Energy    =      -1.2359220660915262 [Eh]
	 SCS Total Energy          =    -271.3225594444591025 [Eh]
	-----------------------------------------------------------

  Dipole Moment: [D]
     X:     0.9769      Y:    -0.4346      Z:    -0.0085     Total:     1.0692

*** Psi4 exiting successfully. Buy a developer a beer!
