                               Psi4 1.3.2 release

  ==> Input File <==

--------------------------------------------------------------------------
#psi4
#
memory 32 gb

molecule  {
0 1
  O       -1.2523610    -0.3679540     1.1390180
  C       -0.6414680    -0.4631600    -0.1573930
  C        0.8068160    -0.0466880    -0.0850580
  C       -1.4810420     0.4064310    -1.0751840
  C        1.0983630     1.3493650     0.3860570
  C        1.7650926    -0.8587659    -0.5884648
  H       -0.6847220    -1.5045720    -0.5137440
  H       -1.0704880     0.4059060    -2.0885930
  H       -2.5045050     0.0256980    -1.1039840
  H       -1.5089050     1.4302280    -0.6989750
  H        0.5609280     1.5513020     1.3193640
  H        2.1701080     1.4924500     0.5529100
  H        0.7653060     2.0941260    -0.3453770
  H        1.5377490    -1.9244940    -0.7449540
  H        2.8237910    -0.6585230    -0.3492850
  H       -0.7244690    -0.9269870     1.7376420
units angstrom
no_reorient  #important for SAPT in psi4, default
symmetry c1  #important for SAPT in psi4, default
}

set PROPERTIES_ORIGIN ["COM"]
properties('MP2/aug-cc-pvtz', properties = ['dipole'])
--------------------------------------------------------------------------

    Molecular point group: c1
  Charge       = 0
  Multiplicity = 1
  Basis Set: AUG-CC-PVTZ
    Blend: AUG-CC-PVTZ
  Basis Set: (AUG-CC-PVTZ AUX)
    Blend: AUG-CC-PVTZ-JKFIT

    Orbital Energies [Eh]
    ---------------------

    Doubly Occupied:

       1A    -20.560077     2A    -11.285584     3A    -11.247467
       4A    -11.225534     5A    -11.222792     6A    -11.214873
       7A     -1.359450     8A     -1.093434     9A     -0.998752
      10A     -0.937633    11A     -0.846595    12A     -0.733831
      13A     -0.692724    14A     -0.646554    15A     -0.595982
      16A     -0.585949    17A     -0.566161    18A     -0.549733
      19A     -0.531899    20A     -0.521622    21A     -0.510381
      22A     -0.479285    23A     -0.441583    24A     -0.357551

  @DF-RHF Final Energy:  -270.09248266385998

   => Energetics <=

    Nuclear Repulsion Energy =            245.1743671090671626
    One-Electron Energy =                -852.1228105878370798
    Two-Electron Energy =                 336.8559608149099631
    Total Energy =                       -270.0924826638599825
  Basis Set: (AUG-CC-PVTZ AUX)
    Blend: AUG-CC-PVTZ-RI
    Molecular point group: c1

    Geometry (in Angstrom), charge = 0, multiplicity = 1:

       Center              X                  Y                   Z               Mass
    ------------   -----------------  -----------------  -----------------  -----------------
         O           -1.251399079769    -0.376800661141     1.165443226226    15.994914619570
         C           -0.640506079769    -0.472006661141    -0.130967773774    12.000000000000
         C            0.807777920231    -0.055534661141    -0.058632773774    12.000000000000
         C           -1.480080079769     0.397584338859    -1.048758773774    12.000000000000
         C            1.099324920231     1.340518338859     0.412482226226    12.000000000000
         C            1.766054520231    -0.867612561141    -0.562039573774    12.000000000000
         H           -0.683760079769    -1.513418661141    -0.487318773774     1.007825032230
         H           -1.069526079769     0.397059338859    -2.062167773774     1.007825032230
         H           -2.503543079769     0.016851338859    -1.077558773774     1.007825032230
         H           -1.507943079769     1.421381338859    -0.672549773774     1.007825032230
         H            0.561889920231     1.542455338859     1.345789226226     1.007825032230
         H            2.171069920231     1.483603338859     0.579335226226     1.007825032230
         H            0.766267920231     2.085279338859    -0.318951773774     1.007825032230
         H            1.538710920231    -1.933340661141    -0.718528773774     1.007825032230
         H            2.824752920231    -0.667369661141    -0.322859773774     1.007825032230
         H           -0.723507079769    -0.935833661141     1.764067226226     1.007825032230

  Basis Set: AUG-CC-PVTZ
    Blend: AUG-CC-PVTZ
  Basis Set: (AUG-CC-PVTZ AUX)
    Blend: AUG-CC-PVTZ-JKFIT
	 Reference Energy          =    -270.0924826638599825 [Eh]
	 Singles Energy            =      -0.0000000000000000 [Eh]
	 Same-Spin Energy          =      -0.2762357434403035 [Eh]
	 Opposite-Spin Energy      =      -0.9521463135787255 [Eh]
	 Correlation Energy        =      -1.2283820570190289 [Eh]
	 Total Energy              =    -271.3208647208790012 [Eh]

	 ================> DF-SCS-MP2 Energies <==================
	-----------------------------------------------------------
	 SCS Same-Spin Scale       =       0.3333333333333333 [-]
	 SCS Opposite-Spin Scale   =       1.2000000000000000 [-]
	 SCS Same-Spin Energy      =      -0.0920785811467678 [Eh]
	 SCS Opposite-Spin Energy  =      -1.1425755762944705 [Eh]
	 SCS Correlation Energy    =      -1.2346541574412384 [Eh]
	 SCS Total Energy          =    -271.3271368213012238 [Eh]
	-----------------------------------------------------------

  Dipole Moment: [D]
     X:     1.0268      Y:    -0.4549      Z:    -0.0897     Total:     1.1266

*** Psi4 exiting successfully. Buy a developer a beer!
