                               Psi4 1.3.2 release

  ==> Input File <==

--------------------------------------------------------------------------
#psi4
#
memory 32 gb

molecule  {
0 1
  O       -1.2523610    -0.3679540     1.1390180
  C       -0.6414680    -0.4631600    -0.1573930
  C        0.8068160    -0.0466880    -0.0850580
  C       -1.4810420     0.4064310    -1.0751840
  C        1.0983630     1.3493650     0.3860570
  C        1.7685423    -0.8904925    -0.4936939
  H       -0.6847220    -1.5045720    -0.5137440
  H       -1.0704880     0.4059060    -2.0885930
  H       -2.5045050     0.0256980    -1.1039840
  H       -1.5089050     1.4302280    -0.6989750
  H        0.5609280     1.5513020     1.3193640
  H        2.1701080     1.4924500     0.5529100
  H        0.7653060     2.0941260    -0.3453770
  H        1.5377490    -1.9244940    -0.7449540
  H        2.8237910    -0.6585230    -0.3492850
  H       -0.7244690    -0.9269870     1.7376420
units angstrom
no_reorient  #important for SAPT in psi4, default
symmetry c1  #important for SAPT in psi4, default
}

set PROPERTIES_ORIGIN ["COM"]
properties('MP2/aug-cc-pvtz', properties = ['dipole'])
--------------------------------------------------------------------------

    Molecular point group: c1
  Charge       = 0
  Multiplicity = 1
  Basis Set: AUG-CC-PVTZ
    Blend: AUG-CC-PVTZ
  Basis Set: (AUG-CC-PVTZ AUX)
    Blend: AUG-CC-PVTZ-JKFIT

    Orbital Energies [Eh]
    ---------------------

    Doubly Occupied:

       1A    -20.558680     2A    -11.284531     3A    -11.242968
       4A    -11.223289     5A    -11.221642     6A    -11.214184
       7A     -1.358096     8A     -1.093449     9A     -0.998642
      10A     -0.938155    11A     -0.846378    12A     -0.734550
      13A     -0.691961    14A     -0.649171    15A     -0.597108
      16A     -0.589641    17A     -0.564906    18A     -0.549025
      19A     -0.531325    20A     -0.522669    21A     -0.511296
      22A     -0.478927    23A     -0.440669    24A     -0.358436

  @DF-RHF Final Energy:  -270.09997695757869

   => Energetics <=

    Nuclear Repulsion Energy =            245.4225272856817810
    One-Electron Energy =                -852.6456117010136495
    Two-Electron Energy =                 337.1231074577531786
    Total Energy =                       -270.0999769575786900
  Basis Set: (AUG-CC-PVTZ AUX)
    Blend: AUG-CC-PVTZ-RI
    Molecular point group: c1

    Geometry (in Angstrom), charge = 0, multiplicity = 1:

       Center              X                  Y                   Z               Mass
    ------------   -----------------  -----------------  -----------------  -----------------
         O           -1.251880024092    -0.372377456763     1.152230620407    15.994914619570
         C           -0.640987024092    -0.467583456763    -0.144180379593    12.000000000000
         C            0.807296975908    -0.051111456763    -0.071845379593    12.000000000000
         C           -1.480561024092     0.402007543237    -1.061971379593    12.000000000000
         C            1.098843975908     1.344941543237     0.399269620407    12.000000000000
         C            1.769023275908    -0.894915956763    -0.480481279593    12.000000000000
         H           -0.684241024092    -1.508995456763    -0.500531379593     1.007825032230
         H           -1.070007024092     0.401482543237    -2.075380379593     1.007825032230
         H           -2.504024024092     0.021274543237    -1.090771379593     1.007825032230
         H           -1.508424024092     1.425804543237    -0.685762379593     1.007825032230
         H            0.561408975908     1.546878543237     1.332576620407     1.007825032230
         H            2.170588975908     1.488026543237     0.566122620407     1.007825032230
         H            0.765786975908     2.089702543237    -0.332164379593     1.007825032230
         H            1.538229975908    -1.928917456763    -0.731741379593     1.007825032230
         H            2.824271975908    -0.662946456763    -0.336072379593     1.007825032230
         H           -0.723988024092    -0.931410456763     1.750854620407     1.007825032230

  Basis Set: AUG-CC-PVTZ
    Blend: AUG-CC-PVTZ
  Basis Set: (AUG-CC-PVTZ AUX)
    Blend: AUG-CC-PVTZ-JKFIT
	 Reference Energy          =    -270.0999769575786900 [Eh]
	 Singles Energy            =      -0.0000000000000000 [Eh]
	 Same-Spin Energy          =      -0.2757795637376197 [Eh]
	 Opposite-Spin Energy      =      -0.9509095786316943 [Eh]
	 Correlation Energy        =      -1.2266891423693140 [Eh]
	 Total Energy              =    -271.3266660999479996 [Eh]

	 ================> DF-SCS-MP2 Energies <==================
	-----------------------------------------------------------
	 SCS Same-Spin Scale       =       0.3333333333333333 [-]
	 SCS Opposite-Spin Scale   =       1.2000000000000000 [-]
	 SCS Same-Spin Energy      =      -0.0919265212458732 [Eh]
	 SCS Opposite-Spin Energy  =      -1.1410914943580333 [Eh]
	 SCS Correlation Energy    =      -1.2330180156039066 [Eh]
	 SCS Total Energy          =    -271.3329949731826218 [Eh]
	-----------------------------------------------------------

  Dipole Moment: [D]
     X:     1.0950      Y:    -0.4685      Z:    -0.2415     Total:     1.2153

*** Psi4 exiting successfully. Buy a developer a beer!
