                               Psi4 1.3.2 release

  ==> Input File <==

--------------------------------------------------------------------------
#psi4
#
memory 32 gb

molecule  {
0 1
  O       -1.2523610    -0.3679540     1.1390180
  C       -0.6414680    -0.4631600    -0.1573930
  C        0.8068160    -0.0466880    -0.0850580
  C       -1.4810420     0.4064310    -1.0751840
  C        1.0983630     1.3493650     0.3860570
  C        1.7616430    -0.8270394    -0.6832358
  H       -0.6847220    -1.5045720    -0.5137440
  H       -1.0704880     0.4059060    -2.0885930
  H       -2.5045050     0.0256980    -1.1039840
  H       -1.5089050     1.4302280    -0.6989750
  H        0.5609280     1.5513020     1.3193640
  H        2.1701080     1.4924500     0.5529100
  H        0.7653060     2.0941260    -0.3453770
  H        1.5377490    -1.9244940    -0.7449540
  H        2.8237910    -0.6585230    -0.3492850
  H       -0.7244690    -0.9269870     1.7376420
units angstrom
no_reorient  #important for SAPT in psi4, default
symmetry c1  #important for SAPT in psi4, default
}

set PROPERTIES_ORIGIN ["COM"]
properties('MP2/aug-cc-pvtz', properties = ['dipole'])
--------------------------------------------------------------------------

    Molecular point group: c1
  Charge       = 0
  Multiplicity = 1
  Basis Set: AUG-CC-PVTZ
    Blend: AUG-CC-PVTZ
  Basis Set: (AUG-CC-PVTZ AUX)
    Blend: AUG-CC-PVTZ-JKFIT

    Orbital Energies [Eh]
    ---------------------

    Doubly Occupied:

       1A    -20.562172     2A    -11.287364     3A    -11.255104
       4A    -11.229312     5A    -11.224769     6A    -11.216228
       7A     -1.361513     8A     -1.093461     9A     -0.999265
      10A     -0.936644    11A     -0.846994    12A     -0.733047
      13A     -0.694087    14A     -0.642314    15A     -0.596575
      16A     -0.578456    17A     -0.568070    18A     -0.551092
      19A     -0.533072    20A     -0.521497    21A     -0.506789
      22A     -0.479068    23A     -0.442966    24A     -0.356586

  @DF-RHF Final Energy:  -270.07932944409356

   => Energetics <=

    Nuclear Repulsion Energy =            244.7746349834555986
    One-Electron Energy =                -851.2750407112044968
    Two-Electron Energy =                 336.4210762836553386
    Total Energy =                       -270.0793294440935597
  Basis Set: (AUG-CC-PVTZ AUX)
    Blend: AUG-CC-PVTZ-RI
    Molecular point group: c1

    Geometry (in Angstrom), charge = 0, multiplicity = 1:

       Center              X                  Y                   Z               Mass
    ------------   -----------------  -----------------  -----------------  -----------------
         O           -1.250918149389    -0.381223851578     1.178655845987    15.994914619570
         C           -0.640025149389    -0.476429851578    -0.117755154013    12.000000000000
         C            0.808258850611    -0.059957851578    -0.045420154013    12.000000000000
         C           -1.479599149389     0.393161148422    -1.035546154013    12.000000000000
         C            1.099805850611     1.336095148422     0.425694845987    12.000000000000
         C            1.763085850611    -0.840309251578    -0.643597954013    12.000000000000
         H           -0.683279149389    -1.517841851578    -0.474106154013     1.007825032230
         H           -1.069045149389     0.392636148422    -2.048955154013     1.007825032230
         H           -2.503062149389     0.012428148422    -1.064346154013     1.007825032230
         H           -1.507462149389     1.416958148422    -0.659337154013     1.007825032230
         H            0.562370850611     1.538032148422     1.359001845987     1.007825032230
         H            2.171550850611     1.479180148422     0.592547845987     1.007825032230
         H            0.766748850611     2.080856148422    -0.305739154013     1.007825032230
         H            1.539191850611    -1.937763851578    -0.705316154013     1.007825032230
         H            2.825233850611    -0.671792851578    -0.309647154013     1.007825032230
         H           -0.723026149389    -0.940256851578     1.777279845987     1.007825032230

  Basis Set: AUG-CC-PVTZ
    Blend: AUG-CC-PVTZ
  Basis Set: (AUG-CC-PVTZ AUX)
    Blend: AUG-CC-PVTZ-JKFIT
	 Reference Energy          =    -270.0793294440935597 [Eh]
	 Singles Energy            =      -0.0000000000000000 [Eh]
	 Same-Spin Energy          =      -0.2769858753269180 [Eh]
	 Opposite-Spin Energy      =      -0.9542663692109461 [Eh]
	 Correlation Energy        =      -1.2312522445378642 [Eh]
	 Total Energy              =    -271.3105816886314301 [Eh]

	 ================> DF-SCS-MP2 Energies <==================
	-----------------------------------------------------------
	 SCS Same-Spin Scale       =       0.3333333333333333 [-]
	 SCS Opposite-Spin Scale   =       1.2000000000000000 [-]
	 SCS Same-Spin Energy      =      -0.0923286251089727 [Eh]
	 SCS Opposite-Spin Energy  =      -1.1451196430531352 [Eh]
	 SCS Correlation Energy    =      -1.2374482681621077 [Eh]
	 SCS Total Energy          =    -271.3167777122556572 [Eh]
	-----------------------------------------------------------

  Dipole Moment: [D]
     X:     0.9183      Y:    -0.4069      Z:     0.0752     Total:     1.0072

*** Psi4 exiting successfully. Buy a developer a beer!
