                               Psi4 1.3.2 release

  ==> Input File <==

--------------------------------------------------------------------------
#psi4
#
memory 32 gb

molecule  {
0 1
  C        1.8115140    -0.5649830    -0.0000040
  H        1.7159910    -1.6536130     0.0002720
  H        2.3774210    -0.2548590     0.8810970
  H        2.3770450    -0.2552970    -0.8815060
  C        0.4821720     0.1627700     0.0001260
  O        0.4193660     1.3939540    -0.0000280
  N       -0.6234180    -0.6408620    -0.0001190
  H       -0.4986210    -1.6430060     0.0003100
  C       -1.9687341    -0.1002577    -0.0499820
  H       -1.8734000     0.9850130    -0.0016940
  H       -2.5201200    -0.4159370    -0.8903930
  H       -2.5190110    -0.4131270     0.8921260
units angstrom
no_reorient  #important for SAPT in psi4, default
symmetry c1  #important for SAPT in psi4, default
}

set PROPERTIES_ORIGIN ["COM"]
properties('MP2/aug-cc-pvtz', properties = ['dipole'])
--------------------------------------------------------------------------

    Molecular point group: c1
  Charge       = 0
  Multiplicity = 1
  Basis Set: AUG-CC-PVTZ
    Blend: AUG-CC-PVTZ
  Basis Set: (AUG-CC-PVTZ AUX)
    Blend: AUG-CC-PVTZ-JKFIT

    Orbital Energies [Eh]
    ---------------------

    Doubly Occupied:

       1A    -20.511552     2A    -15.589241     3A    -11.350919
       4A    -11.258528     5A    -11.237950     6A     -1.368426
       7A     -1.227646     8A     -1.016522     9A     -0.930678
      10A     -0.788504    11A     -0.689943    12A     -0.650622
      13A     -0.630680    14A     -0.588127    15A     -0.577235
      16A     -0.553554    17A     -0.542388    18A     -0.501327
      19A     -0.420515    20A     -0.390978

  @DF-RHF Final Energy:  -247.09844949659538

   => Energetics <=

    Nuclear Repulsion Energy =            179.6978322548208951
    One-Electron Energy =                -691.9418902440230568
    Two-Electron Energy =                 265.1456084926067547
    Total Energy =                       -247.0984494965953786
  Basis Set: (AUG-CC-PVTZ AUX)
    Blend: AUG-CC-PVTZ-RI
    Molecular point group: c1

    Geometry (in Angstrom), charge = 0, multiplicity = 1:

       Center              X                  Y                   Z               Mass
    ------------   -----------------  -----------------  -----------------  -----------------
         C            1.798792759119    -0.614441703264     0.008212260862    12.000000000000
         H            1.703269759119    -1.703071703264     0.008488260862     1.007825032230
         H            2.364699759119    -0.304317703264     0.889313260862     1.007825032230
         H            2.364323759119    -0.304755703264    -0.873289739138     1.007825032230
         C            0.469450759119     0.113311296736     0.008342260862    12.000000000000
         O            0.406644759119     1.344495296736     0.008188260862    15.994914619570
         N           -0.636139240881    -0.690320703264     0.008097260862    14.003074004430
         H           -0.511342240881    -1.692464703264     0.008526260862     1.007825032230
         C           -1.981455340881    -0.149716403264    -0.041765739138    12.000000000000
         H           -1.886121240881     0.935554296736     0.006522260862     1.007825032230
         H           -2.532841240881    -0.465395703264    -0.882176739138     1.007825032230
         H           -2.531732240881    -0.462585703264     0.900342260862     1.007825032230

  Basis Set: AUG-CC-PVTZ
    Blend: AUG-CC-PVTZ
  Basis Set: (AUG-CC-PVTZ AUX)
    Blend: AUG-CC-PVTZ-JKFIT
	 Reference Energy          =    -247.0984494965953786 [Eh]
	 Singles Energy            =      -0.0000000000000000 [Eh]
	 Same-Spin Energy          =      -0.2466370699319998 [Eh]
	 Opposite-Spin Energy      =      -0.8107405449025277 [Eh]
	 Correlation Energy        =      -1.0573776148345275 [Eh]
	 Total Energy              =    -248.1558271114299146 [Eh]

	 ================> DF-SCS-MP2 Energies <==================
	-----------------------------------------------------------
	 SCS Same-Spin Scale       =       0.3333333333333333 [-]
	 SCS Opposite-Spin Scale   =       1.2000000000000000 [-]
	 SCS Same-Spin Energy      =      -0.0822123566439999 [Eh]
	 SCS Opposite-Spin Energy  =      -0.9728886538830331 [Eh]
	 SCS Correlation Energy    =      -1.0551010105270331 [Eh]
	 SCS Total Energy          =    -248.1535505071224179 [Eh]
	-----------------------------------------------------------

  Dipole Moment: [D]
     X:    -0.8109      Y:    -3.7128      Z:    -0.0655     Total:     3.8008

*** Psi4 exiting successfully. Buy a developer a beer!
