                               Psi4 1.3.2 release

  ==> Input File <==

--------------------------------------------------------------------------
#psi4
#
memory 32 gb

molecule  {
0 1
  C        1.8115140    -0.5649830    -0.0000040
  H        1.7159910    -1.6536130     0.0002720
  H        2.3774210    -0.2548590     0.8810970
  H        2.3770450    -0.2552970    -0.8815060
  C        0.4821720     0.1627700     0.0001260
  O        0.4193660     1.3939540    -0.0000280
  N       -0.6234180    -0.6408620    -0.0001190
  H       -0.4986210    -1.6430060     0.0003100
  C       -1.9687253    -0.1002777    -0.1999820
  H       -1.8734000     0.9850130    -0.0016940
  H       -2.5201200    -0.4159370    -0.8903930
  H       -2.5190110    -0.4131270     0.8921260
units angstrom
no_reorient  #important for SAPT in psi4, default
symmetry c1  #important for SAPT in psi4, default
}

set PROPERTIES_ORIGIN ["COM"]
properties('MP2/aug-cc-pvtz', properties = ['dipole'])
--------------------------------------------------------------------------

    Molecular point group: c1
  Charge       = 0
  Multiplicity = 1
  Basis Set: AUG-CC-PVTZ
    Blend: AUG-CC-PVTZ
  Basis Set: (AUG-CC-PVTZ AUX)
    Blend: AUG-CC-PVTZ-JKFIT

    Orbital Energies [Eh]
    ---------------------

    Doubly Occupied:

       1A    -20.512896     2A    -15.591834     3A    -11.351897
       4A    -11.264474     5A    -11.238643     6A     -1.369422
       7A     -1.227074     8A     -1.017523     9A     -0.937587
      10A     -0.788709    11A     -0.706336    12A     -0.656638
      13A     -0.627777    14A     -0.598919    15A     -0.573935
      16A     -0.553638    17A     -0.534231    18A     -0.486629
      19A     -0.421752    20A     -0.386773

  @DF-RHF Final Energy:  -247.05732101073849

   => Energetics <=

    Nuclear Repulsion Energy =            179.5477670807463539
    One-Electron Energy =                -691.5168045734410498
    Two-Electron Energy =                 264.9117164819562618
    Total Energy =                       -247.0573210107384625
  Basis Set: (AUG-CC-PVTZ AUX)
    Blend: AUG-CC-PVTZ-RI
    Molecular point group: c1

    Geometry (in Angstrom), charge = 0, multiplicity = 1:

       Center              X                  Y                   Z               Mass
    ------------   -----------------  -----------------  -----------------  -----------------
         C            1.798791313588    -0.614438417968     0.032851985702    12.000000000000
         H            1.703268313588    -1.703068417968     0.033127985702     1.007825032230
         H            2.364698313588    -0.304314417968     0.913952985702     1.007825032230
         H            2.364322313588    -0.304752417968    -0.848650014298     1.007825032230
         C            0.469449313588     0.113314582032     0.032981985702    12.000000000000
         O            0.406643313588     1.344498582032     0.032827985702    15.994914619570
         N           -0.636140686412    -0.690317417968     0.032736985702    14.003074004430
         H           -0.511343686412    -1.692461417968     0.033165985702     1.007825032230
         C           -1.981447986412    -0.149733117968    -0.167126014298    12.000000000000
         H           -1.886122686412     0.935557582032     0.031161985702     1.007825032230
         H           -2.532842686412    -0.465392417968    -0.857537014298     1.007825032230
         H           -2.531733686412    -0.462582417968     0.924981985702     1.007825032230

  Basis Set: AUG-CC-PVTZ
    Blend: AUG-CC-PVTZ
  Basis Set: (AUG-CC-PVTZ AUX)
    Blend: AUG-CC-PVTZ-JKFIT
	 Reference Energy          =    -247.0573210107384909 [Eh]
	 Singles Energy            =      -0.0000000000000000 [Eh]
	 Same-Spin Energy          =      -0.2471095709552396 [Eh]
	 Opposite-Spin Energy      =      -0.8124774974607962 [Eh]
	 Correlation Energy        =      -1.0595870684160358 [Eh]
	 Total Energy              =    -248.1169080791545127 [Eh]

	 ================> DF-SCS-MP2 Energies <==================
	-----------------------------------------------------------
	 SCS Same-Spin Scale       =       0.3333333333333333 [-]
	 SCS Opposite-Spin Scale   =       1.2000000000000000 [-]
	 SCS Same-Spin Energy      =      -0.0823698569850798 [Eh]
	 SCS Opposite-Spin Energy  =      -0.9749729969529555 [Eh]
	 SCS Correlation Energy    =      -1.0573428539380354 [Eh]
	 SCS Total Energy          =    -248.1146638646765155 [Eh]
	-----------------------------------------------------------

  Dipole Moment: [D]
     X:    -0.7183      Y:    -3.6902      Z:    -0.2500     Total:     3.7677

*** Psi4 exiting successfully. Buy a developer a beer!
