                               Psi4 1.3.2 release

  ==> Input File <==

--------------------------------------------------------------------------
#psi4
#
memory 32 gb

molecule  {
0 1
  C        1.8115140    -0.5649830    -0.0000040
  H        1.7159910    -1.6536130     0.0002720
  H        2.3774210    -0.2548590     0.8810970
  H        2.3770450    -0.2552970    -0.8815060
  C        0.4821720     0.1627700     0.0001260
  O        0.4193660     1.3939540    -0.0000280
  N       -0.6234180    -0.6408620    -0.0001190
  H       -0.4986210    -1.6430060     0.0003100
  C       -1.9687224    -0.1002844    -0.2499820
  H       -1.8734000     0.9850130    -0.0016940
  H       -2.5201200    -0.4159370    -0.8903930
  H       -2.5190110    -0.4131270     0.8921260
units angstrom
no_reorient  #important for SAPT in psi4, default
symmetry c1  #important for SAPT in psi4, default
}

set PROPERTIES_ORIGIN ["COM"]
properties('MP2/aug-cc-pvtz', properties = ['dipole'])
--------------------------------------------------------------------------

    Molecular point group: c1
  Charge       = 0
  Multiplicity = 1
  Basis Set: AUG-CC-PVTZ
    Blend: AUG-CC-PVTZ
  Basis Set: (AUG-CC-PVTZ AUX)
    Blend: AUG-CC-PVTZ-JKFIT

    Orbital Energies [Eh]
    ---------------------

    Doubly Occupied:

       1A    -20.513672     2A    -15.593313     3A    -11.352460
       4A    -11.267988     5A    -11.239042     6A     -1.369994
       7A     -1.226720     8A     -1.018182     9A     -0.941863
      10A     -0.788881    11A     -0.714829    12A     -0.658479
      13A     -0.626448    14A     -0.601283    15A     -0.573574
      16A     -0.553708    17A     -0.531996    18A     -0.479616
      19A     -0.422413    20A     -0.384088

  @DF-RHF Final Energy:  -247.03207504528896

   => Energetics <=

    Nuclear Repulsion Energy =            179.4592581037094590
    One-Electron Energy =                -691.2655695532457685
    Two-Electron Energy =                 264.7742364042474037
    Total Energy =                       -247.0320750452889342
  Basis Set: (AUG-CC-PVTZ AUX)
    Blend: AUG-CC-PVTZ-RI
    Molecular point group: c1

    Geometry (in Angstrom), charge = 0, multiplicity = 1:

       Center              X                  Y                   Z               Mass
    ------------   -----------------  -----------------  -----------------  -----------------
         C            1.798790837220    -0.614437317393     0.041065227315    12.000000000000
         H            1.703267837220    -1.703067317393     0.041341227315     1.007825032230
         H            2.364697837220    -0.304313317393     0.922166227315     1.007825032230
         H            2.364321837220    -0.304751317393    -0.840436772685     1.007825032230
         C            0.469448837220     0.113315682607     0.041195227315    12.000000000000
         O            0.406642837220     1.344499682607     0.041041227315    15.994914619570
         N           -0.636141162780    -0.690316317393     0.040950227315    14.003074004430
         H           -0.511344162780    -1.692460317393     0.041379227315     1.007825032230
         C           -1.981445562780    -0.149738717393    -0.208912772685    12.000000000000
         H           -1.886123162780     0.935558682607     0.039375227315     1.007825032230
         H           -2.532843162780    -0.465391317393    -0.849323772685     1.007825032230
         H           -2.531734162780    -0.462581317393     0.933195227315     1.007825032230

  Basis Set: AUG-CC-PVTZ
    Blend: AUG-CC-PVTZ
  Basis Set: (AUG-CC-PVTZ AUX)
    Blend: AUG-CC-PVTZ-JKFIT
	 Reference Energy          =    -247.0320750452889627 [Eh]
	 Singles Energy            =      -0.0000000000000000 [Eh]
	 Same-Spin Energy          =      -0.2473994829609239 [Eh]
	 Opposite-Spin Energy      =      -0.8135842714899972 [Eh]
	 Correlation Energy        =      -1.0609837544509211 [Eh]
	 Total Energy              =    -248.0930587997398789 [Eh]

	 ================> DF-SCS-MP2 Energies <==================
	-----------------------------------------------------------
	 SCS Same-Spin Scale       =       0.3333333333333333 [-]
	 SCS Opposite-Spin Scale   =       1.2000000000000000 [-]
	 SCS Same-Spin Energy      =      -0.0824664943203079 [Eh]
	 SCS Opposite-Spin Energy  =      -0.9763011257879967 [Eh]
	 SCS Correlation Energy    =      -1.0587676201083047 [Eh]
	 SCS Total Energy          =    -248.0908426653972754 [Eh]
	-----------------------------------------------------------

  Dipole Moment: [D]
     X:    -0.6670      Y:    -3.6790      Z:    -0.3018     Total:     3.7511

*** Psi4 exiting successfully. Buy a developer a beer!
