                               Psi4 1.3.2 release

  ==> Input File <==

--------------------------------------------------------------------------
#psi4
#
memory 32 gb

molecule  {
0 1
  C        1.8115140    -0.5649830    -0.0000040
  H        1.7159910    -1.6536130     0.0002720
  H        2.3774210    -0.2548590     0.8810970
  H        2.3770450    -0.2552970    -0.8815060
  C        0.4821720     0.1627700     0.0001260
  O        0.4193660     1.3939540    -0.0000280
  N       -0.6234180    -0.6408620    -0.0001190
  H       -0.4986210    -1.6430060     0.0003100
  C       -1.9687195    -0.1002911    -0.2999820
  H       -1.8734000     0.9850130    -0.0016940
  H       -2.5201200    -0.4159370    -0.8903930
  H       -2.5190110    -0.4131270     0.8921260
units angstrom
no_reorient  #important for SAPT in psi4, default
symmetry c1  #important for SAPT in psi4, default
}

set PROPERTIES_ORIGIN ["COM"]
properties('MP2/aug-cc-pvtz', properties = ['dipole'])
--------------------------------------------------------------------------

    Molecular point group: c1
  Charge       = 0
  Multiplicity = 1
  Basis Set: AUG-CC-PVTZ
    Blend: AUG-CC-PVTZ
  Basis Set: (AUG-CC-PVTZ AUX)
    Blend: AUG-CC-PVTZ-JKFIT

    Orbital Energies [Eh]
    ---------------------

    Doubly Occupied:

       1A    -20.514588     2A    -15.595044     3A    -11.353124
       4A    -11.272223     5A    -11.239511     6A     -1.370665
       7A     -1.226279     8A     -1.019059     9A     -0.947129
      10A     -0.789137    11A     -0.723504    12A     -0.660009
      13A     -0.625090    14A     -0.602981    15A     -0.573345
      16A     -0.553722    17A     -0.530108    18A     -0.472737
      19A     -0.423142    20A     -0.380685

  @DF-RHF Final Energy:  -247.00077441611688

   => Energetics <=

    Nuclear Repulsion Energy =            179.3524320487910302
    One-Electron Energy =                -690.9622470430299472
    Two-Electron Energy =                 264.6090405781220625
    Total Energy =                       -247.0007744161168830
  Basis Set: (AUG-CC-PVTZ AUX)
    Blend: AUG-CC-PVTZ-RI
    Molecular point group: c1

    Geometry (in Angstrom), charge = 0, multiplicity = 1:

       Center              X                  Y                   Z               Mass
    ------------   -----------------  -----------------  -----------------  -----------------
         C            1.798790360852    -0.614436216819     0.049278468928    12.000000000000
         H            1.703267360852    -1.703066216819     0.049554468928     1.007825032230
         H            2.364697360852    -0.304312216819     0.930379468928     1.007825032230
         H            2.364321360852    -0.304750216819    -0.832223531072     1.007825032230
         C            0.469448360852     0.113316783181     0.049408468928    12.000000000000
         O            0.406642360852     1.344500783181     0.049254468928    15.994914619570
         N           -0.636141639148    -0.690315216819     0.049163468928    14.003074004430
         H           -0.511344639148    -1.692459216819     0.049592468928     1.007825032230
         C           -1.981443139148    -0.149744316819    -0.250699531072    12.000000000000
         H           -1.886123639148     0.935559783181     0.047588468928     1.007825032230
         H           -2.532843639148    -0.465390216819    -0.841110531072     1.007825032230
         H           -2.531734639148    -0.462580216819     0.941408468928     1.007825032230

  Basis Set: AUG-CC-PVTZ
    Blend: AUG-CC-PVTZ
  Basis Set: (AUG-CC-PVTZ AUX)
    Blend: AUG-CC-PVTZ-JKFIT
	 Reference Energy          =    -247.0007744161168830 [Eh]
	 Singles Energy            =      -0.0000000000000000 [Eh]
	 Same-Spin Energy          =      -0.2477609901937524 [Eh]
	 Opposite-Spin Energy      =      -0.8149841365250756 [Eh]
	 Correlation Energy        =      -1.0627451267188279 [Eh]
	 Total Energy              =    -248.0635195428357065 [Eh]

	 ================> DF-SCS-MP2 Energies <==================
	-----------------------------------------------------------
	 SCS Same-Spin Scale       =       0.3333333333333333 [-]
	 SCS Opposite-Spin Scale   =       1.2000000000000000 [-]
	 SCS Same-Spin Energy      =      -0.0825869967312508 [Eh]
	 SCS Opposite-Spin Energy  =      -0.9779809638300907 [Eh]
	 SCS Correlation Energy    =      -1.0605679605613414 [Eh]
	 SCS Total Energy          =    -248.0613423766782262 [Eh]
	-----------------------------------------------------------

  Dipole Moment: [D]
     X:    -0.6087      Y:    -3.6677      Z:    -0.3456     Total:     3.7339

*** Psi4 exiting successfully. Buy a developer a beer!
