                               Psi4 1.3.2 release

  ==> Input File <==

--------------------------------------------------------------------------
#psi4
#
memory 32 gb

molecule  {
0 1
  C        1.8115140    -0.5649830    -0.0000040
  H        1.7159910    -1.6536130     0.0002720
  H        2.3774210    -0.2548590     0.8810970
  H        2.3770450    -0.2552970    -0.8815060
  C        0.4821720     0.1627700     0.0001260
  O        0.4193660     1.3939540    -0.0000280
  N       -0.6234203    -0.6408630     0.0498810
  H       -0.4986210    -1.6430060     0.0003100
  C       -1.9687370    -0.1002510     0.0000180
  H       -1.8734000     0.9850130    -0.0016940
  H       -2.5201200    -0.4159370    -0.8903930
  H       -2.5190110    -0.4131270     0.8921260
units angstrom
no_reorient  #important for SAPT in psi4, default
symmetry c1  #important for SAPT in psi4, default
}

set PROPERTIES_ORIGIN ["COM"]
properties('MP2/aug-cc-pvtz', properties = ['dipole'])
--------------------------------------------------------------------------

    Molecular point group: c1
  Charge       = 0
  Multiplicity = 1
  Basis Set: AUG-CC-PVTZ
    Blend: AUG-CC-PVTZ
  Basis Set: (AUG-CC-PVTZ AUX)
    Blend: AUG-CC-PVTZ-JKFIT

    Orbital Energies [Eh]
    ---------------------

    Doubly Occupied:

       1A    -20.511819     2A    -15.589146     3A    -11.350985
       4A    -11.258078     5A    -11.237965     6A     -1.368490
       7A     -1.227339     8A     -1.016414     9A     -0.930048
      10A     -0.787851    11A     -0.688750    12A     -0.650085
      13A     -0.630623    14A     -0.586175    15A     -0.578366
      16A     -0.553292    17A     -0.543265    18A     -0.502388
      19A     -0.420661    20A     -0.391522

  @DF-RHF Final Energy:  -247.10076003669212

   => Energetics <=

    Nuclear Repulsion Energy =            179.6771292852074566
    One-Electron Energy =                -691.9092599917371444
    Two-Electron Energy =                 265.1313706698375654
    Total Energy =                       -247.1007600366921224
  Basis Set: (AUG-CC-PVTZ AUX)
    Blend: AUG-CC-PVTZ-RI
    Molecular point group: c1

    Geometry (in Angstrom), charge = 0, multiplicity = 1:

       Center              X                  Y                   Z               Mass
    ------------   -----------------  -----------------  -----------------  -----------------
         C            1.798793676361    -0.614442612154    -0.009585199928    12.000000000000
         H            1.703270676361    -1.703072612154    -0.009309199928     1.007825032230
         H            2.364700676361    -0.304318612154     0.871515800072     1.007825032230
         H            2.364324676361    -0.304756612154    -0.891087199928     1.007825032230
         C            0.469451676361     0.113310387846    -0.009455199928    12.000000000000
         O            0.406645676361     1.344494387846    -0.009609199928    15.994914619570
         N           -0.636140623639    -0.690322612154     0.040299800072    14.003074004430
         H           -0.511341323639    -1.692465612154    -0.009271199928     1.007825032230
         C           -1.981457323639    -0.149710612154    -0.009563199928    12.000000000000
         H           -1.886120323639     0.935553387846    -0.011275199928     1.007825032230
         H           -2.532840323639    -0.465396612154    -0.899974199928     1.007825032230
         H           -2.531731323639    -0.462586612154     0.882544800072     1.007825032230

  Basis Set: AUG-CC-PVTZ
    Blend: AUG-CC-PVTZ
  Basis Set: (AUG-CC-PVTZ AUX)
    Blend: AUG-CC-PVTZ-JKFIT
	 Reference Energy          =    -247.1007600366921224 [Eh]
	 Singles Energy            =      -0.0000000000000000 [Eh]
	 Same-Spin Energy          =      -0.2466173930542858 [Eh]
	 Opposite-Spin Energy      =      -0.8107007281065374 [Eh]
	 Correlation Energy        =      -1.0573181211608231 [Eh]
	 Total Energy              =    -248.1580781578529411 [Eh]

	 ================> DF-SCS-MP2 Energies <==================
	-----------------------------------------------------------
	 SCS Same-Spin Scale       =       0.3333333333333333 [-]
	 SCS Opposite-Spin Scale   =       1.2000000000000000 [-]
	 SCS Same-Spin Energy      =      -0.0822057976847619 [Eh]
	 SCS Opposite-Spin Energy  =      -0.9728408737278448 [Eh]
	 SCS Correlation Energy    =      -1.0550466714126068 [Eh]
	 SCS Total Energy          =    -248.1558067081047341 [Eh]
	-----------------------------------------------------------

  Dipole Moment: [D]
     X:    -0.8100      Y:    -3.7056      Z:    -0.0990     Total:     3.7944

*** Psi4 exiting successfully. Buy a developer a beer!
