                               Psi4 1.3.2 release

  ==> Input File <==

--------------------------------------------------------------------------
#psi4
#
memory 32 gb

molecule  {
0 1
  C        1.8115140    -0.5649830    -0.0000040
  H        1.7159910    -1.6536130     0.0002720
  H        2.3774210    -0.2548590     0.8810970
  H        2.3770450    -0.2552970    -0.8815060
  C        0.4821720     0.1627700     0.0001260
  O        0.4193660     1.3939540    -0.0000280
  N       -0.6234273    -0.6408662     0.1998810
  H       -0.4986210    -1.6430060     0.0003100
  C       -1.9687370    -0.1002510     0.0000180
  H       -1.8734000     0.9850130    -0.0016940
  H       -2.5201200    -0.4159370    -0.8903930
  H       -2.5190110    -0.4131270     0.8921260
units angstrom
no_reorient  #important for SAPT in psi4, default
symmetry c1  #important for SAPT in psi4, default
}

set PROPERTIES_ORIGIN ["COM"]
properties('MP2/aug-cc-pvtz', properties = ['dipole'])
--------------------------------------------------------------------------

    Molecular point group: c1
  Charge       = 0
  Multiplicity = 1
  Basis Set: AUG-CC-PVTZ
    Blend: AUG-CC-PVTZ
  Basis Set: (AUG-CC-PVTZ AUX)
    Blend: AUG-CC-PVTZ-JKFIT

    Orbital Energies [Eh]
    ---------------------

    Doubly Occupied:

       1A    -20.516960     2A    -15.590660     3A    -11.352885
       4A    -11.257443     5A    -11.238870     6A     -1.370436
       7A     -1.222134     8A     -1.015838     9A     -0.927367
      10A     -0.778864    11A     -0.687564    12A     -0.651303
      13A     -0.626764    14A     -0.587818    15A     -0.577974
      16A     -0.548827    17A     -0.541676    18A     -0.502034
      19A     -0.424086    20A     -0.395423

  @DF-RHF Final Energy:  -247.09459156177954

   => Energetics <=

    Nuclear Repulsion Energy =            179.2198827908133296
    One-Electron Energy =                -690.9990991377686669
    Two-Electron Energy =                 264.6846247851757425
    Total Energy =                       -247.0945915617795663
  Basis Set: (AUG-CC-PVTZ AUX)
    Blend: AUG-CC-PVTZ-RI
    Molecular point group: c1

    Geometry (in Angstrom), charge = 0, multiplicity = 1:

       Center              X                  Y                   Z               Mass
    ------------   -----------------  -----------------  -----------------  -----------------
         C            1.798795018152    -0.614441998764    -0.038337857459    12.000000000000
         H            1.703272018152    -1.703071998764    -0.038061857459     1.007825032230
         H            2.364702018152    -0.304317998764     0.842763142541     1.007825032230
         H            2.364326018152    -0.304755998764    -0.919839857459     1.007825032230
         C            0.469453018152     0.113311001236    -0.038207857459    12.000000000000
         O            0.406647018152     1.344495001236    -0.038361857459    15.994914619570
         N           -0.636146281848    -0.690325198764     0.161547142541    14.003074004430
         H           -0.511339981848    -1.692464998764    -0.038023857459     1.007825032230
         C           -1.981455981848    -0.149709998764    -0.038315857459    12.000000000000
         H           -1.886118981848     0.935554001236    -0.040027857459     1.007825032230
         H           -2.532838981848    -0.465395998764    -0.928726857459     1.007825032230
         H           -2.531729981848    -0.462585998764     0.853792142541     1.007825032230

  Basis Set: AUG-CC-PVTZ
    Blend: AUG-CC-PVTZ
  Basis Set: (AUG-CC-PVTZ AUX)
    Blend: AUG-CC-PVTZ-JKFIT
	 Reference Energy          =    -247.0945915617795379 [Eh]
	 Singles Energy            =      -0.0000000000000000 [Eh]
	 Same-Spin Energy          =      -0.2467987619061132 [Eh]
	 Opposite-Spin Energy      =      -0.8117790725602654 [Eh]
	 Correlation Energy        =      -1.0585778344663785 [Eh]
	 Total Energy              =    -248.1531693962459144 [Eh]

	 ================> DF-SCS-MP2 Energies <==================
	-----------------------------------------------------------
	 SCS Same-Spin Scale       =       0.3333333333333333 [-]
	 SCS Opposite-Spin Scale   =       1.2000000000000000 [-]
	 SCS Same-Spin Energy      =      -0.0822662539687044 [Eh]
	 SCS Opposite-Spin Energy  =      -0.9741348870723184 [Eh]
	 SCS Correlation Energy    =      -1.0564011410410228 [Eh]
	 SCS Total Energy          =    -248.1509927028205595 [Eh]
	-----------------------------------------------------------

  Dipole Moment: [D]
     X:    -0.7034      Y:    -3.5783      Z:    -0.3976     Total:     3.6684

*** Psi4 exiting successfully. Buy a developer a beer!
