                               Psi4 1.3.2 release

  ==> Input File <==

--------------------------------------------------------------------------
#psi4
#
memory 32 gb

molecule  {
0 1
  C        1.8115140    -0.5649830    -0.0000040
  H        1.7159910    -1.6536130     0.0002720
  H        2.3774210    -0.2548590     0.8810970
  H        2.3770450    -0.2552970    -0.8815060
  C        0.4821720     0.1627700     0.0001260
  O        0.4193660     1.3939540    -0.0000280
  N       -0.6234180    -0.6408620    -0.0001190
  H       -0.4986210    -1.6430060     0.0003100
  C       -1.9687282    -0.1002710    -0.1499820
  H       -1.8734000     0.9850130    -0.0016940
  H       -2.5201200    -0.4159370    -0.8903930
  H       -2.5190110    -0.4131270     0.8921260
units angstrom
no_reorient  #important for SAPT in psi4, default
symmetry c1  #important for SAPT in psi4, default
}

set PROPERTIES_ORIGIN ["COM"]
properties('MP2/aug-cc-pvtz', properties = ['dipole'])
--------------------------------------------------------------------------

    Molecular point group: c1
  Charge       = 0
  Multiplicity = 1
  Basis Set: AUG-CC-PVTZ
    Blend: AUG-CC-PVTZ
  Basis Set: (AUG-CC-PVTZ AUX)
    Blend: AUG-CC-PVTZ-JKFIT

    Orbital Energies [Eh]
    ---------------------

    Doubly Occupied:

       1A    -20.512276     2A    -15.590644     3A    -11.351447
       4A    -11.261712     5A    -11.238324     6A     -1.368964
       7A     -1.227344     8A     -1.017042     9A     -0.934319
      10A     -0.788601    11A     -0.698922    12A     -0.654511
      13A     -0.628985    14A     -0.595807    15A     -0.574554
      16A     -0.553563    17A     -0.536922    18A     -0.493056
      19A     -0.421196    20A     -0.388781

  @DF-RHF Final Energy:  -247.07667681899431

   => Energetics <=

    Nuclear Repulsion Energy =            179.6173914734573316
    One-Electron Energy =                -691.7141946255973153
    Two-Electron Energy =                 265.0201263331456403
    Total Energy =                       -247.0766768189943150
  Basis Set: (AUG-CC-PVTZ AUX)
    Blend: AUG-CC-PVTZ-RI
    Molecular point group: c1

    Geometry (in Angstrom), charge = 0, multiplicity = 1:

       Center              X                  Y                   Z               Mass
    ------------   -----------------  -----------------  -----------------  -----------------
         C            1.798791789956    -0.614439518542     0.024638744089    12.000000000000
         H            1.703268789956    -1.703069518542     0.024914744089     1.007825032230
         H            2.364698789956    -0.304315518542     0.905739744089     1.007825032230
         H            2.364322789956    -0.304753518542    -0.856863255911     1.007825032230
         C            0.469449789956     0.113313481458     0.024768744089    12.000000000000
         O            0.406643789956     1.344497481458     0.024614744089    15.994914619570
         N           -0.636140210044    -0.690318518542     0.024523744089    14.003074004430
         H           -0.511343210044    -1.692462518542     0.024952744089     1.007825032230
         C           -1.981450410044    -0.149727518542    -0.125339255911    12.000000000000
         H           -1.886122210044     0.935556481458     0.022948744089     1.007825032230
         H           -2.532842210044    -0.465393518542    -0.865750255911     1.007825032230
         H           -2.531733210044    -0.462583518542     0.916768744089     1.007825032230

  Basis Set: AUG-CC-PVTZ
    Blend: AUG-CC-PVTZ
  Basis Set: (AUG-CC-PVTZ AUX)
    Blend: AUG-CC-PVTZ-JKFIT
	 Reference Energy          =    -247.0766768189943150 [Eh]
	 Singles Energy            =      -0.0000000000000000 [Eh]
	 Same-Spin Energy          =      -0.2468874937353901 [Eh]
	 Opposite-Spin Energy      =      -0.8116476591030213 [Eh]
	 Correlation Energy        =      -1.0585351528384115 [Eh]
	 Total Energy              =    -248.1352119718327174 [Eh]

	 ================> DF-SCS-MP2 Energies <==================
	-----------------------------------------------------------
	 SCS Same-Spin Scale       =       0.3333333333333333 [-]
	 SCS Opposite-Spin Scale   =       1.2000000000000000 [-]
	 SCS Same-Spin Energy      =      -0.0822958312451300 [Eh]
	 SCS Opposite-Spin Energy  =      -0.9739771909236254 [Eh]
	 SCS Correlation Energy    =      -1.0562730221687555 [Eh]
	 SCS Total Energy          =    -248.1329498411630823 [Eh]
	-----------------------------------------------------------

  Dipole Moment: [D]
     X:    -0.7605      Y:    -3.7001      Z:    -0.1923     Total:     3.7824

*** Psi4 exiting successfully. Buy a developer a beer!
