                               Psi4 1.3.2 release

  ==> Input File <==

--------------------------------------------------------------------------
#psi4
#
memory 32 gb

molecule  {
0 1
  C        1.8115140    -0.5649830    -0.0000040
  H        1.7159910    -1.6536130     0.0002720
  H        2.3774210    -0.2548590     0.8810970
  H        2.3770450    -0.2552970    -0.8815060
  C        0.4821720     0.1627700     0.0001260
  O        0.4193660     1.3939540    -0.0000280
  N       -0.6234227    -0.6408641     0.0998810
  H       -0.4986210    -1.6430060     0.0003100
  C       -1.9687370    -0.1002510     0.0000180
  H       -1.8734000     0.9850130    -0.0016940
  H       -2.5201200    -0.4159370    -0.8903930
  H       -2.5190110    -0.4131270     0.8921260
units angstrom
no_reorient  #important for SAPT in psi4, default
symmetry c1  #important for SAPT in psi4, default
}

set PROPERTIES_ORIGIN ["COM"]
properties('MP2/aug-cc-pvtz', properties = ['dipole'])
--------------------------------------------------------------------------

    Molecular point group: c1
  Charge       = 0
  Multiplicity = 1
  Basis Set: AUG-CC-PVTZ
    Blend: AUG-CC-PVTZ
  Basis Set: (AUG-CC-PVTZ AUX)
    Blend: AUG-CC-PVTZ-JKFIT

    Orbital Energies [Eh]
    ---------------------

    Doubly Occupied:

       1A    -20.512888     2A    -15.589414     3A    -11.351379
       4A    -11.257935     5A    -11.238152     6A     -1.368888
       7A     -1.226303     8A     -1.016287     9A     -0.929501
      10A     -0.785951    11A     -0.688533    12A     -0.650414
      13A     -0.629712    14A     -0.586519    15A     -0.578285
      16A     -0.552411    17A     -0.542973    18A     -0.502322
      19A     -0.421364    20A     -0.392330

  @DF-RHF Final Energy:  -247.09958577383321

   => Energetics <=

    Nuclear Repulsion Energy =            179.5847504813230842
    One-Electron Energy =                -691.7255503701226189
    Two-Electron Energy =                 265.0412141149662943
    Total Energy =                       -247.0995857738332120
  Basis Set: (AUG-CC-PVTZ AUX)
    Blend: AUG-CC-PVTZ-RI
    Molecular point group: c1

    Geometry (in Angstrom), charge = 0, multiplicity = 1:

       Center              X                  Y                   Z               Mass
    ------------   -----------------  -----------------  -----------------  -----------------
         C            1.798794136403    -0.614442401301    -0.019169419105    12.000000000000
         H            1.703271136403    -1.703072401301    -0.018893419105     1.007825032230
         H            2.364701136403    -0.304318401301     0.861931580895     1.007825032230
         H            2.364325136403    -0.304756401301    -0.900671419105     1.007825032230
         C            0.469452136403     0.113310598699    -0.019039419105    12.000000000000
         O            0.406646136403     1.344494598699    -0.019193419105    15.994914619570
         N           -0.636142563597    -0.690323501301     0.080715580895    14.003074004430
         H           -0.511340863597    -1.692465401301    -0.018855419105     1.007825032230
         C           -1.981456863597    -0.149710401301    -0.019147419105    12.000000000000
         H           -1.886119863597     0.935553598699    -0.020859419105     1.007825032230
         H           -2.532839863597    -0.465396401301    -0.909558419105     1.007825032230
         H           -2.531730863597    -0.462586401301     0.872960580895     1.007825032230

  Basis Set: AUG-CC-PVTZ
    Blend: AUG-CC-PVTZ
  Basis Set: (AUG-CC-PVTZ AUX)
    Blend: AUG-CC-PVTZ-JKFIT
	 Reference Energy          =    -247.0995857738332120 [Eh]
	 Singles Energy            =      -0.0000000000000000 [Eh]
	 Same-Spin Energy          =      -0.2466520685832733 [Eh]
	 Opposite-Spin Energy      =      -0.8109127316769456 [Eh]
	 Correlation Energy        =      -1.0575648002602187 [Eh]
	 Total Energy              =    -248.1571505740934356 [Eh]

	 ================> DF-SCS-MP2 Energies <==================
	-----------------------------------------------------------
	 SCS Same-Spin Scale       =       0.3333333333333333 [-]
	 SCS Opposite-Spin Scale   =       1.2000000000000000 [-]
	 SCS Same-Spin Energy      =      -0.0822173561944244 [Eh]
	 SCS Opposite-Spin Energy  =      -0.9730952780123346 [Eh]
	 SCS Correlation Energy    =      -1.0553126342067591 [Eh]
	 SCS Total Energy          =    -248.1548984080399691 [Eh]
	-----------------------------------------------------------

  Dipole Moment: [D]
     X:    -0.7881      Y:    -3.6793      Z:    -0.1987     Total:     3.7680

*** Psi4 exiting successfully. Buy a developer a beer!
