                               Psi4 1.3.2 release

  ==> Input File <==

--------------------------------------------------------------------------
#psi4
#
memory 32 gb

molecule  {
0 1
  C        1.8115140    -0.5649830    -0.0000040
  H        1.7159910    -1.6536130     0.0002720
  H        2.3774210    -0.2548590     0.8810970
  H        2.3770450    -0.2552970    -0.8815060
  C        0.4821720     0.1627700     0.0001260
  O        0.4193660     1.3939540    -0.0000280
  N       -0.6234250    -0.6408651     0.1498810
  H       -0.4986210    -1.6430060     0.0003100
  C       -1.9687370    -0.1002510     0.0000180
  H       -1.8734000     0.9850130    -0.0016940
  H       -2.5201200    -0.4159370    -0.8903930
  H       -2.5190110    -0.4131270     0.8921260
units angstrom
no_reorient  #important for SAPT in psi4, default
symmetry c1  #important for SAPT in psi4, default
}

set PROPERTIES_ORIGIN ["COM"]
properties('MP2/aug-cc-pvtz', properties = ['dipole'])
--------------------------------------------------------------------------

    Molecular point group: c1
  Charge       = 0
  Multiplicity = 1
  Basis Set: AUG-CC-PVTZ
    Blend: AUG-CC-PVTZ
  Basis Set: (AUG-CC-PVTZ AUX)
    Blend: AUG-CC-PVTZ-JKFIT

    Orbital Energies [Eh]
    ---------------------

    Doubly Occupied:

       1A    -20.514625     2A    -15.589901     3A    -11.352020
       4A    -11.257716     5A    -11.238457     6A     -1.369543
       7A     -1.224569     8A     -1.016089     9A     -0.928600
      10A     -0.782897    11A     -0.688149    12A     -0.650855
      13A     -0.628364    14A     -0.587076    15A     -0.578153
      16A     -0.550919    17A     -0.542463    18A     -0.502207
      19A     -0.422516    20A     -0.393648

  @DF-RHF Final Energy:  -247.09756082837237

   => Energetics <=

    Nuclear Repulsion Energy =            179.4317785591054815
    One-Electron Energy =                -691.4211458662784935
    Two-Electron Energy =                 264.8918064788006177
    Total Energy =                       -247.0975608283723659
  Basis Set: (AUG-CC-PVTZ AUX)
    Blend: AUG-CC-PVTZ-RI
    Molecular point group: c1

    Geometry (in Angstrom), charge = 0, multiplicity = 1:

       Center              X                  Y                   Z               Mass
    ------------   -----------------  -----------------  -----------------  -----------------
         C            1.798794577278    -0.614442209617    -0.028753638282    12.000000000000
         H            1.703271577278    -1.703072209617    -0.028477638282     1.007825032230
         H            2.364701577278    -0.304318209617     0.852347361718     1.007825032230
         H            2.364325577278    -0.304756209617    -0.910255638282     1.007825032230
         C            0.469452577278     0.113310790383    -0.028623638282    12.000000000000
         O            0.406646577278     1.344494790383    -0.028777638282    15.994914619570
         N           -0.636144422722    -0.690324309617     0.121131361718    14.003074004430
         H           -0.511340422722    -1.692465209617    -0.028439638282     1.007825032230
         C           -1.981456422722    -0.149710209617    -0.028731638282    12.000000000000
         H           -1.886119422722     0.935553790383    -0.030443638282     1.007825032230
         H           -2.532839422722    -0.465396209617    -0.919142638282     1.007825032230
         H           -2.531730422722    -0.462586209617     0.863376361718     1.007825032230

  Basis Set: AUG-CC-PVTZ
    Blend: AUG-CC-PVTZ
  Basis Set: (AUG-CC-PVTZ AUX)
    Blend: AUG-CC-PVTZ-JKFIT
	 Reference Energy          =    -247.0975608283723659 [Eh]
	 Singles Energy            =      -0.0000000000000000 [Eh]
	 Same-Spin Energy          =      -0.2467115994307287 [Eh]
	 Opposite-Spin Energy      =      -0.8112702648515726 [Eh]
	 Correlation Energy        =      -1.0579818642823013 [Eh]
	 Total Energy              =    -248.1555426926546772 [Eh]

	 ================> DF-SCS-MP2 Energies <==================
	-----------------------------------------------------------
	 SCS Same-Spin Scale       =       0.3333333333333333 [-]
	 SCS Opposite-Spin Scale   =       1.2000000000000000 [-]
	 SCS Same-Spin Energy      =      -0.0822371998102429 [Eh]
	 SCS Opposite-Spin Energy  =      -0.9735243178218871 [Eh]
	 SCS Correlation Energy    =      -1.0557615176321300 [Eh]
	 SCS Total Energy          =    -248.1533223460045008 [Eh]
	-----------------------------------------------------------

  Dipole Moment: [D]
     X:    -0.7522      Y:    -3.6364      Z:    -0.2983     Total:     3.7254

*** Psi4 exiting successfully. Buy a developer a beer!
