                               Psi4 1.3.2 release

  ==> Input File <==

--------------------------------------------------------------------------
#psi4
#
memory 32 gb

molecule  {
0 1
  C        1.8115140    -0.5649830    -0.0000040
  H        1.7159910    -1.6536130     0.0002720
  H        2.3774210    -0.2548590     0.8810970
  H        2.3770450    -0.2552970    -0.8815060
  C        0.4821720     0.1627700     0.0001260
  O        0.4193660     1.3939540    -0.0000280
  N       -0.6234320    -0.6408683     0.2998810
  H       -0.4986210    -1.6430060     0.0003100
  C       -1.9687370    -0.1002510     0.0000180
  H       -1.8734000     0.9850130    -0.0016940
  H       -2.5201200    -0.4159370    -0.8903930
  H       -2.5190110    -0.4131270     0.8921260
units angstrom
no_reorient  #important for SAPT in psi4, default
symmetry c1  #important for SAPT in psi4, default
}

set PROPERTIES_ORIGIN ["COM"]
properties('MP2/aug-cc-pvtz', properties = ['dipole'])
--------------------------------------------------------------------------

    Molecular point group: c1
  Charge       = 0
  Multiplicity = 1
  Basis Set: AUG-CC-PVTZ
    Blend: AUG-CC-PVTZ
  Basis Set: (AUG-CC-PVTZ AUX)
    Blend: AUG-CC-PVTZ-JKFIT

    Orbital Energies [Eh]
    ---------------------

    Doubly Occupied:

       1A    -20.523049     2A    -15.593248     3A    -11.355170
       4A    -11.256877     5A    -11.239962     6A     -1.372827
       7A     -1.215156     8A     -1.015258     9A     -0.924032
      10A     -0.768853    11A     -0.685553    12A     -0.651901
      13A     -0.623471    14A     -0.589660    15A     -0.577526
      16A     -0.543861    17A     -0.538140    18A     -0.501446
      19A     -0.428340    20A     -0.400012

  @DF-RHF Final Energy:  -247.08532520384037

   => Energetics <=

    Nuclear Repulsion Energy =            178.6288542818018072
    One-Electron Energy =                -689.8196758304073910
    Two-Electron Energy =                 264.1054963447651858
    Total Energy =                       -247.0853252038403980
  Basis Set: (AUG-CC-PVTZ AUX)
    Blend: AUG-CC-PVTZ-RI
    Molecular point group: c1

    Geometry (in Angstrom), charge = 0, multiplicity = 1:

       Center              X                  Y                   Z               Mass
    ------------   -----------------  -----------------  -----------------  -----------------
         C            1.798795919068    -0.614441596227    -0.057506295813    12.000000000000
         H            1.703272919068    -1.703071596227    -0.057230295813     1.007825032230
         H            2.364702919068    -0.304317596227     0.823594704187     1.007825032230
         H            2.364326919068    -0.304755596227    -0.939008295813     1.007825032230
         C            0.469453919068     0.113311403773    -0.057376295813    12.000000000000
         O            0.406647919068     1.344495403773    -0.057530295813    15.994914619570
         N           -0.636150080932    -0.690326896227     0.242378704187    14.003074004430
         H           -0.511339080932    -1.692464596227    -0.057192295813     1.007825032230
         C           -1.981455080932    -0.149709596227    -0.057484295813    12.000000000000
         H           -1.886118080932     0.935554403773    -0.059196295813     1.007825032230
         H           -2.532838080932    -0.465395596227    -0.947895295813     1.007825032230
         H           -2.531729080932    -0.462585596227     0.834623704187     1.007825032230

  Basis Set: AUG-CC-PVTZ
    Blend: AUG-CC-PVTZ
  Basis Set: (AUG-CC-PVTZ AUX)
    Blend: AUG-CC-PVTZ-JKFIT
	 Reference Energy          =    -247.0853252038403696 [Eh]
	 Singles Energy            =      -0.0000000000000000 [Eh]
	 Same-Spin Energy          =      -0.2470768435197847 [Eh]
	 Opposite-Spin Energy      =      -0.8132924843328591 [Eh]
	 Correlation Energy        =      -1.0603693278526438 [Eh]
	 Total Energy              =    -248.1456945316930103 [Eh]

	 ================> DF-SCS-MP2 Energies <==================
	-----------------------------------------------------------
	 SCS Same-Spin Scale       =       0.3333333333333333 [-]
	 SCS Opposite-Spin Scale   =       1.2000000000000000 [-]
	 SCS Same-Spin Energy      =      -0.0823589478399282 [Eh]
	 SCS Opposite-Spin Energy  =      -0.9759509811994308 [Eh]
	 SCS Correlation Energy    =      -1.0583099290393589 [Eh]
	 SCS Total Energy          =    -248.1436351328797230 [Eh]
	-----------------------------------------------------------

  Dipole Moment: [D]
     X:    -0.5732      Y:    -3.4243      Z:    -0.5937     Total:     3.5223

*** Psi4 exiting successfully. Buy a developer a beer!
