                               Psi4 1.3.2 release

  ==> Input File <==

--------------------------------------------------------------------------
#psi4
#
memory 32 gb

molecule  {
0 1
  C        1.8115140    -0.5649830    -0.0000040
  H        1.7159910    -1.6536130     0.0002720
  H        2.3774210    -0.2548590     0.8810970
  H        2.3770450    -0.2552970    -0.8815060
  C        0.4821720     0.1627700     0.0001260
  O        0.4193660     1.3939540    -0.0000280
  N       -0.6234180    -0.6408620    -0.0001190
  H       -0.4986210    -1.6430060     0.0003100
  C       -1.9687312    -0.1002644    -0.0999820
  H       -1.8734000     0.9850130    -0.0016940
  H       -2.5201200    -0.4159370    -0.8903930
  H       -2.5190110    -0.4131270     0.8921260
units angstrom
no_reorient  #important for SAPT in psi4, default
symmetry c1  #important for SAPT in psi4, default
}

set PROPERTIES_ORIGIN ["COM"]
properties('MP2/aug-cc-pvtz', properties = ['dipole'])
--------------------------------------------------------------------------

    Molecular point group: c1
  Charge       = 0
  Multiplicity = 1
  Basis Set: AUG-CC-PVTZ
    Blend: AUG-CC-PVTZ
  Basis Set: (AUG-CC-PVTZ AUX)
    Blend: AUG-CC-PVTZ-JKFIT

    Orbital Energies [Eh]
    ---------------------

    Doubly Occupied:

       1A    -20.511826     2A    -15.589773     3A    -11.351119
       4A    -11.259726     5A    -11.238091     6A     -1.368630
       7A     -1.227534     8A     -1.016714     9A     -0.932030
      10A     -0.788538    11A     -0.693330    12A     -0.652334
      13A     -0.629987    14A     -0.592021    15A     -0.575621
      16A     -0.553530    17A     -0.539887    18A     -0.498136
      19A     -0.420776    20A     -0.390165

  @DF-RHF Final Energy:  -247.09033101396705

   => Energetics <=

    Nuclear Repulsion Energy =            179.6675674702740650
    One-Electron Energy =                -691.8562597441168691
    Two-Electron Energy =                 265.0983612598757304
    Total Energy =                       -247.0903310139670452
  Basis Set: (AUG-CC-PVTZ AUX)
    Blend: AUG-CC-PVTZ-RI
    Molecular point group: c1

    Geometry (in Angstrom), charge = 0, multiplicity = 1:

       Center              X                  Y                   Z               Mass
    ------------   -----------------  -----------------  -----------------  -----------------
         C            1.798792282751    -0.614440602690     0.016425502475    12.000000000000
         H            1.703269282751    -1.703070602690     0.016701502475     1.007825032230
         H            2.364699282751    -0.304316602690     0.897526502475     1.007825032230
         H            2.364323282751    -0.304754602690    -0.865076497525     1.007825032230
         C            0.469450282751     0.113312397310     0.016555502475    12.000000000000
         O            0.406644282751     1.344496397310     0.016401502475    15.994914619570
         N           -0.636139717249    -0.690319602690     0.016310502475    14.003074004430
         H           -0.511342717249    -1.692463602690     0.016739502475     1.007825032230
         C           -1.981452917249    -0.149722002690    -0.083552497525    12.000000000000
         H           -1.886121717249     0.935555397310     0.014735502475     1.007825032230
         H           -2.532841717249    -0.465394602690    -0.873963497525     1.007825032230
         H           -2.531732717249    -0.462584602690     0.908555502475     1.007825032230

  Basis Set: AUG-CC-PVTZ
    Blend: AUG-CC-PVTZ
  Basis Set: (AUG-CC-PVTZ AUX)
    Blend: AUG-CC-PVTZ-JKFIT
	 Reference Energy          =    -247.0903310139670452 [Eh]
	 Singles Energy            =      -0.0000000000000000 [Eh]
	 Same-Spin Energy          =      -0.2467305628268335 [Eh]
	 Opposite-Spin Energy      =      -0.8110749261455449 [Eh]
	 Correlation Energy        =      -1.0578054889723782 [Eh]
	 Total Energy              =    -248.1481365029394226 [Eh]

	 ================> DF-SCS-MP2 Energies <==================
	-----------------------------------------------------------
	 SCS Same-Spin Scale       =       0.3333333333333333 [-]
	 SCS Opposite-Spin Scale   =       1.2000000000000000 [-]
	 SCS Same-Spin Energy      =      -0.0822435209422778 [Eh]
	 SCS Opposite-Spin Energy  =      -0.9732899113746538 [Eh]
	 SCS Correlation Energy    =      -1.0555334323169316 [Eh]
	 SCS Total Energy          =    -248.1458644462839800 [Eh]
	-----------------------------------------------------------

  Dipole Moment: [D]
     X:    -0.7917      Y:    -3.7079      Z:    -0.1303     Total:     3.7937

*** Psi4 exiting successfully. Buy a developer a beer!
