                               Psi4 1.3.2 release

  ==> Input File <==

--------------------------------------------------------------------------
#psi4
#
memory 32 gb

molecule  {
0 1
  C        0.0901110     0.1256610    -0.0006000
  O        0.6574530     1.2034920     0.0001100
  O        0.7645440    -1.0585160    -0.0000760
  H        1.7137310    -0.8171840     0.0013030
  C       -1.3945132    -0.1003026    -0.1000980
  H       -1.9040560     0.8615770    -0.0148950
  H       -1.6785790    -0.6920150    -0.8731890
  H       -1.6806310    -0.6642840     0.8906910
units angstrom
no_reorient  #important for SAPT in psi4, default
symmetry c1  #important for SAPT in psi4, default
}

set PROPERTIES_ORIGIN ["COM"]
properties('MP2/aug-cc-pvtz', properties = ['dipole'])
--------------------------------------------------------------------------

    Molecular point group: c1
  Charge       = 0
  Multiplicity = 1
  Basis Set: AUG-CC-PVTZ
    Blend: AUG-CC-PVTZ
  Basis Set: (AUG-CC-PVTZ AUX)
    Blend: AUG-CC-PVTZ-JKFIT

    Orbital Energies [Eh]
    ---------------------

    Doubly Occupied:

       1A    -20.617557     2A    -20.554571     3A    -11.395390
       4A    -11.251044     5A     -1.461504     6A     -1.358776
       7A     -1.029975     8A     -0.821322     9A     -0.707357
      10A     -0.684785    11A     -0.649567    12A     -0.595685
      13A     -0.576744    14A     -0.545917    15A     -0.484022
      16A     -0.457141

  @DF-RHF Final Energy:  -227.89283732498578

   => Energetics <=

    Nuclear Repulsion Energy =            120.5457978910318246
    One-Electron Energy =                -550.4945556519726324
    Two-Electron Energy =                 202.0559204359550165
    Total Energy =                       -227.8928373249857771
  Basis Set: (AUG-CC-PVTZ AUX)
    Blend: AUG-CC-PVTZ-RI
    Molecular point group: c1

    Geometry (in Angstrom), charge = 0, multiplicity = 1:

       Center              X                  Y                   Z               Mass
    ------------   -----------------  -----------------  -----------------  -----------------
         C            0.031555221135     0.103985169357     0.019457796141    12.000000000000
         O            0.598897221135     1.181816169357     0.020167796141    15.994914619570
         O            0.705988221135    -1.080191830643     0.019981796141    15.994914619570
         H            1.655175221135    -0.838859830643     0.021360796141     1.007825032230
         C           -1.453068978865    -0.121978430643    -0.080040203859    12.000000000000
         H           -1.962611778865     0.839901169357     0.005162796141     1.007825032230
         H           -1.737134778865    -0.713690830643    -0.853131203859     1.007825032230
         H           -1.739186778865    -0.685959830643     0.910748796141     1.007825032230

  Basis Set: AUG-CC-PVTZ
    Blend: AUG-CC-PVTZ
  Basis Set: (AUG-CC-PVTZ AUX)
    Blend: AUG-CC-PVTZ-JKFIT
	 Reference Energy          =    -227.8928373249857771 [Eh]
	 Singles Energy            =      -0.0000000000000000 [Eh]
	 Same-Spin Energy          =      -0.2154412988569266 [Eh]
	 Opposite-Spin Energy      =      -0.6708924580621449 [Eh]
	 Correlation Energy        =      -0.8863337569190715 [Eh]
	 Total Energy              =    -228.7791710819048490 [Eh]

	 ================> DF-SCS-MP2 Energies <==================
	-----------------------------------------------------------
	 SCS Same-Spin Scale       =       0.3333333333333333 [-]
	 SCS Opposite-Spin Scale   =       1.2000000000000000 [-]
	 SCS Same-Spin Energy      =      -0.0718137662856422 [Eh]
	 SCS Opposite-Spin Energy  =      -0.8050709496745739 [Eh]
	 SCS Correlation Energy    =      -0.8768847159602161 [Eh]
	 SCS Total Energy          =    -228.7697220409459931 [Eh]
	-----------------------------------------------------------

  Dipole Moment: [D]
     X:    -0.7976      Y:    -1.4630      Z:    -0.0246     Total:     1.6665

*** Psi4 exiting successfully. Buy a developer a beer!
