                               Psi4 1.3.2 release

  ==> Input File <==

--------------------------------------------------------------------------
#psi4
#
memory 32 gb

molecule  {
0 1
  C        0.0901110     0.1256610    -0.0006000
  O        0.6574530     1.2034920     0.0001100
  O        0.7645440    -1.0585160    -0.0000760
  H        1.7137310    -0.8171840     0.0013030
  C       -1.3945180    -0.1003110    -0.0000980
  H       -1.9040560     0.8615770    -0.0148950
  H       -1.6785790    -0.6920150    -0.8731890
  H       -1.6806310    -0.6642840     0.8906910
units angstrom
no_reorient  #important for SAPT in psi4, default
symmetry c1  #important for SAPT in psi4, default
}

set PROPERTIES_ORIGIN ["COM"]
properties('MP2/aug-cc-pvtz', properties = ['dipole'])
--------------------------------------------------------------------------

    Molecular point group: c1
  Charge       = 0
  Multiplicity = 1
  Basis Set: AUG-CC-PVTZ
    Blend: AUG-CC-PVTZ
  Basis Set: (AUG-CC-PVTZ AUX)
    Blend: AUG-CC-PVTZ-JKFIT

    Orbital Energies [Eh]
    ---------------------

    Doubly Occupied:

       1A    -20.617488     2A    -20.554330     3A    -11.394536
       4A    -11.249559     5A     -1.461390     6A     -1.358586
       7A     -1.029609     8A     -0.820388     9A     -0.706698
      10A     -0.679710    11A     -0.650008    12A     -0.585688
      13A     -0.574631    14A     -0.562953    15A     -0.484184
      16A     -0.457723

  @DF-RHF Final Energy:  -227.90304881901645

   => Energetics <=

    Nuclear Repulsion Energy =            120.5822425060806182
    One-Electron Energy =                -550.5956173722485119
    Two-Electron Energy =                 202.1103260471514602
    Total Energy =                       -227.9030488190164476
  Basis Set: (AUG-CC-PVTZ AUX)
    Blend: AUG-CC-PVTZ-RI
    Molecular point group: c1

    Geometry (in Angstrom), charge = 0, multiplicity = 1:

       Center              X                  Y                   Z               Mass
    ------------   -----------------  -----------------  -----------------  -----------------
         C            0.031556180797     0.103986848766    -0.000535163216    12.000000000000
         O            0.598898180797     1.181817848766     0.000174836784    15.994914619570
         O            0.705989180797    -1.080190151234    -0.000011163216    15.994914619570
         H            1.655176180797    -0.838858151234     0.001367836784     1.007825032230
         C           -1.453072819203    -0.121985151234    -0.000033163216    12.000000000000
         H           -1.962610819203     0.839902848766    -0.014830163216     1.007825032230
         H           -1.737133819203    -0.713689151234    -0.873124163216     1.007825032230
         H           -1.739185819203    -0.685958151234     0.890755836784     1.007825032230

  Basis Set: AUG-CC-PVTZ
    Blend: AUG-CC-PVTZ
  Basis Set: (AUG-CC-PVTZ AUX)
    Blend: AUG-CC-PVTZ-JKFIT
	 Reference Energy          =    -227.9030488190164476 [Eh]
	 Singles Energy            =      -0.0000000000000000 [Eh]
	 Same-Spin Energy          =      -0.2153158085794566 [Eh]
	 Opposite-Spin Energy      =      -0.6704542069643848 [Eh]
	 Correlation Energy        =      -0.8857700155438415 [Eh]
	 Total Energy              =    -228.7888188345602885 [Eh]

	 ================> DF-SCS-MP2 Energies <==================
	-----------------------------------------------------------
	 SCS Same-Spin Scale       =       0.3333333333333333 [-]
	 SCS Opposite-Spin Scale   =       1.2000000000000000 [-]
	 SCS Same-Spin Energy      =      -0.0717719361931522 [Eh]
	 SCS Opposite-Spin Energy  =      -0.8045450483572618 [Eh]
	 SCS Correlation Energy    =      -0.8763169845504140 [Eh]
	 SCS Total Energy          =    -228.7793658035668614 [Eh]
	-----------------------------------------------------------

  Dipole Moment: [D]
     X:    -0.8041      Y:    -1.4703      Z:     0.0030     Total:     1.6758

*** Psi4 exiting successfully. Buy a developer a beer!
