                               Psi4 1.3.2 release

  ==> Input File <==

--------------------------------------------------------------------------
#psi4
#
memory 32 gb

molecule  {
0 1
  C        0.0901110     0.1256610    -0.0006000
  O        0.6574530     1.2034920     0.0001100
  O        0.7645440    -1.0585160    -0.0000760
  H        1.7137310    -0.8171840     0.0013030
  C       -1.3945037    -0.1002857    -0.3000980
  H       -1.9040560     0.8615770    -0.0148950
  H       -1.6785790    -0.6920150    -0.8731890
  H       -1.6806310    -0.6642840     0.8906910
units angstrom
no_reorient  #important for SAPT in psi4, default
symmetry c1  #important for SAPT in psi4, default
}

set PROPERTIES_ORIGIN ["COM"]
properties('MP2/aug-cc-pvtz', properties = ['dipole'])
--------------------------------------------------------------------------

    Molecular point group: c1
  Charge       = 0
  Multiplicity = 1
  Basis Set: AUG-CC-PVTZ
    Blend: AUG-CC-PVTZ
  Basis Set: (AUG-CC-PVTZ AUX)
    Blend: AUG-CC-PVTZ-JKFIT

    Orbital Energies [Eh]
    ---------------------

    Doubly Occupied:

       1A    -20.618174     2A    -20.556693     3A    -11.401925
       4A    -11.262505     5A     -1.462469     6A     -1.360356
       7A     -1.033678     8A     -0.830151     9A     -0.722003
      10A     -0.702844    11A     -0.647660    12A     -0.615719
      13A     -0.568567    14A     -0.506070    15A     -0.480774
      16A     -0.450017

  @DF-RHF Final Energy:  -227.80936171047043

   => Energetics <=

    Nuclear Repulsion Energy =            120.2591407712090330
    One-Electron Energy =                -549.6977949826537042
    Two-Electron Energy =                 201.6292925009742305
    Total Energy =                       -227.8093617104704265
  Basis Set: (AUG-CC-PVTZ AUX)
    Blend: AUG-CC-PVTZ-RI
    Molecular point group: c1

    Geometry (in Angstrom), charge = 0, multiplicity = 1:

       Center              X                  Y                   Z               Mass
    ------------   -----------------  -----------------  -----------------  -----------------
         C            0.031553321804     0.103981790547     0.059443714855    12.000000000000
         O            0.598895321804     1.181812790547     0.060153714855    15.994914619570
         O            0.705986321804    -1.080195209453     0.059967714855    15.994914619570
         H            1.655173321804    -0.838863209453     0.061346714855     1.007825032230
         C           -1.453061378196    -0.121964909453    -0.240054285145    12.000000000000
         H           -1.962613678196     0.839897790547     0.045148714855     1.007825032230
         H           -1.737136678196    -0.713694209453    -0.813145285145     1.007825032230
         H           -1.739188678196    -0.685963209453     0.950734714855     1.007825032230

  Basis Set: AUG-CC-PVTZ
    Blend: AUG-CC-PVTZ
  Basis Set: (AUG-CC-PVTZ AUX)
    Blend: AUG-CC-PVTZ-JKFIT
	 Reference Energy          =    -227.8093617104704265 [Eh]
	 Singles Energy            =      -0.0000000000000000 [Eh]
	 Same-Spin Energy          =      -0.2164714345042983 [Eh]
	 Opposite-Spin Energy      =      -0.6746208490555949 [Eh]
	 Correlation Energy        =      -0.8910922835598933 [Eh]
	 Total Energy              =    -228.7004539940303118 [Eh]

	 ================> DF-SCS-MP2 Energies <==================
	-----------------------------------------------------------
	 SCS Same-Spin Scale       =       0.3333333333333333 [-]
	 SCS Opposite-Spin Scale   =       1.2000000000000000 [-]
	 SCS Same-Spin Energy      =      -0.0721571448347661 [Eh]
	 SCS Opposite-Spin Energy  =      -0.8095450188667139 [Eh]
	 SCS Correlation Energy    =      -0.8817021637014800 [Eh]
	 SCS Total Energy          =    -228.6910638741719026 [Eh]
	-----------------------------------------------------------

  Dipole Moment: [D]
     X:    -0.7380      Y:    -1.4139      Z:    -0.0605     Total:     1.5961

*** Psi4 exiting successfully. Buy a developer a beer!
