                               Psi4 1.3.2 release

  ==> Input File <==

--------------------------------------------------------------------------
#psi4
#
memory 32 gb

molecule  {
0 1
  C        0.0901110     0.1256610    -0.0006000
  O        0.6574530     1.2034920     0.0001100
  O        0.7645440    -1.0585160    -0.0000760
  H        1.7137310    -0.8171840     0.0013030
  C       -1.3945108    -0.1002983    -0.1500980
  H       -1.9040560     0.8615770    -0.0148950
  H       -1.6785790    -0.6920150    -0.8731890
  H       -1.6806310    -0.6642840     0.8906910
units angstrom
no_reorient  #important for SAPT in psi4, default
symmetry c1  #important for SAPT in psi4, default
}

set PROPERTIES_ORIGIN ["COM"]
properties('MP2/aug-cc-pvtz', properties = ['dipole'])
--------------------------------------------------------------------------

    Molecular point group: c1
  Charge       = 0
  Multiplicity = 1
  Basis Set: AUG-CC-PVTZ
    Blend: AUG-CC-PVTZ
  Basis Set: (AUG-CC-PVTZ AUX)
    Blend: AUG-CC-PVTZ-JKFIT

    Orbital Energies [Eh]
    ---------------------

    Doubly Occupied:

       1A    -20.617651     2A    -20.554905     3A    -11.396446
       4A    -11.252857     5A     -1.461657     6A     -1.359029
       7A     -1.030457     8A     -0.822552     9A     -0.708446
      10A     -0.690292    11A     -0.649255    12A     -0.602357
      13A     -0.575693    14A     -0.534411    15A     -0.483793
      16A     -0.456331

  @DF-RHF Final Energy:  -227.87999461966183

   => Energetics <=

    Nuclear Repulsion Energy =            120.5005447055738159
    One-Electron Energy =                -550.3688126801047247
    Two-Electron Energy =                 201.9882733548690794
    Total Energy =                       -227.8799946196618293
  Basis Set: (AUG-CC-PVTZ AUX)
    Blend: AUG-CC-PVTZ-RI
    Molecular point group: c1

    Geometry (in Angstrom), charge = 0, multiplicity = 1:

       Center              X                  Y                   Z               Mass
    ------------   -----------------  -----------------  -----------------  -----------------
         C            0.031554741304     0.103984309660     0.029454275820    12.000000000000
         O            0.598896741304     1.181815309660     0.030164275820    15.994914619570
         O            0.705987741304    -1.080192690340     0.029978275820    15.994914619570
         H            1.655174741304    -0.838860690340     0.031357275820     1.007825032230
         C           -1.453067058696    -0.121974990340    -0.120043724180    12.000000000000
         H           -1.962612258696     0.839900309660     0.015159275820     1.007825032230
         H           -1.737135258696    -0.713691690340    -0.843134724180     1.007825032230
         H           -1.739187258696    -0.685960690340     0.920745275820     1.007825032230

  Basis Set: AUG-CC-PVTZ
    Blend: AUG-CC-PVTZ
  Basis Set: (AUG-CC-PVTZ AUX)
    Blend: AUG-CC-PVTZ-JKFIT
	 Reference Energy          =    -227.8799946196618293 [Eh]
	 Singles Energy            =      -0.0000000000000000 [Eh]
	 Same-Spin Energy          =      -0.2155986801467785 [Eh]
	 Opposite-Spin Energy      =      -0.6714557945494266 [Eh]
	 Correlation Energy        =      -0.8870544746962051 [Eh]
	 Total Energy              =    -228.7670490943580432 [Eh]

	 ================> DF-SCS-MP2 Energies <==================
	-----------------------------------------------------------
	 SCS Same-Spin Scale       =       0.3333333333333333 [-]
	 SCS Opposite-Spin Scale   =       1.2000000000000000 [-]
	 SCS Same-Spin Energy      =      -0.0718662267155928 [Eh]
	 SCS Opposite-Spin Energy  =      -0.8057469534593119 [Eh]
	 SCS Correlation Energy    =      -0.8776131801749048 [Eh]
	 SCS Total Energy          =    -228.7576077998367339 [Eh]
	-----------------------------------------------------------

  Dipole Moment: [D]
     X:    -0.7880      Y:    -1.4539      Z:    -0.0371     Total:     1.6542

*** Psi4 exiting successfully. Buy a developer a beer!
