                               Psi4 1.3.2 release

  ==> Input File <==

--------------------------------------------------------------------------
#psi4
#
memory 32 gb

molecule  {
0 1
  C        0.0901110     0.1256610    -0.0006000
  O        0.6574530     1.2034920     0.0001100
  O        0.7645440    -1.0585160    -0.0000760
  H        1.7137310    -0.8171840     0.0013030
  C       -1.3945085    -0.1002941    -0.2000980
  H       -1.9040560     0.8615770    -0.0148950
  H       -1.6785790    -0.6920150    -0.8731890
  H       -1.6806310    -0.6642840     0.8906910
units angstrom
no_reorient  #important for SAPT in psi4, default
symmetry c1  #important for SAPT in psi4, default
}

set PROPERTIES_ORIGIN ["COM"]
properties('MP2/aug-cc-pvtz', properties = ['dipole'])
--------------------------------------------------------------------------

    Molecular point group: c1
  Charge       = 0
  Multiplicity = 1
  Basis Set: AUG-CC-PVTZ
    Blend: AUG-CC-PVTZ
  Basis Set: (AUG-CC-PVTZ AUX)
    Blend: AUG-CC-PVTZ-JKFIT

    Orbital Energies [Eh]
    ---------------------

    Doubly Occupied:

       1A    -20.617786     2A    -20.555376     3A    -11.397902
       4A    -11.255380     5A     -1.461871     6A     -1.359381
       7A     -1.031193     8A     -0.824384     9A     -0.710806
      10A     -0.696175    11A     -0.648845    12A     -0.607894
      13A     -0.573879    14A     -0.523380    15A     -0.483327
      16A     -0.455023

  @DF-RHF Final Energy:  -227.86187067204969

   => Energetics <=

    Nuclear Repulsion Energy =            120.4375146606078602
    One-Electron Energy =                -550.1935676248805294
    Two-Electron Energy =                 201.8941822922229790
    Total Energy =                       -227.8618706720496903
  Basis Set: (AUG-CC-PVTZ AUX)
    Blend: AUG-CC-PVTZ-RI
    Molecular point group: c1

    Geometry (in Angstrom), charge = 0, multiplicity = 1:

       Center              X                  Y                   Z               Mass
    ------------   -----------------  -----------------  -----------------  -----------------
         C            0.031554281466     0.103983469956     0.039450755498    12.000000000000
         O            0.598896281466     1.181814469956     0.040160755498    15.994914619570
         O            0.705987281466    -1.080193530044     0.039974755498    15.994914619570
         H            1.655174281466    -0.838861530044     0.041353755498     1.007825032230
         C           -1.453065218534    -0.121971630044    -0.160047244502    12.000000000000
         H           -1.962612718534     0.839899469956     0.025155755498     1.007825032230
         H           -1.737135718534    -0.713692530044    -0.833138244502     1.007825032230
         H           -1.739187718534    -0.685961530044     0.930741755498     1.007825032230

  Basis Set: AUG-CC-PVTZ
    Blend: AUG-CC-PVTZ
  Basis Set: (AUG-CC-PVTZ AUX)
    Blend: AUG-CC-PVTZ-JKFIT
	 Reference Energy          =    -227.8618706720496903 [Eh]
	 Singles Energy            =      -0.0000000000000000 [Eh]
	 Same-Spin Energy          =      -0.2158212118651043 [Eh]
	 Opposite-Spin Energy      =      -0.6722589515186705 [Eh]
	 Correlation Energy        =      -0.8880801633837748 [Eh]
	 Total Energy              =    -228.7499508354334523 [Eh]

	 ================> DF-SCS-MP2 Energies <==================
	-----------------------------------------------------------
	 SCS Same-Spin Scale       =       0.3333333333333333 [-]
	 SCS Opposite-Spin Scale   =       1.2000000000000000 [-]
	 SCS Same-Spin Energy      =      -0.0719404039550347 [Eh]
	 SCS Opposite-Spin Energy  =      -0.8067107418224047 [Eh]
	 SCS Correlation Energy    =      -0.8786511457774394 [Eh]
	 SCS Total Energy          =    -228.7405218178271298 [Eh]
	-----------------------------------------------------------

  Dipole Moment: [D]
     X:    -0.7746      Y:    -1.4420      Z:    -0.0479     Total:     1.6376

*** Psi4 exiting successfully. Buy a developer a beer!
