                               Psi4 1.3.2 release

  ==> Input File <==

--------------------------------------------------------------------------
#psi4
#
memory 32 gb

molecule  {
0 1
  C        0.0901110     0.1256610    -0.0006000
  O        0.6574530     1.2034920     0.0001100
  O        0.7645440    -1.0585160    -0.0000760
  H        1.7137310    -0.8171840     0.0013030
  C       -1.3945156    -0.1003068    -0.0500980
  H       -1.9040560     0.8615770    -0.0148950
  H       -1.6785790    -0.6920150    -0.8731890
  H       -1.6806310    -0.6642840     0.8906910
units angstrom
no_reorient  #important for SAPT in psi4, default
symmetry c1  #important for SAPT in psi4, default
}

set PROPERTIES_ORIGIN ["COM"]
properties('MP2/aug-cc-pvtz', properties = ['dipole'])
--------------------------------------------------------------------------

    Molecular point group: c1
  Charge       = 0
  Multiplicity = 1
  Basis Set: AUG-CC-PVTZ
    Blend: AUG-CC-PVTZ
  Basis Set: (AUG-CC-PVTZ AUX)
    Blend: AUG-CC-PVTZ-JKFIT

    Orbital Energies [Eh]
    ---------------------

    Doubly Occupied:

       1A    -20.617502     2A    -20.554378     3A    -11.394751
       4A    -11.249944     5A     -1.461415     6A     -1.358628
       7A     -1.029701     8A     -0.820618     9A     -0.706856
      10A     -0.681036    11A     -0.649813    12A     -0.588910
      13A     -0.576455    14A     -0.556719    15A     -0.484133
      16A     -0.457582

  @DF-RHF Final Energy:  -227.90050215287363

   => Energetics <=

    Nuclear Repulsion Energy =            120.5730641614409393
    One-Electron Energy =                -550.5702524209854118
    Two-Electron Energy =                 202.0966861066708589
    Total Energy =                       -227.9005021528736279
  Basis Set: (AUG-CC-PVTZ AUX)
    Blend: AUG-CC-PVTZ-RI
    Molecular point group: c1

    Geometry (in Angstrom), charge = 0, multiplicity = 1:

       Center              X                  Y                   Z               Mass
    ------------   -----------------  -----------------  -----------------  -----------------
         C            0.031555700966     0.103986009062     0.009461316463    12.000000000000
         O            0.598897700966     1.181817009062     0.010171316463    15.994914619570
         O            0.705988700966    -1.080190990938     0.009985316463    15.994914619570
         H            1.655175700966    -0.838858990938     0.011364316463     1.007825032230
         C           -1.453070899034    -0.121981790938    -0.040036683537    12.000000000000
         H           -1.962611299034     0.839902009062    -0.004833683537     1.007825032230
         H           -1.737134299034    -0.713689990938    -0.863127683537     1.007825032230
         H           -1.739186299034    -0.685958990938     0.900752316463     1.007825032230

  Basis Set: AUG-CC-PVTZ
    Blend: AUG-CC-PVTZ
  Basis Set: (AUG-CC-PVTZ AUX)
    Blend: AUG-CC-PVTZ-JKFIT
	 Reference Energy          =    -227.9005021528736279 [Eh]
	 Singles Energy            =      -0.0000000000000000 [Eh]
	 Same-Spin Energy          =      -0.2153473605697886 [Eh]
	 Opposite-Spin Energy      =      -0.6705606074214967 [Eh]
	 Correlation Energy        =      -0.8859079679912853 [Eh]
	 Total Energy              =    -228.7864101208649004 [Eh]

	 ================> DF-SCS-MP2 Energies <==================
	-----------------------------------------------------------
	 SCS Same-Spin Scale       =       0.3333333333333333 [-]
	 SCS Opposite-Spin Scale   =       1.2000000000000000 [-]
	 SCS Same-Spin Energy      =      -0.0717824535232629 [Eh]
	 SCS Opposite-Spin Energy  =      -0.8046727289057960 [Eh]
	 SCS Correlation Energy    =      -0.8764551824290588 [Eh]
	 SCS Total Energy          =    -228.7769573353026828 [Eh]
	-----------------------------------------------------------

  Dipole Moment: [D]
     X:    -0.8030      Y:    -1.4686      Z:    -0.0110     Total:     1.6738

*** Psi4 exiting successfully. Buy a developer a beer!
