                               Psi4 1.3.2 release

  ==> Input File <==

--------------------------------------------------------------------------
#psi4
#
memory 32 gb

molecule  {
0 1
  C        0.0901110     0.1256610    -0.0006000
  O        0.6574530     1.2034920     0.0001100
  O        0.7645440    -1.0585160    -0.0000760
  H        1.7137310    -0.8171840     0.0013030
  C       -1.3945061    -0.1002899    -0.2500980
  H       -1.9040560     0.8615770    -0.0148950
  H       -1.6785790    -0.6920150    -0.8731890
  H       -1.6806310    -0.6642840     0.8906910
units angstrom
no_reorient  #important for SAPT in psi4, default
symmetry c1  #important for SAPT in psi4, default
}

set PROPERTIES_ORIGIN ["COM"]
properties('MP2/aug-cc-pvtz', properties = ['dipole'])
--------------------------------------------------------------------------

    Molecular point group: c1
  Charge       = 0
  Multiplicity = 1
  Basis Set: AUG-CC-PVTZ
    Blend: AUG-CC-PVTZ
  Basis Set: (AUG-CC-PVTZ AUX)
    Blend: AUG-CC-PVTZ-JKFIT

    Orbital Energies [Eh]
    ---------------------

    Doubly Occupied:

       1A    -20.617960     2A    -20.555975     3A    -11.399739
       4A    -11.258602     5A     -1.462143     6A     -1.359826
       7A     -1.032243     8A     -0.826902     9A     -0.715474
      10A     -0.700509    11A     -0.648315    12A     -0.612275
      13A     -0.571476    14A     -0.513667    15A     -0.482413
      16A     -0.453009

  @DF-RHF Final Energy:  -227.83835211612185

   => Energetics <=

    Nuclear Repulsion Energy =            120.3569713768212495
    One-Electron Energy =                -549.9695899954241440
    Two-Electron Energy =                 201.7742665024810265
    Total Energy =                       -227.8383521161218539
  Basis Set: (AUG-CC-PVTZ AUX)
    Blend: AUG-CC-PVTZ-RI
    Molecular point group: c1

    Geometry (in Angstrom), charge = 0, multiplicity = 1:

       Center              X                  Y                   Z               Mass
    ------------   -----------------  -----------------  -----------------  -----------------
         C            0.031553801635     0.103982630252     0.049447235176    12.000000000000
         O            0.598895801635     1.181813630252     0.050157235176    15.994914619570
         O            0.705986801635    -1.080194369748     0.049971235176    15.994914619570
         H            1.655173801635    -0.838862369748     0.051350235176     1.007825032230
         C           -1.453063298365    -0.121968269748    -0.200050764824    12.000000000000
         H           -1.962613198365     0.839898630252     0.035152235176     1.007825032230
         H           -1.737136198365    -0.713693369748    -0.823141764824     1.007825032230
         H           -1.739188198365    -0.685962369748     0.940738235176     1.007825032230

  Basis Set: AUG-CC-PVTZ
    Blend: AUG-CC-PVTZ
  Basis Set: (AUG-CC-PVTZ AUX)
    Blend: AUG-CC-PVTZ-JKFIT
	 Reference Energy          =    -227.8383521161218539 [Eh]
	 Singles Energy            =      -0.0000000000000000 [Eh]
	 Same-Spin Energy          =      -0.2161111690150674 [Eh]
	 Opposite-Spin Energy      =      -0.6733111211337965 [Eh]
	 Correlation Energy        =      -0.8894222901488640 [Eh]
	 Total Energy              =    -228.7277744062707256 [Eh]

	 ================> DF-SCS-MP2 Energies <==================
	-----------------------------------------------------------
	 SCS Same-Spin Scale       =       0.3333333333333333 [-]
	 SCS Opposite-Spin Scale   =       1.2000000000000000 [-]
	 SCS Same-Spin Energy      =      -0.0720370563383558 [Eh]
	 SCS Opposite-Spin Energy  =      -0.8079733453605559 [Eh]
	 SCS Correlation Energy    =      -0.8800104016989116 [Eh]
	 SCS Total Energy          =    -228.7183625178207649 [Eh]
	-----------------------------------------------------------

  Dipole Moment: [D]
     X:    -0.7578      Y:    -1.4283      Z:    -0.0560     Total:     1.6178

*** Psi4 exiting successfully. Buy a developer a beer!
