                               Psi4 1.4a2.dev612

  ==> Input File <==

--------------------------------------------------------------------------
#psi4
#
memory 32 gb

molecule  {
0 1
  F        1.9821660     1.2528190    -0.0004060
  F        1.9351680    -0.6366780     1.0868470
  F        1.9352150    -0.6374130    -1.0863900
  C       -0.0483970     0.0270950    -0.0000420
  C       -0.7553000     1.2300380    -0.0000240
  C       -0.7204310    -1.1995770    -0.0000260
  C        1.4474963     0.0105279     0.1500000
  C       -2.1511760     1.2020250     0.0000010
  C       -2.1135870    -1.2175920     0.0000010
  C       -2.8302990    -0.0173450     0.0000170
  H       -0.2211530     2.1747870    -0.0000390
  H       -0.1550120    -2.1281220    -0.0000490
  H       -2.7078980     2.1355510     0.0000090
  H       -2.6414440    -2.1677340     0.0000090
  H       -3.9172820    -0.0340560     0.0000400
units angstrom
no_reorient  #important for SAPT in psi4, default
symmetry c1  #important for SAPT in psi4, default
}

set PROPERTIES_ORIGIN ["COM"]
properties('MP2/aug-cc-pvtz', properties = ['dipole'])
--------------------------------------------------------------------------

    Molecular point group: c1
  Charge       = 0
  Multiplicity = 1
  Basis Set: AUG-CC-PVTZ
    Blend: AUG-CC-PVTZ
  Basis Set: (AUG-CC-PVTZ AUX)
    Blend: AUG-CC-PVTZ-JKFIT

    Orbital Energies [Eh]
    ---------------------

    Doubly Occupied:

       1A    -26.381742     2A    -26.336283     3A    -26.283042
       4A    -11.513965     5A    -11.272493     6A    -11.263891
       7A    -11.263773     8A    -11.260474     9A    -11.257228
      10A    -11.256663    11A     -1.765091    12A     -1.651215
      13A     -1.565551    14A     -1.181327    15A     -1.072272
      16A     -1.038776    17A     -0.971757    18A     -0.878017
      19A     -0.861416    20A     -0.829962    21A     -0.816483
      22A     -0.793881    23A     -0.724506    24A     -0.701978
      25A     -0.683050    26A     -0.681489    27A     -0.648748
      28A     -0.637013    29A     -0.626674    30A     -0.616968
      31A     -0.605643    32A     -0.586587    33A     -0.528801
      34A     -0.518473    35A     -0.516546    36A     -0.363461
      37A     -0.358074

  @DF-RHF Final Energy:  -566.50960941501648

   => Energetics <=

    Nuclear Repulsion Energy =            526.8777894440194132
    One-Electron Energy =               -1826.1481680582057834
    Two-Electron Energy =                 732.7607691991699994
    Total Energy =                       -566.5096094150164845
  Basis Set: (AUG-CC-PVTZ AUX)
    Blend: AUG-CC-PVTZ-RI
    Molecular point group: c1

    Geometry (in Angstrom), charge = 0, multiplicity = 1:

       Center              X                  Y                   Z               Mass
    ------------   -----------------  -----------------  -----------------  -----------------
         F            1.876639330988     1.252831314907    -0.012732297703    18.998403162730
         F            1.829641330988    -0.636665685093     1.074520702297    18.998403162730
         F            1.829688330988    -0.637400685093    -1.098716297703    18.998403162730
         C           -0.153923669012     0.027107314907    -0.012368297703    12.000000000000
         C           -0.860826669012     1.230050314907    -0.012350297703    12.000000000000
         C           -0.825957669012    -1.199564685093    -0.012352297703    12.000000000000
         C            1.341969630988     0.010540214907     0.137673702297    12.000000000000
         C           -2.256702669012     1.202037314907    -0.012325297703    12.000000000000
         C           -2.219113669012    -1.217579685093    -0.012325297703    12.000000000000
         C           -2.935825669012    -0.017332685093    -0.012309297703    12.000000000000
         H           -0.326679669012     2.174799314907    -0.012365297703     1.007825032230
         H           -0.260538669012    -2.128109685093    -0.012375297703     1.007825032230
         H           -2.813424669012     2.135563314907    -0.012317297703     1.007825032230
         H           -2.746970669012    -2.167721685093    -0.012317297703     1.007825032230
         H           -4.022808669012    -0.034043685093    -0.012286297703     1.007825032230

  Basis Set: AUG-CC-PVTZ
    Blend: AUG-CC-PVTZ
  Basis Set: (AUG-CC-PVTZ AUX)
    Blend: AUG-CC-PVTZ-JKFIT
	 Reference Energy          =    -566.5096094150164845 [Eh]
	 Singles Energy            =      -0.0000000000000000 [Eh]
	 Same-Spin Energy          =      -0.5189240168106775 [Eh]
	 Opposite-Spin Energy      =      -1.5406037229359657 [Eh]
	 Correlation Energy        =      -2.0595277397466432 [Eh]
	 Total Energy              =    -568.5691371547630979 [Eh]

	 ================> DF-SCS-MP2 Energies <==================
	-----------------------------------------------------------
	 SCS Same-Spin Scale       =       0.3333333333333333 [-]
	 SCS Opposite-Spin Scale   =       1.2000000000000000 [-]
	 SCS Same-Spin Energy      =      -0.1729746722702258 [Eh]
	 SCS Opposite-Spin Energy  =      -1.8487244675231587 [Eh]
	 SCS Correlation Energy    =      -2.0216991397933843 [Eh]
	 SCS Total Energy          =    -568.5313085548099252 [Eh]
	-----------------------------------------------------------

  Dipole Moment: [D]
     X:    -2.8935      Y:     0.0328      Z:     1.1544     Total:     3.1154

*** Psi4 exiting successfully. Buy a developer a beer!
