                               Psi4 1.4a2.dev612

  ==> Input File <==

--------------------------------------------------------------------------
#psi4
#
memory 32 gb

molecule  {
0 1
  F        1.9821660     1.2528190    -0.0004060
  F        1.9351680    -0.6366780     1.0868470
  F        1.9352150    -0.6374130    -1.0863900
  C       -0.0483970     0.0270950    -0.0000420
  C       -0.7553000     1.2300380    -0.0000240
  C       -0.7204310    -1.1995770    -0.0000260
  C        1.4474951     0.0105278     0.2500000
  C       -2.1511760     1.2020250     0.0000010
  C       -2.1135870    -1.2175920     0.0000010
  C       -2.8302990    -0.0173450     0.0000170
  H       -0.2211530     2.1747870    -0.0000390
  H       -0.1550120    -2.1281220    -0.0000490
  H       -2.7078980     2.1355510     0.0000090
  H       -2.6414440    -2.1677340     0.0000090
  H       -3.9172820    -0.0340560     0.0000400
units angstrom
no_reorient  #important for SAPT in psi4, default
symmetry c1  #important for SAPT in psi4, default
}

set PROPERTIES_ORIGIN ["COM"]
properties('MP2/aug-cc-pvtz', properties = ['dipole'])
--------------------------------------------------------------------------

    Molecular point group: c1
  Charge       = 0
  Multiplicity = 1
  Basis Set: AUG-CC-PVTZ
    Blend: AUG-CC-PVTZ
  Basis Set: (AUG-CC-PVTZ AUX)
    Blend: AUG-CC-PVTZ-JKFIT

    Orbital Energies [Eh]
    ---------------------

    Doubly Occupied:

       1A    -26.417198     2A    -26.333656     3A    -26.246705
       4A    -11.520703     5A    -11.275978     6A    -11.263954
       7A    -11.263877     8A    -11.260555     9A    -11.257527
      10A    -11.256956    11A     -1.829117    12A     -1.647905
      13A     -1.522371    14A     -1.181441    15A     -1.073063
      16A     -1.039012    17A     -0.992231    18A     -0.896021
      19A     -0.873725    20A     -0.847382    21A     -0.840478
      22A     -0.800082    23A     -0.726357    24A     -0.701372
      25A     -0.686428    26A     -0.671281    27A     -0.645418
      28A     -0.626387    29A     -0.609851    30A     -0.596824
      31A     -0.583103    32A     -0.576735    33A     -0.531069
      34A     -0.518570    35A     -0.510270    36A     -0.362190
      37A     -0.358285

  @DF-RHF Final Energy:  -566.47134772234369

   => Energetics <=

    Nuclear Repulsion Energy =            526.8839510109676212
    One-Electron Energy =               -1826.0224417107287991
    Two-Electron Energy =                 732.6671429774174840
    Total Energy =                       -566.4713477223436939
  Basis Set: (AUG-CC-PVTZ AUX)
    Blend: AUG-CC-PVTZ-RI
    Molecular point group: c1

    Geometry (in Angstrom), charge = 0, multiplicity = 1:

       Center              X                  Y                   Z               Mass
    ------------   -----------------  -----------------  -----------------  -----------------
         F            1.876639429595     1.252831323124    -0.020949543346    18.998403162730
         F            1.829641429595    -0.636665676876     1.066303456654    18.998403162730
         F            1.829688429595    -0.637400676876    -1.106933543346    18.998403162730
         C           -0.153923570405     0.027107323124    -0.020585543346    12.000000000000
         C           -0.860826570405     1.230050323124    -0.020567543346    12.000000000000
         C           -0.825957570405    -1.199564676876    -0.020569543346    12.000000000000
         C            1.341968529595     0.010540123124     0.229456456654    12.000000000000
         C           -2.256702570405     1.202037323124    -0.020542543346    12.000000000000
         C           -2.219113570405    -1.217579676876    -0.020542543346    12.000000000000
         C           -2.935825570405    -0.017332676876    -0.020526543346    12.000000000000
         H           -0.326679570405     2.174799323124    -0.020582543346     1.007825032230
         H           -0.260538570405    -2.128109676876    -0.020592543346     1.007825032230
         H           -2.813424570405     2.135563323124    -0.020534543346     1.007825032230
         H           -2.746970570405    -2.167721676876    -0.020534543346     1.007825032230
         H           -4.022808570405    -0.034043676876    -0.020503543346     1.007825032230

  Basis Set: AUG-CC-PVTZ
    Blend: AUG-CC-PVTZ
  Basis Set: (AUG-CC-PVTZ AUX)
    Blend: AUG-CC-PVTZ-JKFIT
	 Reference Energy          =    -566.4713477223436939 [Eh]
	 Singles Energy            =      -0.0000000000000000 [Eh]
	 Same-Spin Energy          =      -0.5199630720635045 [Eh]
	 Opposite-Spin Energy      =      -1.5422749687467010 [Eh]
	 Correlation Energy        =      -2.0622380408102057 [Eh]
	 Total Energy              =    -568.5335857631539511 [Eh]

	 ================> DF-SCS-MP2 Energies <==================
	-----------------------------------------------------------
	 SCS Same-Spin Scale       =       0.3333333333333333 [-]
	 SCS Opposite-Spin Scale   =       1.2000000000000000 [-]
	 SCS Same-Spin Energy      =      -0.1733210240211681 [Eh]
	 SCS Opposite-Spin Energy  =      -1.8507299624960412 [Eh]
	 SCS Correlation Energy    =      -2.0240509865172092 [Eh]
	 SCS Total Energy          =    -568.4953987088608756 [Eh]
	-----------------------------------------------------------

  Dipole Moment: [D]
     X:    -2.8900      Y:     0.0054      Z:     1.9640     Total:     3.4942

*** Psi4 exiting successfully. Buy a developer a beer!
