                               Psi4 1.4a2.dev612

  ==> Input File <==

--------------------------------------------------------------------------
#psi4
#
memory 32 gb

molecule  {
0 1
  F        1.9821660     1.2528190    -0.0004060
  F        1.9351680    -0.6366780     1.0868470
  F        1.9352150    -0.6374130    -1.0863900
  C       -0.0483970     0.0270950    -0.0000420
  C       -0.7553000     1.2300380    -0.0000240
  C       -0.7204310    -1.1995770    -0.0000260
  C        1.4474957     0.0105278     0.2000000
  C       -2.1511760     1.2020250     0.0000010
  C       -2.1135870    -1.2175920     0.0000010
  C       -2.8302990    -0.0173450     0.0000170
  H       -0.2211530     2.1747870    -0.0000390
  H       -0.1550120    -2.1281220    -0.0000490
  H       -2.7078980     2.1355510     0.0000090
  H       -2.6414440    -2.1677340     0.0000090
  H       -3.9172820    -0.0340560     0.0000400
units angstrom
no_reorient  #important for SAPT in psi4, default
symmetry c1  #important for SAPT in psi4, default
}

set PROPERTIES_ORIGIN ["COM"]
properties('MP2/aug-cc-pvtz', properties = ['dipole'])
--------------------------------------------------------------------------

    Molecular point group: c1
  Charge       = 0
  Multiplicity = 1
  Basis Set: AUG-CC-PVTZ
    Blend: AUG-CC-PVTZ
  Basis Set: (AUG-CC-PVTZ AUX)
    Blend: AUG-CC-PVTZ-JKFIT

    Orbital Energies [Eh]
    ---------------------

    Doubly Occupied:

       1A    -26.399058     2A    -26.335147     3A    -26.265268
       4A    -11.516950     5A    -11.274007     6A    -11.263907
       7A    -11.263819     8A    -11.260506     9A    -11.257355
      10A    -11.256787    11A     -1.795125    12A     -1.650608
      13A     -1.543919    14A     -1.181367    15A     -1.072510
      16A     -1.038873    17A     -0.980285    18A     -0.886756
      19A     -0.865738    20A     -0.837766    21A     -0.828196
      22A     -0.797481    23A     -0.726167    24A     -0.702014
      25A     -0.684941    26A     -0.676256    27A     -0.646709
      28A     -0.632547    29A     -0.613202    30A     -0.610140
      31A     -0.597097    32A     -0.582842    33A     -0.530025
      34A     -0.518491    35A     -0.513688    36A     -0.362898
      37A     -0.358170

  @DF-RHF Final Energy:  -566.49310073013680

   => Energetics <=

    Nuclear Repulsion Energy =            526.8804192779938376
    One-Electron Energy =               -1826.0938105283134973
    Two-Electron Energy =                 732.7202905201827434
    Total Energy =                       -566.4931007301368027
  Basis Set: (AUG-CC-PVTZ AUX)
    Blend: AUG-CC-PVTZ-RI
    Molecular point group: c1

    Geometry (in Angstrom), charge = 0, multiplicity = 1:

       Center              X                  Y                   Z               Mass
    ------------   -----------------  -----------------  -----------------  -----------------
         F            1.876639380292     1.252831323124    -0.016840920525    18.998403162730
         F            1.829641380292    -0.636665676876     1.070412079475    18.998403162730
         F            1.829688380292    -0.637400676876    -1.102824920525    18.998403162730
         C           -0.153923619708     0.027107323124    -0.016476920525    12.000000000000
         C           -0.860826619708     1.230050323124    -0.016458920525    12.000000000000
         C           -0.825957619708    -1.199564676876    -0.016460920525    12.000000000000
         C            1.341969080292     0.010540123124     0.183565079475    12.000000000000
         C           -2.256702619708     1.202037323124    -0.016433920525    12.000000000000
         C           -2.219113619708    -1.217579676876    -0.016433920525    12.000000000000
         C           -2.935825619708    -0.017332676876    -0.016417920525    12.000000000000
         H           -0.326679619708     2.174799323124    -0.016473920525     1.007825032230
         H           -0.260538619708    -2.128109676876    -0.016483920525     1.007825032230
         H           -2.813424619708     2.135563323124    -0.016425920525     1.007825032230
         H           -2.746970619708    -2.167721676876    -0.016425920525     1.007825032230
         H           -4.022808619708    -0.034043676876    -0.016394920525     1.007825032230

  Basis Set: AUG-CC-PVTZ
    Blend: AUG-CC-PVTZ
  Basis Set: (AUG-CC-PVTZ AUX)
    Blend: AUG-CC-PVTZ-JKFIT
	 Reference Energy          =    -566.4931007301368027 [Eh]
	 Singles Energy            =      -0.0000000000000000 [Eh]
	 Same-Spin Energy          =      -0.5194085390441781 [Eh]
	 Opposite-Spin Energy      =      -1.5413898691186365 [Eh]
	 Correlation Energy        =      -2.0607984081628148 [Eh]
	 Total Energy              =    -568.5538991382995846 [Eh]

	 ================> DF-SCS-MP2 Energies <==================
	-----------------------------------------------------------
	 SCS Same-Spin Scale       =       0.3333333333333333 [-]
	 SCS Opposite-Spin Scale   =       1.2000000000000000 [-]
	 SCS Same-Spin Energy      =      -0.1731361796813927 [Eh]
	 SCS Opposite-Spin Energy  =      -1.8496678429423636 [Eh]
	 SCS Correlation Energy    =      -2.0228040226237565 [Eh]
	 SCS Total Energy          =    -568.5159047527605480 [Eh]
	-----------------------------------------------------------

  Dipole Moment: [D]
     X:    -2.8910      Y:     0.0205      Z:     1.5537     Total:     3.2822

*** Psi4 exiting successfully. Buy a developer a beer!
