                               Psi4 1.4a2.dev612

  ==> Input File <==

--------------------------------------------------------------------------
#psi4
#
memory 32 gb

molecule  {
0 1
  F        1.9821660     1.2528190    -0.0004060
  F        1.9351680    -0.6366780     1.0868470
  F        1.9352150    -0.6374130    -1.0863900
  C       -0.0483970     0.0270950    -0.0000420
  C       -0.7553000     1.2300380    -0.0000240
  C       -0.7204310    -1.1995770    -0.0000260
  C        1.4474969     0.0105279     0.1000000
  C       -2.1511760     1.2020250     0.0000010
  C       -2.1135870    -1.2175920     0.0000010
  C       -2.8302990    -0.0173450     0.0000170
  H       -0.2211530     2.1747870    -0.0000390
  H       -0.1550120    -2.1281220    -0.0000490
  H       -2.7078980     2.1355510     0.0000090
  H       -2.6414440    -2.1677340     0.0000090
  H       -3.9172820    -0.0340560     0.0000400
units angstrom
no_reorient  #important for SAPT in psi4, default
symmetry c1  #important for SAPT in psi4, default
}

set PROPERTIES_ORIGIN ["COM"]
properties('MP2/aug-cc-pvtz', properties = ['dipole'])
--------------------------------------------------------------------------

    Molecular point group: c1
  Charge       = 0
  Multiplicity = 1
  Basis Set: AUG-CC-PVTZ
    Blend: AUG-CC-PVTZ
  Basis Set: (AUG-CC-PVTZ AUX)
    Blend: AUG-CC-PVTZ-JKFIT

    Orbital Energies [Eh]
    ---------------------

    Doubly Occupied:

       1A    -26.365075     2A    -26.337086     3A    -26.300101
       4A    -11.511799     5A    -11.271424     6A    -11.263889
       7A    -11.263742     8A    -11.260455     9A    -11.257143
      10A    -11.256578    11A     -1.740646    12A     -1.648505
      13A     -1.587024    14A     -1.181308    15A     -1.072186
      16A     -1.038713    17A     -0.966298    18A     -0.870620
      19A     -0.859290    20A     -0.822359    21A     -0.809218
      22A     -0.790062    23A     -0.720946    24A     -0.701536
      25A     -0.690940    26A     -0.676212    27A     -0.650907
      28A     -0.641610    29A     -0.636951    30A     -0.628296
      31A     -0.607415    32A     -0.588883    33A     -0.527456
      34A     -0.519270    35A     -0.518178    36A     -0.363868
      37A     -0.358004

  @DF-RHF Final Energy:  -566.52117283581742

   => Energetics <=

    Nuclear Repulsion Energy =            526.8760542437927370
    One-Electron Energy =               -1826.1864659863108500
    Two-Electron Energy =                 732.7892389067008025
    Total Energy =                       -566.5211728358174241
  Basis Set: (AUG-CC-PVTZ AUX)
    Blend: AUG-CC-PVTZ-RI
    Molecular point group: c1

    Geometry (in Angstrom), charge = 0, multiplicity = 1:

       Center              X                  Y                   Z               Mass
    ------------   -----------------  -----------------  -----------------  -----------------
         F            1.876639281685     1.252831314907    -0.008623674882    18.998403162730
         F            1.829641281685    -0.636665685093     1.078629325118    18.998403162730
         F            1.829688281685    -0.637400685093    -1.094607674882    18.998403162730
         C           -0.153923718315     0.027107314907    -0.008259674882    12.000000000000
         C           -0.860826718315     1.230050314907    -0.008241674882    12.000000000000
         C           -0.825957718315    -1.199564685093    -0.008243674882    12.000000000000
         C            1.341970181685     0.010540214907     0.091782325118    12.000000000000
         C           -2.256702718315     1.202037314907    -0.008216674882    12.000000000000
         C           -2.219113718315    -1.217579685093    -0.008216674882    12.000000000000
         C           -2.935825718315    -0.017332685093    -0.008200674882    12.000000000000
         H           -0.326679718315     2.174799314907    -0.008256674882     1.007825032230
         H           -0.260538718315    -2.128109685093    -0.008266674882     1.007825032230
         H           -2.813424718315     2.135563314907    -0.008208674882     1.007825032230
         H           -2.746970718315    -2.167721685093    -0.008208674882     1.007825032230
         H           -4.022808718315    -0.034043685093    -0.008177674882     1.007825032230

  Basis Set: AUG-CC-PVTZ
    Blend: AUG-CC-PVTZ
  Basis Set: (AUG-CC-PVTZ AUX)
    Blend: AUG-CC-PVTZ-JKFIT
	 Reference Energy          =    -566.5211728358174241 [Eh]
	 Singles Energy            =      -0.0000000000000000 [Eh]
	 Same-Spin Energy          =      -0.5185491981249921 [Eh]
	 Opposite-Spin Energy      =      -1.5399868704619557 [Eh]
	 Correlation Energy        =      -2.0585360685869478 [Eh]
	 Total Energy              =    -568.5797089044043560 [Eh]

	 ================> DF-SCS-MP2 Energies <==================
	-----------------------------------------------------------
	 SCS Same-Spin Scale       =       0.3333333333333333 [-]
	 SCS Opposite-Spin Scale   =       1.2000000000000000 [-]
	 SCS Same-Spin Energy      =      -0.1728497327083307 [Eh]
	 SCS Opposite-Spin Energy  =      -1.8479842445543468 [Eh]
	 SCS Correlation Energy    =      -2.0208339772626775 [Eh]
	 SCS Total Energy          =    -568.5420068130800928 [Eh]
	-----------------------------------------------------------

  Dipole Moment: [D]
     X:    -2.8960      Y:     0.0418      Z:     0.7641     Total:     2.9954

*** Psi4 exiting successfully. Buy a developer a beer!
