                               Psi4 1.4a2.dev612

  ==> Input File <==

--------------------------------------------------------------------------
#psi4
#
memory 32 gb

molecule  {
0 1
  F        1.9821660     1.2528190    -0.0004060
  F        1.9351680    -0.6366780     1.0868470
  F        1.9352150    -0.6374130    -1.0863900
  C       -0.0483970     0.0270950    -0.0000420
  C       -0.7553000     1.2300380    -0.0000240
  C       -0.7204310    -1.1995770    -0.0000260
  C        1.4474974     0.0105280     0.0500000
  C       -2.1511760     1.2020250     0.0000010
  C       -2.1135870    -1.2175920     0.0000010
  C       -2.8302990    -0.0173450     0.0000170
  H       -0.2211530     2.1747870    -0.0000390
  H       -0.1550120    -2.1281220    -0.0000490
  H       -2.7078980     2.1355510     0.0000090
  H       -2.6414440    -2.1677340     0.0000090
  H       -3.9172820    -0.0340560     0.0000400
units angstrom
no_reorient  #important for SAPT in psi4, default
symmetry c1  #important for SAPT in psi4, default
}

set PROPERTIES_ORIGIN ["COM"]
properties('MP2/aug-cc-pvtz', properties = ['dipole'])
--------------------------------------------------------------------------

    Molecular point group: c1
  Charge       = 0
  Multiplicity = 1
  Basis Set: AUG-CC-PVTZ
    Blend: AUG-CC-PVTZ
  Basis Set: (AUG-CC-PVTZ AUX)
    Blend: AUG-CC-PVTZ-JKFIT

    Orbital Energies [Eh]
    ---------------------

    Doubly Occupied:

       1A    -26.348832     2A    -26.337566     3A    -26.316603
       4A    -11.510486     5A    -11.270789     6A    -11.263891
       7A    -11.263725     8A    -11.260446     9A    -11.257094
      10A    -11.256529    11A     -1.724381    12A     -1.640651
      13A     -1.607688    14A     -1.181300    15A     -1.072164
      16A     -1.038678    17A     -0.963327    18A     -0.865771
      19A     -0.858267    20A     -0.815792    21A     -0.806532
      22A     -0.787248    23A     -0.715699    24A     -0.700969
      25A     -0.699028    26A     -0.669097    27A     -0.652489
      28A     -0.650397    29A     -0.640919    30A     -0.636552
      31A     -0.607834    32A     -0.590131    33A     -0.526095
      34A     -0.521172    35A     -0.518262    36A     -0.364114
      37A     -0.357963

  @DF-RHF Final Energy:  -566.52801703659190

   => Energetics <=

    Nuclear Repulsion Energy =            526.8750914584062457
    One-Electron Energy =               -1826.2092552679657729
    Two-Electron Energy =                 732.8061467729675087
    Total Energy =                       -566.5280170365919048
  Basis Set: (AUG-CC-PVTZ AUX)
    Blend: AUG-CC-PVTZ-RI
    Molecular point group: c1

    Geometry (in Angstrom), charge = 0, multiplicity = 1:

       Center              X                  Y                   Z               Mass
    ------------   -----------------  -----------------  -----------------  -----------------
         F            1.876639240598     1.252831306690    -0.004515052061    18.998403162730
         F            1.829641240598    -0.636665693310     1.082737947939    18.998403162730
         F            1.829688240598    -0.637400693310    -1.090499052061    18.998403162730
         C           -0.153923759402     0.027107306690    -0.004151052061    12.000000000000
         C           -0.860826759402     1.230050306690    -0.004133052061    12.000000000000
         C           -0.825957759402    -1.199564693310    -0.004135052061    12.000000000000
         C            1.341970640598     0.010540306690     0.045890947939    12.000000000000
         C           -2.256702759402     1.202037306690    -0.004108052061    12.000000000000
         C           -2.219113759402    -1.217579693310    -0.004108052061    12.000000000000
         C           -2.935825759402    -0.017332693310    -0.004092052061    12.000000000000
         H           -0.326679759402     2.174799306690    -0.004148052061     1.007825032230
         H           -0.260538759402    -2.128109693310    -0.004158052061     1.007825032230
         H           -2.813424759402     2.135563306690    -0.004100052061     1.007825032230
         H           -2.746970759402    -2.167721693310    -0.004100052061     1.007825032230
         H           -4.022808759402    -0.034043693310    -0.004069052061     1.007825032230

  Basis Set: AUG-CC-PVTZ
    Blend: AUG-CC-PVTZ
  Basis Set: (AUG-CC-PVTZ AUX)
    Blend: AUG-CC-PVTZ-JKFIT
	 Reference Energy          =    -566.5280170365919048 [Eh]
	 Singles Energy            =      -0.0000000000000000 [Eh]
	 Same-Spin Energy          =      -0.5183128560427934 [Eh]
	 Opposite-Spin Energy      =      -1.5395937405429931 [Eh]
	 Correlation Energy        =      -2.0579065965857866 [Eh]
	 Total Energy              =    -568.5859236331776856 [Eh]

	 ================> DF-SCS-MP2 Energies <==================
	-----------------------------------------------------------
	 SCS Same-Spin Scale       =       0.3333333333333333 [-]
	 SCS Opposite-Spin Scale   =       1.2000000000000000 [-]
	 SCS Same-Spin Energy      =      -0.1727709520142645 [Eh]
	 SCS Opposite-Spin Energy  =      -1.8475124886515917 [Eh]
	 SCS Correlation Energy    =      -2.0202834406658563 [Eh]
	 SCS Total Energy          =    -568.5483004772577260 [Eh]
	-----------------------------------------------------------

  Dipole Moment: [D]
     X:    -2.8979      Y:     0.0473      Z:     0.3803     Total:     2.9231

*** Psi4 exiting successfully. Buy a developer a beer!
