                               Psi4 1.4a2.dev612

  ==> Input File <==

--------------------------------------------------------------------------
#psi4
#
memory 32 gb

molecule  {
0 1
  F        1.9821660     1.2528190    -0.0004060
  F        1.9351680    -0.6366780     1.0868470
  F        1.9352150    -0.6374130    -1.0863900
  C       -0.0483970     0.0270950    -0.0000420
  C       -0.7553000     1.2300380    -0.0000240
  C       -0.7204310    -1.1995770    -0.0000260
  C        1.4474946     0.0105277     0.3000000
  C       -2.1511760     1.2020250     0.0000010
  C       -2.1135870    -1.2175920     0.0000010
  C       -2.8302990    -0.0173450     0.0000170
  H       -0.2211530     2.1747870    -0.0000390
  H       -0.1550120    -2.1281220    -0.0000490
  H       -2.7078980     2.1355510     0.0000090
  H       -2.6414440    -2.1677340     0.0000090
  H       -3.9172820    -0.0340560     0.0000400
units angstrom
no_reorient  #important for SAPT in psi4, default
symmetry c1  #important for SAPT in psi4, default
}

set PROPERTIES_ORIGIN ["COM"]
properties('MP2/aug-cc-pvtz', properties = ['dipole'])
--------------------------------------------------------------------------

    Molecular point group: c1
  Charge       = 0
  Multiplicity = 1
  Basis Set: AUG-CC-PVTZ
    Blend: AUG-CC-PVTZ
  Basis Set: (AUG-CC-PVTZ AUX)
    Blend: AUG-CC-PVTZ-JKFIT

    Orbital Energies [Eh]
    ---------------------

    Doubly Occupied:

       1A    -26.436263     2A    -26.331777     3A    -26.227380
       4A    -11.525156     5A    -11.278414     6A    -11.264045
       7A    -11.263950     8A    -11.260627     9A    -11.257752
      10A    -11.257173    11A     -1.866120    12A     -1.643724
      13A     -1.501018    14A     -1.181562    15A     -1.074252
      16A     -1.039203    17A     -1.007273    18A     -0.906764
      19A     -0.885230    20A     -0.864213    21A     -0.845499
      22A     -0.801570    23A     -0.725628    24A     -0.699793
      25A     -0.686444    26A     -0.667640    27A     -0.644741
      28A     -0.619875    29A     -0.609228    30A     -0.581359
      31A     -0.570830    32A     -0.564931    33A     -0.531799
      34A     -0.518679    35A     -0.506164    36A     -0.361369
      37A     -0.358391

  @DF-RHF Final Energy:  -566.44399734046010

   => Energetics <=

    Nuclear Repulsion Energy =            526.8881234129491986
    One-Electron Energy =               -1825.9325675116160710
    Two-Electron Energy =                 732.6004467582067718
    Total Energy =                       -566.4439973404601005
  Basis Set: (AUG-CC-PVTZ AUX)
    Blend: AUG-CC-PVTZ-RI
    Molecular point group: c1

    Geometry (in Angstrom), charge = 0, multiplicity = 1:

       Center              X                  Y                   Z               Mass
    ------------   -----------------  -----------------  -----------------  -----------------
         F            1.876639470681     1.252831331342    -0.025058166167    18.998403162730
         F            1.829641470681    -0.636665668658     1.062194833833    18.998403162730
         F            1.829688470681    -0.637400668658    -1.111042166167    18.998403162730
         C           -0.153923529319     0.027107331342    -0.024694166167    12.000000000000
         C           -0.860826529319     1.230050331342    -0.024676166167    12.000000000000
         C           -0.825957529319    -1.199564668658    -0.024678166167    12.000000000000
         C            1.341968070681     0.010540031342     0.275347833833    12.000000000000
         C           -2.256702529319     1.202037331342    -0.024651166167    12.000000000000
         C           -2.219113529319    -1.217579668658    -0.024651166167    12.000000000000
         C           -2.935825529319    -0.017332668658    -0.024635166167    12.000000000000
         H           -0.326679529319     2.174799331342    -0.024691166167     1.007825032230
         H           -0.260538529319    -2.128109668658    -0.024701166167     1.007825032230
         H           -2.813424529319     2.135563331342    -0.024643166167     1.007825032230
         H           -2.746970529319    -2.167721668658    -0.024643166167     1.007825032230
         H           -4.022808529319    -0.034043668658    -0.024612166167     1.007825032230

  Basis Set: AUG-CC-PVTZ
    Blend: AUG-CC-PVTZ
  Basis Set: (AUG-CC-PVTZ AUX)
    Blend: AUG-CC-PVTZ-JKFIT
	 Reference Energy          =    -566.4439973404601005 [Eh]
	 Singles Energy            =      -0.0000000000000000 [Eh]
	 Same-Spin Energy          =      -0.5205392569970171 [Eh]
	 Opposite-Spin Energy      =      -1.5431781101392690 [Eh]
	 Correlation Energy        =      -2.0637173671362863 [Eh]
	 Total Energy              =    -568.5077147075963921 [Eh]

	 ================> DF-SCS-MP2 Energies <==================
	-----------------------------------------------------------
	 SCS Same-Spin Scale       =       0.3333333333333333 [-]
	 SCS Opposite-Spin Scale   =       1.2000000000000000 [-]
	 SCS Same-Spin Energy      =      -0.1735130856656724 [Eh]
	 SCS Opposite-Spin Energy  =      -1.8518137321671226 [Eh]
	 SCS Correlation Energy    =      -2.0253268178327950 [Eh]
	 SCS Total Energy          =    -568.4693241582929204 [Eh]
	-----------------------------------------------------------

  Dipole Moment: [D]
     X:    -2.8922      Y:    -0.0121      Z:     2.3862     Total:     3.7495

*** Psi4 exiting successfully. Buy a developer a beer!
