                               Psi4 1.4a3.dev225

  ==> Input File <==

--------------------------------------------------------------------------
#psi4
#
memory 32 gb

molecule  {
0 1
  N       -1.4165960    -0.6509490     0.0049700
  N        2.1271010     0.0145420    -0.1027660
  C        0.7324423     0.0024963    -0.0040254
  C       -0.1164160    -1.1090330     0.0084540
  C       -0.1198780     1.1527520    -0.0095160
  C       -1.4333080     0.7182450     0.0046470
  H        0.1125540    -2.1658880     0.0046750
  H        0.2096300     2.1837040    -0.0328240
  H       -2.2355060    -1.2420580     0.0220170
  H       -2.3628750     1.2701830     0.0090050
  H        2.5185220    -0.8881070     0.1549510
  H        2.5267920     0.7112850     0.5209140
units angstrom
no_reorient  #important for SAPT in psi4, default
symmetry c1  #important for SAPT in psi4, default
}

set PROPERTIES_ORIGIN ["COM"]
properties('MP2/aug-cc-pvtz', properties = ['dipole'])
--------------------------------------------------------------------------

    Molecular point group: c1
  Charge       = 0
  Multiplicity = 1
  Basis Set: AUG-CC-PVTZ
    Blend: AUG-CC-PVTZ
  Basis Set: (AUG-CC-PVTZ AUX)
    Blend: AUG-CC-PVTZ-JKFIT

    Orbital Energies [Eh]
    ---------------------

    Doubly Occupied:

       1A    -15.601019     2A    -15.554217     3A    -11.255825
       4A    -11.250450     5A    -11.239021     6A    -11.205842
       7A     -1.284071     8A     -1.194082     9A     -1.017223
      10A     -0.961664    11A     -0.792221    12A     -0.754509
      13A     -0.730845    14A     -0.654626    15A     -0.608621
      16A     -0.578849    17A     -0.566921    18A     -0.559789
      19A     -0.513679    20A     -0.470084    21A     -0.321340
      22A     -0.276657

  @DF-RHF Final Energy:  -263.93151806801421

   => Energetics <=

    Nuclear Repulsion Energy =            222.1975197870822285
    One-Electron Energy =                -797.4749617487639171
    Two-Electron Energy =                 311.3459238936674751
    Total Energy =                       -263.9315180680142134
  Basis Set: (AUG-CC-PVTZ AUX)
    Blend: AUG-CC-PVTZ-RI
    Molecular point group: c1

    Geometry (in Angstrom), charge = 0, multiplicity = 1:

       Center              X                  Y                   Z               Mass
    ------------   -----------------  -----------------  -----------------  -----------------
         N           -1.410240031114    -0.652532902825     0.013387479580    14.003074004430
         N            2.133456968886     0.012958097175    -0.094348520420    14.003074004430
         C            0.738798268886     0.000912397175     0.004392079580    12.000000000000
         C           -0.110060031114    -1.110616902825     0.016871479580    12.000000000000
         C           -0.113522031114     1.151168097175    -0.001098520420    12.000000000000
         C           -1.426952031114     0.716661097175     0.013064479580    12.000000000000
         H            0.118909968886    -2.167471902825     0.013092479580     1.007825032230
         H            0.215985968886     2.182120097175    -0.024406520420     1.007825032230
         H           -2.229150031114    -1.243641902825     0.030434479580     1.007825032230
         H           -2.356519031114     1.268599097175     0.017422479580     1.007825032230
         H            2.524877968886    -0.889690902825     0.163368479580     1.007825032230
         H            2.533147968886     0.709701097175     0.529331479580     1.007825032230

  Basis Set: AUG-CC-PVTZ
    Blend: AUG-CC-PVTZ
  Basis Set: (AUG-CC-PVTZ AUX)
    Blend: AUG-CC-PVTZ-JKFIT
	 Reference Energy          =    -263.9315180680142134 [Eh]
	 Singles Energy            =      -0.0000000000000000 [Eh]
	 Same-Spin Energy          =      -0.2893106589043026 [Eh]
	 Opposite-Spin Energy      =      -0.8979218912298008 [Eh]
	 Correlation Energy        =      -1.1872325501341034 [Eh]
	 Total Energy              =    -265.1187506181483400 [Eh]

	 ================> DF-SCS-MP2 Energies <==================
	-----------------------------------------------------------
	 SCS Same-Spin Scale       =       0.3333333333333333 [-]
	 SCS Opposite-Spin Scale   =       1.2000000000000000 [-]
	 SCS Same-Spin Energy      =      -0.0964368863014342 [Eh]
	 SCS Opposite-Spin Energy  =      -1.0775062694757609 [Eh]
	 SCS Correlation Energy    =      -1.1739431557771951 [Eh]
	 SCS Total Energy          =    -265.1054612237913943 [Eh]
	-----------------------------------------------------------

  Dipole Moment: [D]
     X:    -0.9588      Y:    -1.2519      Z:     1.1748     Total:     1.9664

*** Psi4 exiting successfully. Buy a developer a beer!
