                               Psi4 1.3.2 release

  ==> Input File <==

--------------------------------------------------------------------------
#psi4
#
memory 32 gb

molecule  {
0 1
  N       -1.4165960    -0.6509490     0.0049700
  N        2.1242042    -0.0843214    -0.1068234
  C        0.7124930     0.0023240    -0.0026130
  C       -0.1164160    -1.1090330     0.0084540
  C       -0.1198780     1.1527520    -0.0095160
  C       -1.4333080     0.7182450     0.0046470
  H        0.1125540    -2.1658880     0.0046750
  H        0.2096300     2.1837040    -0.0328240
  H       -2.2355060    -1.2420580     0.0220170
  H       -2.3628750     1.2701830     0.0090050
  H        2.5185220    -0.8881070     0.1549510
  H        2.5267920     0.7112850     0.5209140
units angstrom
no_reorient  #important for SAPT in psi4, default
symmetry c1  #important for SAPT in psi4, default
}

set PROPERTIES_ORIGIN ["COM"]
properties('MP2/aug-cc-pvtz', properties = ['dipole'])
--------------------------------------------------------------------------

    Molecular point group: c1
  Charge       = 0
  Multiplicity = 1
  Basis Set: AUG-CC-PVTZ
    Blend: AUG-CC-PVTZ
  Basis Set: (AUG-CC-PVTZ AUX)
    Blend: AUG-CC-PVTZ-JKFIT

    Orbital Energies [Eh]
    ---------------------

    Doubly Occupied:

       1A    -15.601448     2A    -15.550309     3A    -11.256898
       4A    -11.249215     5A    -11.236147     6A    -11.207980
       7A     -1.285813     8A     -1.189367     9A     -1.022259
      10A     -0.963411    11A     -0.796374    12A     -0.756826
      13A     -0.730488    14A     -0.661016    15A     -0.592958
      16A     -0.579805    17A     -0.567974    18A     -0.560708
      19A     -0.520131    20A     -0.465488    21A     -0.324060
      22A     -0.277318

  @DF-RHF Final Energy:  -263.92004196483100

   => Energetics <=

    Nuclear Repulsion Energy =            222.4517819207003981
    One-Electron Energy =                -797.9516594811581172
    Two-Electron Energy =                 311.5798355956266619
    Total Energy =                       -263.9200419648310003
  Basis Set: (AUG-CC-PVTZ AUX)
    Blend: AUG-CC-PVTZ-RI
    Molecular point group: c1

    Geometry (in Angstrom), charge = 0, multiplicity = 1:

       Center              X                  Y                   Z               Mass
    ------------   -----------------  -----------------  -----------------  -----------------
         N           -1.406828146482    -0.635635806470     0.013873351209    14.003074004430
         N            2.133972053518    -0.069008206470    -0.097920048791    14.003074004430
         C            0.722260853518     0.017637193530     0.006290351209    12.000000000000
         C           -0.106648146482    -1.093719806470     0.017357351209    12.000000000000
         C           -0.110110146482     1.168065193530    -0.000612648791    12.000000000000
         C           -1.423540146482     0.733558193530     0.013550351209    12.000000000000
         H            0.122321853518    -2.150574806470     0.013578351209     1.007825032230
         H            0.219397853518     2.199017193530    -0.023920648791     1.007825032230
         H           -2.225738146482    -1.226744806470     0.030920351209     1.007825032230
         H           -2.353107146482     1.285496193530     0.017908351209     1.007825032230
         H            2.528289853518    -0.872793806470     0.163854351209     1.007825032230
         H            2.536559853518     0.726598193530     0.529817351209     1.007825032230

  Basis Set: AUG-CC-PVTZ
    Blend: AUG-CC-PVTZ
  Basis Set: (AUG-CC-PVTZ AUX)
    Blend: AUG-CC-PVTZ-JKFIT
	 Reference Energy          =    -263.9200419648310003 [Eh]
	 Singles Energy            =      -0.0000000000000000 [Eh]
	 Same-Spin Energy          =      -0.2892669850565110 [Eh]
	 Opposite-Spin Energy      =      -0.8979675457535772 [Eh]
	 Correlation Energy        =      -1.1872345308100882 [Eh]
	 Total Energy              =    -265.1072764956410879 [Eh]

	 ================> DF-SCS-MP2 Energies <==================
	-----------------------------------------------------------
	 SCS Same-Spin Scale       =       0.3333333333333333 [-]
	 SCS Opposite-Spin Scale   =       1.2000000000000000 [-]
	 SCS Same-Spin Energy      =      -0.0964223283521703 [Eh]
	 SCS Opposite-Spin Energy  =      -1.0775610549042927 [Eh]
	 SCS Correlation Energy    =      -1.1739833832564630 [Eh]
	 SCS Total Energy          =    -265.0940253480874844 [Eh]
	-----------------------------------------------------------

  Dipole Moment: [D]
     X:    -1.0648      Y:    -1.1649      Z:     1.1667     Total:     1.9626

*** Psi4 exiting successfully. Buy a developer a beer!
