                               Psi4 1.3.2 release

  ==> Input File <==

--------------------------------------------------------------------------
#psi4
#
memory 32 gb

molecule  {
0 1
  N       -1.4165960    -0.6509490     0.0049700
  N        2.1265140    -0.0349124    -0.1048570
  C        0.7124930     0.0023240    -0.0026130
  C       -0.1164160    -1.1090330     0.0084540
  C       -0.1198780     1.1527520    -0.0095160
  C       -1.4333080     0.7182450     0.0046470
  H        0.1125540    -2.1658880     0.0046750
  H        0.2096300     2.1837040    -0.0328240
  H       -2.2355060    -1.2420580     0.0220170
  H       -2.3628750     1.2701830     0.0090050
  H        2.5185220    -0.8881070     0.1549510
  H        2.5267920     0.7112850     0.5209140
units angstrom
no_reorient  #important for SAPT in psi4, default
symmetry c1  #important for SAPT in psi4, default
}

set PROPERTIES_ORIGIN ["COM"]
properties('MP2/aug-cc-pvtz', properties = ['dipole'])
--------------------------------------------------------------------------

    Molecular point group: c1
  Charge       = 0
  Multiplicity = 1
  Basis Set: AUG-CC-PVTZ
    Blend: AUG-CC-PVTZ
  Basis Set: (AUG-CC-PVTZ AUX)
    Blend: AUG-CC-PVTZ-JKFIT

    Orbital Energies [Eh]
    ---------------------

    Doubly Occupied:

       1A    -15.601378     2A    -15.551533     3A    -11.256554
       4A    -11.248681     5A    -11.237264     6A    -11.206585
       7A     -1.285763     8A     -1.187472     9A     -1.020868
      10A     -0.963460    11A     -0.794681    12A     -0.753827
      13A     -0.730613    14A     -0.657140    15A     -0.598619
      16A     -0.579823    17A     -0.567987    18A     -0.559751
      19A     -0.520424    20A     -0.465871    21A     -0.323431
      22A     -0.278284

  @DF-RHF Final Energy:  -263.92961888686528

   => Energetics <=

    Nuclear Repulsion Energy =            222.3859325255396584
    One-Electron Energy =                -797.8510843449090544
    Two-Electron Energy =                 311.5355329325040543
    Total Energy =                       -263.9296188868652848
  Basis Set: (AUG-CC-PVTZ AUX)
    Blend: AUG-CC-PVTZ-RI
    Molecular point group: c1

    Geometry (in Angstrom), charge = 0, multiplicity = 1:

       Center              X                  Y                   Z               Mass
    ------------   -----------------  -----------------  -----------------  -----------------
         N           -1.407222333917    -0.644067881537     0.013537767967    14.003074004430
         N            2.135887666083    -0.028031281537    -0.096289232033    14.003074004430
         C            0.721866666083     0.009205118463     0.005954767967    12.000000000000
         C           -0.107042333917    -1.102151881537     0.017021767967    12.000000000000
         C           -0.110504333917     1.159633118463    -0.000948232033    12.000000000000
         C           -1.423934333917     0.725126118463     0.013214767967    12.000000000000
         H            0.121927666083    -2.159006881537     0.013242767967     1.007825032230
         H            0.219003666083     2.190585118463    -0.024256232033     1.007825032230
         H           -2.226132333917    -1.235176881537     0.030584767967     1.007825032230
         H           -2.353501333917     1.277064118463     0.017572767967     1.007825032230
         H            2.527895666083    -0.881225881537     0.163518767967     1.007825032230
         H            2.536165666083     0.718166118463     0.529481767967     1.007825032230

  Basis Set: AUG-CC-PVTZ
    Blend: AUG-CC-PVTZ
  Basis Set: (AUG-CC-PVTZ AUX)
    Blend: AUG-CC-PVTZ-JKFIT
	 Reference Energy          =    -263.9296188868652848 [Eh]
	 Singles Energy            =      -0.0000000000000000 [Eh]
	 Same-Spin Energy          =      -0.2891712731647975 [Eh]
	 Opposite-Spin Energy      =      -0.8977121239878212 [Eh]
	 Correlation Energy        =      -1.1868833971526187 [Eh]
	 Total Energy              =    -265.1165022840178835 [Eh]

	 ================> DF-SCS-MP2 Energies <==================
	-----------------------------------------------------------
	 SCS Same-Spin Scale       =       0.3333333333333333 [-]
	 SCS Opposite-Spin Scale   =       1.2000000000000000 [-]
	 SCS Same-Spin Energy      =      -0.0963904243882658 [Eh]
	 SCS Opposite-Spin Energy  =      -1.0772545487853853 [Eh]
	 SCS Correlation Energy    =      -1.1736449731736511 [Eh]
	 SCS Total Energy          =    -265.1032638600389078 [Eh]
	-----------------------------------------------------------

  Dipole Moment: [D]
     X:    -1.0553      Y:    -1.2104      Z:     1.1723     Total:     1.9883

*** Psi4 exiting successfully. Buy a developer a beer!
