                               Psi4 1.3.2 release

  ==> Input File <==

--------------------------------------------------------------------------
#psi4
#
memory 32 gb

molecule  {
0 1
  N       -1.4165960    -0.6509490     0.0049700
  N        2.1174867     0.1624740    -0.1105030
  C        0.7124930     0.0023240    -0.0026130
  C       -0.1164160    -1.1090330     0.0084540
  C       -0.1198780     1.1527520    -0.0095160
  C       -1.4333080     0.7182450     0.0046470
  H        0.1125540    -2.1658880     0.0046750
  H        0.2096300     2.1837040    -0.0328240
  H       -2.2355060    -1.2420580     0.0220170
  H       -2.3628750     1.2701830     0.0090050
  H        2.5185220    -0.8881070     0.1549510
  H        2.5267920     0.7112850     0.5209140
units angstrom
no_reorient  #important for SAPT in psi4, default
symmetry c1  #important for SAPT in psi4, default
}

set PROPERTIES_ORIGIN ["COM"]
properties('MP2/aug-cc-pvtz', properties = ['dipole'])
--------------------------------------------------------------------------

    Molecular point group: c1
  Charge       = 0
  Multiplicity = 1
  Basis Set: AUG-CC-PVTZ
    Blend: AUG-CC-PVTZ
  Basis Set: (AUG-CC-PVTZ AUX)
    Blend: AUG-CC-PVTZ-JKFIT

    Orbital Energies [Eh]
    ---------------------

    Doubly Occupied:

       1A    -15.602474     2A    -15.559007     3A    -11.256006
       4A    -11.250009     5A    -11.243825     6A    -11.202595
       7A     -1.287135     8A     -1.188794     9A     -1.019379
      10A     -0.966952    11A     -0.791913    12A     -0.760996
      13A     -0.734490    14A     -0.634272    15A     -0.611311
      16A     -0.580956    17A     -0.569138    18A     -0.558403
      19A     -0.501521    20A     -0.469580    21A     -0.322850
      22A     -0.284247

  @DF-RHF Final Energy:  -263.90699621198206

   => Energetics <=

    Nuclear Repulsion Energy =            222.3220148089385191
    One-Electron Energy =                -797.6663150482390847
    Two-Electron Energy =                 311.4373040273184756
    Total Energy =                       -263.9069962119820616
  Basis Set: (AUG-CC-PVTZ AUX)
    Blend: AUG-CC-PVTZ-RI
    Molecular point group: c1

    Geometry (in Angstrom), charge = 0, multiplicity = 1:

       Center              X                  Y                   Z               Mass
    ------------   -----------------  -----------------  -----------------  -----------------
         N           -1.405681746752    -0.677753585394     0.014501306914    14.003074004430
         N            2.128400953248     0.135669414606    -0.100971693086    14.003074004430
         C            0.723407253248    -0.024480585394     0.006918306914    12.000000000000
         C           -0.105501746752    -1.135837585394     0.017985306914    12.000000000000
         C           -0.108963746752     1.125947414606     0.000015306914    12.000000000000
         C           -1.422393746752     0.691440414606     0.014178306914    12.000000000000
         H            0.123468253248    -2.192692585394     0.014206306914     1.007825032230
         H            0.220544253248     2.156899414606    -0.023292693086     1.007825032230
         H           -2.224591746752    -1.268862585394     0.031548306914     1.007825032230
         H           -2.351960746752     1.243378414606     0.018536306914     1.007825032230
         H            2.529436253248    -0.914911585394     0.164482306914     1.007825032230
         H            2.537706253248     0.684480414606     0.530445306914     1.007825032230

  Basis Set: AUG-CC-PVTZ
    Blend: AUG-CC-PVTZ
  Basis Set: (AUG-CC-PVTZ AUX)
    Blend: AUG-CC-PVTZ-JKFIT
	 Reference Energy          =    -263.9069962119820616 [Eh]
	 Singles Energy            =      -0.0000000000000000 [Eh]
	 Same-Spin Energy          =      -0.2895339717183556 [Eh]
	 Opposite-Spin Energy      =      -0.8997128278906810 [Eh]
	 Correlation Energy        =      -1.1892467996090366 [Eh]
	 Total Energy              =    -265.0962430115910706 [Eh]

	 ================> DF-SCS-MP2 Energies <==================
	-----------------------------------------------------------
	 SCS Same-Spin Scale       =       0.3333333333333333 [-]
	 SCS Opposite-Spin Scale   =       1.2000000000000000 [-]
	 SCS Same-Spin Energy      =      -0.0965113239061185 [Eh]
	 SCS Opposite-Spin Energy  =      -1.0796553934688171 [Eh]
	 SCS Correlation Energy    =      -1.1761667173749357 [Eh]
	 SCS Total Energy          =    -265.0831629293570018 [Eh]
	-----------------------------------------------------------

  Dipole Moment: [D]
     X:    -1.1448      Y:    -1.3773      Z:     1.2196     Total:     2.1668

*** Psi4 exiting successfully. Buy a developer a beer!
