                               Psi4 1.3.2 release

  ==> Input File <==

--------------------------------------------------------------------------
#psi4
#
memory 32 gb

molecule  {
0 1
  N       -1.4165960    -0.6509490     0.0049700
  N        2.1271010     0.0145420    -0.1027660
  C        0.7119009     0.0495467    -0.0174494
  C       -0.1164160    -1.1090330     0.0084540
  C       -0.1198780     1.1527520    -0.0095160
  C       -1.4333080     0.7182450     0.0046470
  H        0.1125540    -2.1658880     0.0046750
  H        0.2096300     2.1837040    -0.0328240
  H       -2.2355060    -1.2420580     0.0220170
  H       -2.3628750     1.2701830     0.0090050
  H        2.5185220    -0.8881070     0.1549510
  H        2.5267920     0.7112850     0.5209140
units angstrom
no_reorient  #important for SAPT in psi4, default
symmetry c1  #important for SAPT in psi4, default
}

set PROPERTIES_ORIGIN ["COM"]
properties('MP2/aug-cc-pvtz', properties = ['dipole'])
--------------------------------------------------------------------------

    Molecular point group: c1
  Charge       = 0
  Multiplicity = 1
  Basis Set: AUG-CC-PVTZ
    Blend: AUG-CC-PVTZ
  Basis Set: (AUG-CC-PVTZ AUX)
    Blend: AUG-CC-PVTZ-JKFIT

    Orbital Energies [Eh]
    ---------------------

    Doubly Occupied:

       1A    -15.605719     2A    -15.552341     3A    -11.255078
       4A    -11.249843     5A    -11.240885     6A    -11.203284
       7A     -1.286403     8A     -1.186338     9A     -1.026528
      10A     -0.957423    11A     -0.798740    12A     -0.752375
      13A     -0.729946    14A     -0.652473    15A     -0.603648
      16A     -0.580431    17A     -0.568432    18A     -0.558191
      19A     -0.522342    20A     -0.464448    21A     -0.327924
      22A     -0.272000

  @DF-RHF Final Energy:  -263.92791905073932

   => Energetics <=

    Nuclear Repulsion Energy =            222.3395027855669071
    One-Electron Energy =                -797.7452605637495253
    Two-Electron Energy =                 311.4778387274433271
    Total Energy =                       -263.9279190507393196
  Basis Set: (AUG-CC-PVTZ AUX)
    Blend: AUG-CC-PVTZ-RI
    Molecular point group: c1

    Geometry (in Angstrom), charge = 0, multiplicity = 1:

       Center              X                  Y                   Z               Mass
    ------------   -----------------  -----------------  -----------------  -----------------
         N           -1.407235917858    -0.659413871519     0.015350696126    14.003074004430
         N            2.136461082142     0.006077128481    -0.092385303874    14.003074004430
         C            0.721260982142     0.041081828481    -0.007068703874    12.000000000000
         C           -0.107055917858    -1.117497871519     0.018834696126    12.000000000000
         C           -0.110517917858     1.144287128481     0.000864696126    12.000000000000
         C           -1.423947917858     0.709780128481     0.015027696126    12.000000000000
         H            0.121914082142    -2.174352871519     0.015055696126     1.007825032230
         H            0.218990082142     2.175239128481    -0.022443303874     1.007825032230
         H           -2.226145917858    -1.250522871519     0.032397696126     1.007825032230
         H           -2.353514917858     1.261718128481     0.019385696126     1.007825032230
         H            2.527882082142    -0.896571871519     0.165331696126     1.007825032230
         H            2.536152082142     0.702820128481     0.531294696126     1.007825032230

  Basis Set: AUG-CC-PVTZ
    Blend: AUG-CC-PVTZ
  Basis Set: (AUG-CC-PVTZ AUX)
    Blend: AUG-CC-PVTZ-JKFIT
	 Reference Energy          =    -263.9279190507393196 [Eh]
	 Singles Energy            =      -0.0000000000000000 [Eh]
	 Same-Spin Energy          =      -0.2901546484490951 [Eh]
	 Opposite-Spin Energy      =      -0.8990247173037295 [Eh]
	 Correlation Energy        =      -1.1891793657528245 [Eh]
	 Total Energy              =    -265.1170984164921265 [Eh]

	 ================> DF-SCS-MP2 Energies <==================
	-----------------------------------------------------------
	 SCS Same-Spin Scale       =       0.3333333333333333 [-]
	 SCS Opposite-Spin Scale   =       1.2000000000000000 [-]
	 SCS Same-Spin Energy      =      -0.0967182161496983 [Eh]
	 SCS Opposite-Spin Energy  =      -1.0788296607644754 [Eh]
	 SCS Correlation Energy    =      -1.1755478769141738 [Eh]
	 SCS Total Energy          =    -265.1034669276534714 [Eh]
	-----------------------------------------------------------

  Dipole Moment: [D]
     X:    -1.0697      Y:    -1.2439      Z:     1.1826     Total:     2.0224

*** Psi4 exiting successfully. Buy a developer a beer!
