                               Psi4 1.3.2 release

  ==> Input File <==

--------------------------------------------------------------------------
#psi4
#
memory 32 gb

molecule  {
0 1
  N       -1.4165960    -0.6509490     0.0049700
  N        2.1271010     0.0145420    -0.1027660
  C        0.7119814     0.0259371    -0.0100171
  C       -0.1164160    -1.1090330     0.0084540
  C       -0.1198780     1.1527520    -0.0095160
  C       -1.4333080     0.7182450     0.0046470
  H        0.1125540    -2.1658880     0.0046750
  H        0.2096300     2.1837040    -0.0328240
  H       -2.2355060    -1.2420580     0.0220170
  H       -2.3628750     1.2701830     0.0090050
  H        2.5185220    -0.8881070     0.1549510
  H        2.5267920     0.7112850     0.5209140
units angstrom
no_reorient  #important for SAPT in psi4, default
symmetry c1  #important for SAPT in psi4, default
}

set PROPERTIES_ORIGIN ["COM"]
properties('MP2/aug-cc-pvtz', properties = ['dipole'])
--------------------------------------------------------------------------

    Molecular point group: c1
  Charge       = 0
  Multiplicity = 1
  Basis Set: AUG-CC-PVTZ
    Blend: AUG-CC-PVTZ
  Basis Set: (AUG-CC-PVTZ AUX)
    Blend: AUG-CC-PVTZ-JKFIT

    Orbital Energies [Eh]
    ---------------------

    Doubly Occupied:

       1A    -15.603544     2A    -15.552536     3A    -11.255716
       4A    -11.249194     5A    -11.239746     6A    -11.204334
       7A     -1.286138     8A     -1.186455     9A     -1.023142
      10A     -0.960619    11A     -0.796009    12A     -0.752724
      13A     -0.730753    14A     -0.651944    15A     -0.603665
      16A     -0.580160    17A     -0.568292    18A     -0.558329
      19A     -0.521243    20A     -0.465443    21A     -0.325400
      22A     -0.275668

  @DF-RHF Final Energy:  -263.93087403663918

   => Energetics <=

    Nuclear Repulsion Energy =            222.3443178084345675
    One-Electron Energy =                -797.7682788033592942
    Two-Electron Energy =                 311.4930869582855735
    Total Energy =                       -263.9308740366391817
  Basis Set: (AUG-CC-PVTZ AUX)
    Blend: AUG-CC-PVTZ-RI
    Molecular point group: c1

    Geometry (in Angstrom), charge = 0, multiplicity = 1:

       Center              X                  Y                   Z               Mass
    ------------   -----------------  -----------------  -----------------  -----------------
         N           -1.407247690723    -0.655961043945     0.014263746310    14.003074004430
         N            2.136449309277     0.009529956055    -0.093472253690    14.003074004430
         C            0.721329709277     0.020925056055    -0.000723353690    12.000000000000
         C           -0.107067690723    -1.114045043945     0.017747746310    12.000000000000
         C           -0.110529690723     1.147739956055    -0.000222253690    12.000000000000
         C           -1.423959690723     0.713232956055     0.013940746310    12.000000000000
         H            0.121902309277    -2.170900043945     0.013968746310     1.007825032230
         H            0.218978309277     2.178691956055    -0.023530253690     1.007825032230
         H           -2.226157690723    -1.247070043945     0.031310746310     1.007825032230
         H           -2.353526690723     1.265170956055     0.018298746310     1.007825032230
         H            2.527870309277    -0.893119043945     0.164244746310     1.007825032230
         H            2.536140309277     0.706272956055     0.530207746310     1.007825032230

  Basis Set: AUG-CC-PVTZ
    Blend: AUG-CC-PVTZ
  Basis Set: (AUG-CC-PVTZ AUX)
    Blend: AUG-CC-PVTZ-JKFIT
	 Reference Energy          =    -263.9308740366391817 [Eh]
	 Singles Energy            =      -0.0000000000000000 [Eh]
	 Same-Spin Energy          =      -0.2896433248485953 [Eh]
	 Opposite-Spin Energy      =      -0.8983456109744685 [Eh]
	 Correlation Energy        =      -1.1879889358230638 [Eh]
	 Total Energy              =    -265.1188629724622388 [Eh]

	 ================> DF-SCS-MP2 Energies <==================
	-----------------------------------------------------------
	 SCS Same-Spin Scale       =       0.3333333333333333 [-]
	 SCS Opposite-Spin Scale   =       1.2000000000000000 [-]
	 SCS Same-Spin Energy      =      -0.0965477749495318 [Eh]
	 SCS Opposite-Spin Energy  =      -1.0780147331693621 [Eh]
	 SCS Correlation Energy    =      -1.1745625081188940 [Eh]
	 SCS Total Energy          =    -265.1054365447580494 [Eh]
	-----------------------------------------------------------

  Dipole Moment: [D]
     X:    -1.0652      Y:    -1.2499      Z:     1.1805     Total:     2.0225

*** Psi4 exiting successfully. Buy a developer a beer!
