                               Psi4 1.3.2 release

  ==> Input File <==

--------------------------------------------------------------------------
#psi4
#
memory 32 gb

molecule  {
0 1
  N       -1.4165960    -0.6509490     0.0049700
  N        2.1271010     0.0145420    -0.1027660
  C        0.7245969    -0.1390248     0.0410925
  C       -0.1164160    -1.1090330     0.0084540
  C       -0.1198780     1.1527520    -0.0095160
  C       -1.4333080     0.7182450     0.0046470
  H        0.1125540    -2.1658880     0.0046750
  H        0.2096300     2.1837040    -0.0328240
  H       -2.2355060    -1.2420580     0.0220170
  H       -2.3628750     1.2701830     0.0090050
  H        2.5185220    -0.8881070     0.1549510
  H        2.5267920     0.7112850     0.5209140
units angstrom
no_reorient  #important for SAPT in psi4, default
symmetry c1  #important for SAPT in psi4, default
}

set PROPERTIES_ORIGIN ["COM"]
properties('MP2/aug-cc-pvtz', properties = ['dipole'])
--------------------------------------------------------------------------

    Molecular point group: c1
  Charge       = 0
  Multiplicity = 1
  Basis Set: AUG-CC-PVTZ
    Blend: AUG-CC-PVTZ
  Basis Set: (AUG-CC-PVTZ AUX)
    Blend: AUG-CC-PVTZ-JKFIT

    Orbital Energies [Eh]
    ---------------------

    Doubly Occupied:

       1A    -15.590582     2A    -15.556247     3A    -11.258434
       4A    -11.245175     5A    -11.231811     6A    -11.209980
       7A     -1.284096     8A     -1.189174     9A     -1.007794
      10A     -0.982082    11A     -0.781584    12A     -0.751421
      13A     -0.734304    14A     -0.650366    15A     -0.618078
      16A     -0.579221    17A     -0.568075    18A     -0.562867
      19A     -0.482463    20A     -0.472351    21A     -0.311214
      22A     -0.302350

  @DF-RHF Final Energy:  -263.91441486390215

   => Energetics <=

    Nuclear Repulsion Energy =            222.2885646793366448
    One-Electron Energy =                -797.6666187142328681
    Two-Electron Energy =                 311.4636391709940426
    Total Energy =                       -263.9144148639021523
  Basis Set: (AUG-CC-PVTZ AUX)
    Blend: AUG-CC-PVTZ-RI
    Molecular point group: c1

    Geometry (in Angstrom), charge = 0, multiplicity = 1:

       Center              X                  Y                   Z               Mass
    ------------   -----------------  -----------------  -----------------  -----------------
         N           -1.409092666760    -0.631835900064     0.006789132755    14.003074004430
         N            2.134604333240     0.033655099936    -0.100946867245    14.003074004430
         C            0.732100233240    -0.119911700064     0.042911632755    12.000000000000
         C           -0.108912666760    -1.089919900064     0.010273132755    12.000000000000
         C           -0.112374666760     1.171865099936    -0.007696867245    12.000000000000
         C           -1.425804666760     0.737358099936     0.006466132755    12.000000000000
         H            0.120057333240    -2.146774900064     0.006494132755     1.007825032230
         H            0.217133333240     2.202817099936    -0.031004867245     1.007825032230
         H           -2.228002666760    -1.222944900064     0.023836132755     1.007825032230
         H           -2.355371666760     1.289296099936     0.010824132755     1.007825032230
         H            2.526025333240    -0.868993900064     0.156770132755     1.007825032230
         H            2.534295333240     0.730398099936     0.522733132755     1.007825032230

  Basis Set: AUG-CC-PVTZ
    Blend: AUG-CC-PVTZ
  Basis Set: (AUG-CC-PVTZ AUX)
    Blend: AUG-CC-PVTZ-JKFIT
	 Reference Energy          =    -263.9144148639021523 [Eh]
	 Singles Energy            =      -0.0000000000000000 [Eh]
	 Same-Spin Energy          =      -0.2867521605687795 [Eh]
	 Opposite-Spin Energy      =      -0.8958396132810098 [Eh]
	 Correlation Energy        =      -1.1825917738497893 [Eh]
	 Total Energy              =    -265.0970066377519174 [Eh]

	 ================> DF-SCS-MP2 Energies <==================
	-----------------------------------------------------------
	 SCS Same-Spin Scale       =       0.3333333333333333 [-]
	 SCS Opposite-Spin Scale   =       1.2000000000000000 [-]
	 SCS Same-Spin Energy      =      -0.0955840535229265 [Eh]
	 SCS Opposite-Spin Energy  =      -1.0750075359372118 [Eh]
	 SCS Correlation Energy    =      -1.1705915894601382 [Eh]
	 SCS Total Energy          =    -265.0850064533622685 [Eh]
	-----------------------------------------------------------

  Dipole Moment: [D]
     X:    -0.9515      Y:    -1.2726      Z:     1.1656     Total:     1.9707

*** Psi4 exiting successfully. Buy a developer a beer!
