                               Psi4 1.3.2 release

  ==> Input File <==

--------------------------------------------------------------------------
#psi4
#
memory 32 gb

molecule  {
0 1
  N       -1.4165960    -0.6509490     0.0049700
  N        2.1271010     0.0145420    -0.1027660
  C        0.7188449    -0.0920193     0.0266758
  C       -0.1164160    -1.1090330     0.0084540
  C       -0.1198780     1.1527520    -0.0095160
  C       -1.4333080     0.7182450     0.0046470
  H        0.1125540    -2.1658880     0.0046750
  H        0.2096300     2.1837040    -0.0328240
  H       -2.2355060    -1.2420580     0.0220170
  H       -2.3628750     1.2701830     0.0090050
  H        2.5185220    -0.8881070     0.1549510
  H        2.5267920     0.7112850     0.5209140
units angstrom
no_reorient  #important for SAPT in psi4, default
symmetry c1  #important for SAPT in psi4, default
}

set PROPERTIES_ORIGIN ["COM"]
properties('MP2/aug-cc-pvtz', properties = ['dipole'])
--------------------------------------------------------------------------

    Molecular point group: c1
  Charge       = 0
  Multiplicity = 1
  Basis Set: AUG-CC-PVTZ
    Blend: AUG-CC-PVTZ
  Basis Set: (AUG-CC-PVTZ AUX)
    Blend: AUG-CC-PVTZ-JKFIT

    Orbital Energies [Eh]
    ---------------------

    Doubly Occupied:

       1A    -15.593822     2A    -15.554752     3A    -11.257957
       4A    -11.246106     5A    -11.233947     6A    -11.208738
       7A     -1.284714     8A     -1.188040     9A     -1.009678
      10A     -0.977220    11A     -0.784511    12A     -0.752659
      13A     -0.733722    14A     -0.650344    15A     -0.612203
      16A     -0.579347    17A     -0.567540    18A     -0.562735
      19A     -0.496886    20A     -0.470364    21A     -0.314281
      22A     -0.295054

  @DF-RHF Final Energy:  -263.92565290324762

   => Energetics <=

    Nuclear Repulsion Energy =            222.3223563200340891
    One-Electron Energy =                -797.7467819447581405
    Two-Electron Energy =                 311.4987727214764845
    Total Energy =                       -263.9256529032476237
  Basis Set: (AUG-CC-PVTZ AUX)
    Blend: AUG-CC-PVTZ-RI
    Molecular point group: c1

    Geometry (in Angstrom), charge = 0, multiplicity = 1:

       Center              X                  Y                   Z               Mass
    ------------   -----------------  -----------------  -----------------  -----------------
         N           -1.408251455380    -0.638710302279     0.008897528462    14.003074004430
         N            2.135445544620     0.026780697721    -0.098838471538    14.003074004430
         C            0.727189444620    -0.079780602279     0.030603328462    12.000000000000
         C           -0.108071455380    -1.096794302279     0.012381528462    12.000000000000
         C           -0.111533455380     1.164990697721    -0.005588471538    12.000000000000
         C           -1.424963455380     0.730483697721     0.008574528462    12.000000000000
         H            0.120898544620    -2.153649302279     0.008602528462     1.007825032230
         H            0.217974544620     2.195942697721    -0.028896471538     1.007825032230
         H           -2.227161455380    -1.229819302279     0.025944528462     1.007825032230
         H           -2.354530455380     1.282421697721     0.012932528462     1.007825032230
         H            2.526866544620    -0.875868302279     0.158878528462     1.007825032230
         H            2.535136544620     0.723523697721     0.524841528462     1.007825032230

  Basis Set: AUG-CC-PVTZ
    Blend: AUG-CC-PVTZ
  Basis Set: (AUG-CC-PVTZ AUX)
    Blend: AUG-CC-PVTZ-JKFIT
	 Reference Energy          =    -263.9256529032476237 [Eh]
	 Singles Energy            =      -0.0000000000000000 [Eh]
	 Same-Spin Energy          =      -0.2873951314155612 [Eh]
	 Opposite-Spin Energy      =      -0.8961258522995764 [Eh]
	 Correlation Energy        =      -1.1835209837151375 [Eh]
	 Total Energy              =    -265.1091738869627648 [Eh]

	 ================> DF-SCS-MP2 Energies <==================
	-----------------------------------------------------------
	 SCS Same-Spin Scale       =       0.3333333333333333 [-]
	 SCS Opposite-Spin Scale   =       1.2000000000000000 [-]
	 SCS Same-Spin Energy      =      -0.0957983771385204 [Eh]
	 SCS Opposite-Spin Energy  =      -1.0753510227594916 [Eh]
	 SCS Correlation Energy    =      -1.1711493998980120 [Eh]
	 SCS Total Energy          =    -265.0968023031456369 [Eh]
	-----------------------------------------------------------

  Dipole Moment: [D]
     X:    -0.9979      Y:    -1.2687      Z:     1.1697     Total:     1.9934

*** Psi4 exiting successfully. Buy a developer a beer!
