                               Psi4 1.3.2 release

  ==> Input File <==

--------------------------------------------------------------------------
#psi4
#
memory 32 gb

molecule  {
0 1
  N       -1.4165960    -0.6509490     0.0049700
  N        2.1271010     0.0145420    -0.1027660
  C        0.5129998     0.0006010     0.0115109
  C       -0.1164160    -1.1090330     0.0084540
  C       -0.1198780     1.1527520    -0.0095160
  C       -1.4333080     0.7182450     0.0046470
  H        0.1125540    -2.1658880     0.0046750
  H        0.2096300     2.1837040    -0.0328240
  H       -2.2355060    -1.2420580     0.0220170
  H       -2.3628750     1.2701830     0.0090050
  H        2.5185220    -0.8881070     0.1549510
  H        2.5267920     0.7112850     0.5209140
units angstrom
no_reorient  #important for SAPT in psi4, default
symmetry c1  #important for SAPT in psi4, default
}

set PROPERTIES_ORIGIN ["COM"]
properties('MP2/aug-cc-pvtz', properties = ['dipole'])
--------------------------------------------------------------------------

    Molecular point group: c1
  Charge       = 0
  Multiplicity = 1
  Basis Set: AUG-CC-PVTZ
    Blend: AUG-CC-PVTZ
  Basis Set: (AUG-CC-PVTZ AUX)
    Blend: AUG-CC-PVTZ-JKFIT

    Orbital Energies [Eh]
    ---------------------

    Doubly Occupied:

       1A    -15.605028     2A    -15.537057     3A    -11.262894
       4A    -11.236366     5A    -11.232594     6A    -11.201752
       7A     -1.310694     8A     -1.131520     9A     -1.043637
      10A     -0.987438    11A     -0.809362    12A     -0.753821
      13A     -0.728187    14A     -0.625358    15A     -0.599171
      16A     -0.593717    17A     -0.587841    18A     -0.560091
      19A     -0.505459    20A     -0.428695    21A     -0.340882
      22A     -0.301388

  @DF-RHF Final Energy:  -263.88079218360105

   => Energetics <=

    Nuclear Repulsion Energy =            224.2838904311186354
    One-Electron Energy =                -801.5634580478181306
    Two-Electron Energy =                 313.3987754330984785
    Total Energy =                       -263.8807921836010451
  Basis Set: (AUG-CC-PVTZ AUX)
    Blend: AUG-CC-PVTZ-RI
    Molecular point group: c1

    Geometry (in Angstrom), charge = 0, multiplicity = 1:

       Center              X                  Y                   Z               Mass
    ------------   -----------------  -----------------  -----------------  -----------------
         N           -1.378147275841    -0.652255721335     0.011115345997    14.003074004430
         N            2.165549724159     0.013235278665    -0.096620654003    14.003074004430
         C            0.551448524159    -0.000705721335     0.017656245997    12.000000000000
         C           -0.077967275841    -1.110339721335     0.014599345997    12.000000000000
         C           -0.081429275841     1.151445278665    -0.003370654003    12.000000000000
         C           -1.394859275841     0.716938278665     0.010792345997    12.000000000000
         H            0.151002724159    -2.167194721335     0.010820345997     1.007825032230
         H            0.248078724159     2.182397278665    -0.026678654003     1.007825032230
         H           -2.197057275841    -1.243364721335     0.028162345997     1.007825032230
         H           -2.324426275841     1.268876278665     0.015150345997     1.007825032230
         H            2.556970724159    -0.889413721335     0.161096345997     1.007825032230
         H            2.565240724159     0.709978278665     0.527059345997     1.007825032230

  Basis Set: AUG-CC-PVTZ
    Blend: AUG-CC-PVTZ
  Basis Set: (AUG-CC-PVTZ AUX)
    Blend: AUG-CC-PVTZ-JKFIT
	 Reference Energy          =    -263.8807921836010451 [Eh]
	 Singles Energy            =      -0.0000000000000000 [Eh]
	 Same-Spin Energy          =      -0.2896351170599600 [Eh]
	 Opposite-Spin Energy      =      -0.8992264254993692 [Eh]
	 Correlation Energy        =      -1.1888615425593292 [Eh]
	 Total Energy              =    -265.0696537261603680 [Eh]

	 ================> DF-SCS-MP2 Energies <==================
	-----------------------------------------------------------
	 SCS Same-Spin Scale       =       0.3333333333333333 [-]
	 SCS Opposite-Spin Scale   =       1.2000000000000000 [-]
	 SCS Same-Spin Energy      =      -0.0965450390199867 [Eh]
	 SCS Opposite-Spin Energy  =      -1.0790717105992429 [Eh]
	 SCS Correlation Energy    =      -1.1756167496192296 [Eh]
	 SCS Total Energy          =    -265.0564089332202684 [Eh]
	-----------------------------------------------------------

  Dipole Moment: [D]
     X:    -1.9415      Y:    -1.2573      Z:     1.2000     Total:     2.6058

*** Psi4 exiting successfully. Buy a developer a beer!
