                               Psi4 1.3.2 release

  ==> Input File <==

--------------------------------------------------------------------------
#psi4
#
memory 32 gb

molecule  {
0 1
  N       -1.4165960    -0.6509490     0.0049700
  N        2.1268619    -0.0348787    -0.0999386
  C        0.7124930     0.0023240    -0.0026130
  C       -0.1164160    -1.1090330     0.0084540
  C       -0.1198780     1.1527520    -0.0095160
  C       -1.4333080     0.7182450     0.0046470
  H        0.1125540    -2.1658880     0.0046750
  H        0.2096300     2.1837040    -0.0328240
  H       -2.2355060    -1.2420580     0.0220170
  H       -2.3628750     1.2701830     0.0090050
  H        2.5185220    -0.8881070     0.1549510
  H        2.5267920     0.7112850     0.5209140
units angstrom
no_reorient  #important for SAPT in psi4, default
symmetry c1  #important for SAPT in psi4, default
}

set PROPERTIES_ORIGIN ["COM"]
properties('MP2/aug-cc-pvtz', properties = ['dipole'])
--------------------------------------------------------------------------

    Molecular point group: c1
  Charge       = 0
  Multiplicity = 1
  Basis Set: AUG-CC-PVTZ
    Blend: AUG-CC-PVTZ
  Basis Set: (AUG-CC-PVTZ AUX)
    Blend: AUG-CC-PVTZ-JKFIT

    Orbital Energies [Eh]
    ---------------------

    Doubly Occupied:

       1A    -15.601322     2A    -15.550952     3A    -11.256526
       4A    -11.248736     5A    -11.237166     6A    -11.206550
       7A     -1.285713     8A     -1.187721     9A     -1.020920
      10A     -0.963479    11A     -0.794707    12A     -0.753942
      13A     -0.730661    14A     -0.658169    15A     -0.598846
      16A     -0.579766    17A     -0.567984    18A     -0.559832
      19A     -0.520645    20A     -0.465595    21A     -0.323337
      22A     -0.278123

  @DF-RHF Final Energy:  -263.92984789769133

   => Energetics <=

    Nuclear Repulsion Energy =            222.4001000622487823
    One-Electron Energy =                -797.8785087812624397
    Two-Electron Energy =                 311.5485608213223827
    Total Energy =                       -263.9298478976913316
  Basis Set: (AUG-CC-PVTZ AUX)
    Blend: AUG-CC-PVTZ-RI
    Molecular point group: c1

    Geometry (in Angstrom), charge = 0, multiplicity = 1:

       Center              X                  Y                   Z               Mass
    ------------   -----------------  -----------------  -----------------  -----------------
         N           -1.407281706074    -0.644073632734     0.012698400281    14.003074004430
         N            2.136176193926    -0.028003332734    -0.092210199719    14.003074004430
         C            0.721807293926     0.009199367266     0.005115400281    12.000000000000
         C           -0.107101706074    -1.102157632734     0.016182400281    12.000000000000
         C           -0.110563706074     1.159627367266    -0.001787599719    12.000000000000
         C           -1.423993706074     0.725120367266     0.012375400281    12.000000000000
         H            0.121868293926    -2.159012632734     0.012403400281     1.007825032230
         H            0.218944293926     2.190579367266    -0.025095599719     1.007825032230
         H           -2.226191706074    -1.235182632734     0.029745400281     1.007825032230
         H           -2.353560706074     1.277058367266     0.016733400281     1.007825032230
         H            2.527836293926    -0.881231632734     0.162679400281     1.007825032230
         H            2.536106293926     0.718160367266     0.528642400281     1.007825032230

  Basis Set: AUG-CC-PVTZ
    Blend: AUG-CC-PVTZ
  Basis Set: (AUG-CC-PVTZ AUX)
    Blend: AUG-CC-PVTZ-JKFIT
	 Reference Energy          =    -263.9298478976913316 [Eh]
	 Singles Energy            =      -0.0000000000000000 [Eh]
	 Same-Spin Energy          =      -0.2891467833205146 [Eh]
	 Opposite-Spin Energy      =      -0.8976182164469451 [Eh]
	 Correlation Energy        =      -1.1867649997674596 [Eh]
	 Total Energy              =    -265.1166128974587650 [Eh]

	 ================> DF-SCS-MP2 Energies <==================
	-----------------------------------------------------------
	 SCS Same-Spin Scale       =       0.3333333333333333 [-]
	 SCS Opposite-Spin Scale   =       1.2000000000000000 [-]
	 SCS Same-Spin Energy      =      -0.0963822611068382 [Eh]
	 SCS Opposite-Spin Energy  =      -1.0771418597363340 [Eh]
	 SCS Correlation Energy    =      -1.1735241208431721 [Eh]
	 SCS Total Energy          =    -265.1033720185345146 [Eh]
	-----------------------------------------------------------

  Dipole Moment: [D]
     X:    -1.0493      Y:    -1.2090      Z:     1.1649     Total:     1.9798

*** Psi4 exiting successfully. Buy a developer a beer!
