                               Psi4 1.3.2 release

  ==> Input File <==

--------------------------------------------------------------------------
#psi4
#
memory 32 gb

molecule  {
0 1
  N       -1.4165960    -0.6509490     0.0049700
  N        2.1248996    -0.0842540    -0.0969927
  C        0.7124930     0.0023240    -0.0026130
  C       -0.1164160    -1.1090330     0.0084540
  C       -0.1198780     1.1527520    -0.0095160
  C       -1.4333080     0.7182450     0.0046470
  H        0.1125540    -2.1658880     0.0046750
  H        0.2096300     2.1837040    -0.0328240
  H       -2.2355060    -1.2420580     0.0220170
  H       -2.3628750     1.2701830     0.0090050
  H        2.5185220    -0.8881070     0.1549510
  H        2.5267920     0.7112850     0.5209140
units angstrom
no_reorient  #important for SAPT in psi4, default
symmetry c1  #important for SAPT in psi4, default
}

set PROPERTIES_ORIGIN ["COM"]
properties('MP2/aug-cc-pvtz', properties = ['dipole'])
--------------------------------------------------------------------------

    Molecular point group: c1
  Charge       = 0
  Multiplicity = 1
  Basis Set: AUG-CC-PVTZ
    Blend: AUG-CC-PVTZ
  Basis Set: (AUG-CC-PVTZ AUX)
    Blend: AUG-CC-PVTZ-JKFIT

    Orbital Energies [Eh]
    ---------------------

    Doubly Occupied:

       1A    -15.601334     2A    -15.549165     3A    -11.256838
       4A    -11.249315     5A    -11.235940     6A    -11.207912
       7A     -1.285708     8A     -1.189836     9A     -1.022352
      10A     -0.963436    11A     -0.796478    12A     -0.757040
      13A     -0.730511    14A     -0.662927    15A     -0.593399
      16A     -0.579681    17A     -0.567960    18A     -0.560910
      19A     -0.520656    20A     -0.464941    21A     -0.323874
      22A     -0.276983

  @DF-RHF Final Energy:  -263.92041669637518

   => Energetics <=

    Nuclear Repulsion Energy =            222.4796773224590538
    One-Electron Energy =                -798.0057987442390868
    Two-Electron Energy =                 311.6057047254049053
    Total Energy =                       -263.9204166963751845
  Basis Set: (AUG-CC-PVTZ AUX)
    Blend: AUG-CC-PVTZ-RI
    Molecular point group: c1

    Geometry (in Angstrom), charge = 0, multiplicity = 1:

       Center              X                  Y                   Z               Mass
    ------------   -----------------  -----------------  -----------------  -----------------
         N           -1.406946822533    -0.635647308865     0.012195656855    14.003074004430
         N            2.134548777467    -0.068952308865    -0.089767043145    14.003074004430
         C            0.722142177467     0.017625691135     0.004612656855    12.000000000000
         C           -0.106766822533    -1.093731308865     0.015679656855    12.000000000000
         C           -0.110228822533     1.168053691135    -0.002290343145    12.000000000000
         C           -1.423658822533     0.733546691135     0.011872656855    12.000000000000
         H            0.122203177467    -2.150586308865     0.011900656855     1.007825032230
         H            0.219279177467     2.199005691135    -0.025598343145     1.007825032230
         H           -2.225856822533    -1.226756308865     0.029242656855     1.007825032230
         H           -2.353225822533     1.285484691135     0.016230656855     1.007825032230
         H            2.528171177467    -0.872805308865     0.162176656855     1.007825032230
         H            2.536441177467     0.726586691135     0.528139656855     1.007825032230

  Basis Set: AUG-CC-PVTZ
    Blend: AUG-CC-PVTZ
  Basis Set: (AUG-CC-PVTZ AUX)
    Blend: AUG-CC-PVTZ-JKFIT
	 Reference Energy          =    -263.9204166963751845 [Eh]
	 Singles Energy            =      -0.0000000000000000 [Eh]
	 Same-Spin Energy          =      -0.2892224656236912 [Eh]
	 Opposite-Spin Energy      =      -0.8977834337315937 [Eh]
	 Correlation Energy        =      -1.1870058993552850 [Eh]
	 Total Energy              =    -265.1074225957304975 [Eh]

	 ================> DF-SCS-MP2 Energies <==================
	-----------------------------------------------------------
	 SCS Same-Spin Scale       =       0.3333333333333333 [-]
	 SCS Opposite-Spin Scale   =       1.2000000000000000 [-]
	 SCS Same-Spin Energy      =      -0.0964074885412304 [Eh]
	 SCS Opposite-Spin Energy  =      -1.0773401204779125 [Eh]
	 SCS Correlation Energy    =      -1.1737476090191430 [Eh]
	 SCS Total Energy          =    -265.0941643053943153 [Eh]
	-----------------------------------------------------------

  Dipole Moment: [D]
     X:    -1.0525      Y:    -1.1611      Z:     1.1514     Total:     1.9446

*** Psi4 exiting successfully. Buy a developer a beer!
