                               Psi4 1.3.2 release

  ==> Input File <==

--------------------------------------------------------------------------
#psi4
#
memory 32 gb

molecule  {
0 1
  N       -1.4165960    -0.6509490     0.0049700
  N        2.1271010     0.0145420    -0.1027660
  C        0.7134355    -0.0212854     0.0047606
  C       -0.1164160    -1.1090330     0.0084540
  C       -0.1198780     1.1527520    -0.0095160
  C       -1.4333080     0.7182450     0.0046470
  H        0.1125540    -2.1658880     0.0046750
  H        0.2096300     2.1837040    -0.0328240
  H       -2.2355060    -1.2420580     0.0220170
  H       -2.3628750     1.2701830     0.0090050
  H        2.5185220    -0.8881070     0.1549510
  H        2.5267920     0.7112850     0.5209140
units angstrom
no_reorient  #important for SAPT in psi4, default
symmetry c1  #important for SAPT in psi4, default
}

set PROPERTIES_ORIGIN ["COM"]
properties('MP2/aug-cc-pvtz', properties = ['dipole'])
--------------------------------------------------------------------------

    Molecular point group: c1
  Charge       = 0
  Multiplicity = 1
  Basis Set: AUG-CC-PVTZ
    Blend: AUG-CC-PVTZ
  Basis Set: (AUG-CC-PVTZ AUX)
    Blend: AUG-CC-PVTZ-JKFIT

    Orbital Energies [Eh]
    ---------------------

    Doubly Occupied:

       1A    -15.599399     2A    -15.553170     3A    -11.256799
       4A    -11.247898     5A    -11.237413     6A    -11.206287
       7A     -1.285587     8A     -1.186884     9A     -1.016887
      10A     -0.967326    11A     -0.790861    12A     -0.753132
      13A     -0.732171    14A     -0.651093    15A     -0.605499
      16A     -0.579732    17A     -0.567916    18A     -0.560120
      19A     -0.514477    20A     -0.467379    21A     -0.320617
      22A     -0.283282

  @DF-RHF Final Energy:  -263.93278490687266

   => Energetics <=

    Nuclear Repulsion Energy =            222.3450551263889849
    One-Electron Energy =                -797.7878214648314952
    Two-Electron Energy =                 311.5099814315698836
    Total Energy =                       -263.9327849068726550
  Basis Set: (AUG-CC-PVTZ AUX)
    Blend: AUG-CC-PVTZ-RI
    Molecular point group: c1

    Geometry (in Angstrom), charge = 0, multiplicity = 1:

       Center              X                  Y                   Z               Mass
    ------------   -----------------  -----------------  -----------------  -----------------
         N           -1.407460348141    -0.649054906183     0.012102555521    14.003074004430
         N            2.136236651859     0.016436093817    -0.095633444479    14.003074004430
         C            0.722571151859    -0.019391306183     0.011893155521    12.000000000000
         C           -0.107280348141    -1.107138906183     0.015586555521    12.000000000000
         C           -0.110742348141     1.154646093817    -0.002383444479    12.000000000000
         C           -1.424172348141     0.720139093817     0.011779555521    12.000000000000
         H            0.121689651859    -2.163993906183     0.011807555521     1.007825032230
         H            0.218765651859     2.185598093817    -0.025691444479     1.007825032230
         H           -2.226370348141    -1.240163906183     0.029149555521     1.007825032230
         H           -2.353739348141     1.272077093817     0.016137555521     1.007825032230
         H            2.527657651859    -0.886212906183     0.162083555521     1.007825032230
         H            2.535927651859     0.713179093817     0.528046555521     1.007825032230

  Basis Set: AUG-CC-PVTZ
    Blend: AUG-CC-PVTZ
  Basis Set: (AUG-CC-PVTZ AUX)
    Blend: AUG-CC-PVTZ-JKFIT
	 Reference Energy          =    -263.9327849068726550 [Eh]
	 Singles Energy            =      -0.0000000000000000 [Eh]
	 Same-Spin Energy          =      -0.2886638566596418 [Eh]
	 Opposite-Spin Energy      =      -0.8972109942228987 [Eh]
	 Correlation Energy        =      -1.1858748508825405 [Eh]
	 Total Energy              =    -265.1186597577552106 [Eh]

	 ================> DF-SCS-MP2 Energies <==================
	-----------------------------------------------------------
	 SCS Same-Spin Scale       =       0.3333333333333333 [-]
	 SCS Opposite-Spin Scale   =       1.2000000000000000 [-]
	 SCS Same-Spin Energy      =      -0.0962212855532139 [Eh]
	 SCS Opposite-Spin Energy  =      -1.0766531930674785 [Eh]
	 SCS Correlation Energy    =      -1.1728744786206924 [Eh]
	 SCS Total Energy          =    -265.1056593854933681 [Eh]
	-----------------------------------------------------------

  Dipole Moment: [D]
     X:    -1.0471      Y:    -1.2593      Z:     1.1762     Total:     2.0164

*** Psi4 exiting successfully. Buy a developer a beer!
