                               Psi4 1.3.2 release

  ==> Input File <==

--------------------------------------------------------------------------
#psi4
#
memory 32 gb

molecule  {
0 1
  N       -1.4165960    -0.6509490     0.0049700
  N        2.1224106     0.1132785    -0.1080514
  C        0.7124930     0.0023240    -0.0026130
  C       -0.1164160    -1.1090330     0.0084540
  C       -0.1198780     1.1527520    -0.0095160
  C       -1.4333080     0.7182450     0.0046470
  H        0.1125540    -2.1658880     0.0046750
  H        0.2096300     2.1837040    -0.0328240
  H       -2.2355060    -1.2420580     0.0220170
  H       -2.3628750     1.2701830     0.0090050
  H        2.5185220    -0.8881070     0.1549510
  H        2.5267920     0.7112850     0.5209140
units angstrom
no_reorient  #important for SAPT in psi4, default
symmetry c1  #important for SAPT in psi4, default
}

set PROPERTIES_ORIGIN ["COM"]
properties('MP2/aug-cc-pvtz', properties = ['dipole'])
--------------------------------------------------------------------------

    Molecular point group: c1
  Charge       = 0
  Multiplicity = 1
  Basis Set: AUG-CC-PVTZ
    Blend: AUG-CC-PVTZ
  Basis Set: (AUG-CC-PVTZ AUX)
    Blend: AUG-CC-PVTZ-JKFIT

    Orbital Energies [Eh]
    ---------------------

    Doubly Occupied:

       1A    -15.602017     2A    -15.556800     3A    -11.256033
       4A    -11.249211     5A    -11.241936     6A    -11.203362
       7A     -1.286587     8A     -1.187281     9A     -1.019167
      10A     -0.965756    11A     -0.791910    12A     -0.756999
      13A     -0.733684    14A     -0.637378    15A     -0.611992
      16A     -0.580525    17A     -0.568703    18A     -0.558416
      19A     -0.508719    20A     -0.468497    21A     -0.322713
      22A     -0.282516

  @DF-RHF Final Energy:  -263.92030991169167

   => Energetics <=

    Nuclear Repulsion Energy =            222.3092974253750924
    One-Electron Energy =                -797.6788107693467964
    Two-Electron Energy =                 311.4492034322800009
    Total Energy =                       -263.9203099116916746
  Basis Set: (AUG-CC-PVTZ AUX)
    Blend: AUG-CC-PVTZ-RI
    Molecular point group: c1

    Geometry (in Angstrom), charge = 0, multiplicity = 1:

       Center              X                  Y                   Z               Mass
    ------------   -----------------  -----------------  -----------------  -----------------
         N           -1.406522053061    -0.669357945958     0.014082920077    14.003074004430
         N            2.132484546939     0.094869554042    -0.098938479923    14.003074004430
         C            0.722566946939    -0.016084945958     0.006499920077    12.000000000000
         C           -0.106342053061    -1.127441945958     0.017566920077    12.000000000000
         C           -0.109804053061     1.134343054042    -0.000403079923    12.000000000000
         C           -1.423234053061     0.699836054042     0.013759920077    12.000000000000
         H            0.122627946939    -2.184296945958     0.013787920077     1.007825032230
         H            0.219703946939     2.165295054042    -0.023711079923     1.007825032230
         H           -2.225432053061    -1.260466945958     0.031129920077     1.007825032230
         H           -2.352801053061     1.251774054042     0.018117920077     1.007825032230
         H            2.528595946939    -0.906515945958     0.164063920077     1.007825032230
         H            2.536865946939     0.692876054042     0.530026920077     1.007825032230

  Basis Set: AUG-CC-PVTZ
    Blend: AUG-CC-PVTZ
  Basis Set: (AUG-CC-PVTZ AUX)
    Blend: AUG-CC-PVTZ-JKFIT
	 Reference Energy          =    -263.9203099116916746 [Eh]
	 Singles Energy            =      -0.0000000000000000 [Eh]
	 Same-Spin Energy          =      -0.2893418468471545 [Eh]
	 Opposite-Spin Energy      =      -0.8988017815194418 [Eh]
	 Correlation Energy        =      -1.1881436283665963 [Eh]
	 Total Energy              =    -265.1084535400582922 [Eh]

	 ================> DF-SCS-MP2 Energies <==================
	-----------------------------------------------------------
	 SCS Same-Spin Scale       =       0.3333333333333333 [-]
	 SCS Opposite-Spin Scale   =       1.2000000000000000 [-]
	 SCS Same-Spin Energy      =      -0.0964472822823848 [Eh]
	 SCS Opposite-Spin Energy  =      -1.0785621378233301 [Eh]
	 SCS Correlation Energy    =      -1.1750094201057149 [Eh]
	 SCS Total Energy          =    -265.0953193317973842 [Eh]
	-----------------------------------------------------------

  Dipole Moment: [D]
     X:    -1.1066      Y:    -1.3394      Z:     1.2058     Total:     2.1148

*** Psi4 exiting successfully. Buy a developer a beer!
