                               Psi4 1.3.2 release

  ==> Input File <==

--------------------------------------------------------------------------
#psi4
#
memory 32 gb

molecule  {
0 1
  N       -1.4165960    -0.6509490     0.0049700
  N        2.1271010     0.0145420    -0.1027660
  C        0.8122396     0.0031855    -0.0096750
  C       -0.1164160    -1.1090330     0.0084540
  C       -0.1198780     1.1527520    -0.0095160
  C       -1.4333080     0.7182450     0.0046470
  H        0.1125540    -2.1658880     0.0046750
  H        0.2096300     2.1837040    -0.0328240
  H       -2.2355060    -1.2420580     0.0220170
  H       -2.3628750     1.2701830     0.0090050
  H        2.5185220    -0.8881070     0.1549510
  H        2.5267920     0.7112850     0.5209140
units angstrom
no_reorient  #important for SAPT in psi4, default
symmetry c1  #important for SAPT in psi4, default
}

set PROPERTIES_ORIGIN ["COM"]
properties('MP2/aug-cc-pvtz', properties = ['dipole'])
--------------------------------------------------------------------------

    Molecular point group: c1
  Charge       = 0
  Multiplicity = 1
  Basis Set: AUG-CC-PVTZ
    Blend: AUG-CC-PVTZ
  Basis Set: (AUG-CC-PVTZ AUX)
    Blend: AUG-CC-PVTZ-JKFIT

    Orbital Energies [Eh]
    ---------------------

    Doubly Occupied:

       1A    -15.598896     2A    -15.560345     3A    -11.258844
       4A    -11.254115     5A    -11.239879     6A    -11.207729
       7A     -1.278419     8A     -1.227491     9A     -1.006377
      10A     -0.952174    11A     -0.789446    12A     -0.762824
      13A     -0.727460    14A     -0.668112    15A     -0.626617
      16A     -0.573768    17A     -0.563465    18A     -0.560982
      19A     -0.501796    20A     -0.475667    21A     -0.315435
      22A     -0.264273

  @DF-RHF Final Energy:  -263.91479650296833

   => Energetics <=

    Nuclear Repulsion Energy =            221.7043609208815838
    One-Electron Energy =                -796.4100826251831222
    Two-Electron Energy =                 310.7909252013332662
    Total Energy =                       -263.9147965029683292
  Basis Set: (AUG-CC-PVTZ AUX)
    Blend: AUG-CC-PVTZ-RI
    Molecular point group: c1

    Geometry (in Angstrom), charge = 0, multiplicity = 1:

       Center              X                  Y                   Z               Mass
    ------------   -----------------  -----------------  -----------------  -----------------
         N           -1.421910127929    -0.652633696094     0.014213715292    14.003074004430
         N            2.121786872071     0.012857303906    -0.093522284708    14.003074004430
         C            0.806925472071     0.001500803906    -0.000431284708    12.000000000000
         C           -0.121730127929    -1.110717696094     0.017697715292    12.000000000000
         C           -0.125192127929     1.151067303906    -0.000272284708    12.000000000000
         C           -1.438622127929     0.716560303906     0.013890715292    12.000000000000
         H            0.107239872071    -2.167572696094     0.013918715292     1.007825032230
         H            0.204315872071     2.182019303906    -0.023580284708     1.007825032230
         H           -2.240820127929    -1.243742696094     0.031260715292     1.007825032230
         H           -2.368189127929     1.268498303906     0.018248715292     1.007825032230
         H            2.513207872071    -0.889791696094     0.164194715292     1.007825032230
         H            2.521477872071     0.709600303906     0.530157715292     1.007825032230

  Basis Set: AUG-CC-PVTZ
    Blend: AUG-CC-PVTZ
  Basis Set: (AUG-CC-PVTZ AUX)
    Blend: AUG-CC-PVTZ-JKFIT
	 Reference Energy          =    -263.9147965029683292 [Eh]
	 Singles Energy            =      -0.0000000000000000 [Eh]
	 Same-Spin Energy          =      -0.2903354517526429 [Eh]
	 Opposite-Spin Energy      =      -0.8992315092673500 [Eh]
	 Correlation Energy        =      -1.1895669610199928 [Eh]
	 Total Energy              =    -265.1043634639883066 [Eh]

	 ================> DF-SCS-MP2 Energies <==================
	-----------------------------------------------------------
	 SCS Same-Spin Scale       =       0.3333333333333333 [-]
	 SCS Opposite-Spin Scale   =       1.2000000000000000 [-]
	 SCS Same-Spin Energy      =      -0.0967784839175476 [Eh]
	 SCS Opposite-Spin Energy  =      -1.0790778111208199 [Eh]
	 SCS Correlation Energy    =      -1.1758562950383675 [Eh]
	 SCS Total Energy          =    -265.0906527980067153 [Eh]
	-----------------------------------------------------------

  Dipole Moment: [D]
     X:    -0.5253      Y:    -1.2359      Z:     1.1565     Total:     1.7723

*** Psi4 exiting successfully. Buy a developer a beer!
