                               Psi4 1.3.2 release

  ==> Input File <==

--------------------------------------------------------------------------
#psi4
#
memory 32 gb

molecule  {
0 1
  N       -1.4165960    -0.6509490     0.0049700
  N        2.1231060     0.1133459    -0.0982207
  C        0.7124930     0.0023240    -0.0026130
  C       -0.1164160    -1.1090330     0.0084540
  C       -0.1198780     1.1527520    -0.0095160
  C       -1.4333080     0.7182450     0.0046470
  H        0.1125540    -2.1658880     0.0046750
  H        0.2096300     2.1837040    -0.0328240
  H       -2.2355060    -1.2420580     0.0220170
  H       -2.3628750     1.2701830     0.0090050
  H        2.5185220    -0.8881070     0.1549510
  H        2.5267920     0.7112850     0.5209140
units angstrom
no_reorient  #important for SAPT in psi4, default
symmetry c1  #important for SAPT in psi4, default
}

set PROPERTIES_ORIGIN ["COM"]
properties('MP2/aug-cc-pvtz', properties = ['dipole'])
--------------------------------------------------------------------------

    Molecular point group: c1
  Charge       = 0
  Multiplicity = 1
  Basis Set: AUG-CC-PVTZ
    Blend: AUG-CC-PVTZ
  Basis Set: (AUG-CC-PVTZ AUX)
    Blend: AUG-CC-PVTZ-JKFIT

    Orbital Energies [Eh]
    ---------------------

    Doubly Occupied:

       1A    -15.601924     2A    -15.555559     3A    -11.255990
       4A    -11.249375     5A    -11.241787     6A    -11.203297
       7A     -1.286510     8A     -1.187960     9A     -1.019367
      10A     -0.965860    11A     -0.791909    12A     -0.757815
      13A     -0.733851    14A     -0.639407    15A     -0.612102
      16A     -0.580441    17A     -0.568737    18A     -0.558469
      19A     -0.509133    20A     -0.467939    21A     -0.322526
      22A     -0.282243

  @DF-RHF Final Energy:  -263.92008270016453

   => Energetics <=

    Nuclear Repulsion Energy =            222.3410313378200271
    One-Electron Energy =                -797.7378313350255894
    Two-Electron Energy =                 311.4767172970410343
    Total Energy =                       -263.9200827001645280
  Basis Set: (AUG-CC-PVTZ AUX)
    Blend: AUG-CC-PVTZ-RI
    Molecular point group: c1

    Geometry (in Angstrom), charge = 0, multiplicity = 1:

       Center              X                  Y                   Z               Mass
    ------------   -----------------  -----------------  -----------------  -----------------
         N           -1.406640729112    -0.669369448353     0.012405225722    14.003074004430
         N            2.133061270888     0.094925451647    -0.090785474278    14.003074004430
         C            0.722448270888    -0.016096448353     0.004822225722    12.000000000000
         C           -0.106460729112    -1.127453448353     0.015889225722    12.000000000000
         C           -0.109922729112     1.134331551647    -0.002080774278    12.000000000000
         C           -1.423352729112     0.699824551647     0.012082225722    12.000000000000
         H            0.122509270888    -2.184308448353     0.012110225722     1.007825032230
         H            0.219585270888     2.165283551647    -0.025388774278     1.007825032230
         H           -2.225550729112    -1.260478448353     0.029452225722     1.007825032230
         H           -2.352919729112     1.251762551647     0.016440225722     1.007825032230
         H            2.528477270888    -0.906527448353     0.162386225722     1.007825032230
         H            2.536747270888     0.692864551647     0.528349225722     1.007825032230

  Basis Set: AUG-CC-PVTZ
    Blend: AUG-CC-PVTZ
  Basis Set: (AUG-CC-PVTZ AUX)
    Blend: AUG-CC-PVTZ-JKFIT
	 Reference Energy          =    -263.9200827001645280 [Eh]
	 Singles Energy            =      -0.0000000000000000 [Eh]
	 Same-Spin Energy          =      -0.2892857477929896 [Eh]
	 Opposite-Spin Energy      =      -0.8986152170373524 [Eh]
	 Correlation Energy        =      -1.1879009648303420 [Eh]
	 Total Energy              =    -265.1079836649948902 [Eh]

	 ================> DF-SCS-MP2 Energies <==================
	-----------------------------------------------------------
	 SCS Same-Spin Scale       =       0.3333333333333333 [-]
	 SCS Opposite-Spin Scale   =       1.2000000000000000 [-]
	 SCS Same-Spin Energy      =      -0.0964285825976632 [Eh]
	 SCS Opposite-Spin Energy  =      -1.0783382604448228 [Eh]
	 SCS Correlation Energy    =      -1.1747668430424860 [Eh]
	 SCS Total Energy          =    -265.0948495432070331 [Eh]
	-----------------------------------------------------------

  Dipole Moment: [D]
     X:    -1.0967      Y:    -1.3391      Z:     1.1923     Total:     2.1018

*** Psi4 exiting successfully. Buy a developer a beer!
