                               Psi4 1.3.2 release

  ==> Input File <==

--------------------------------------------------------------------------
#psi4
#
memory 32 gb

molecule  {
0 1
  N       -1.4165960    -0.6509490     0.0049700
  N        2.1271010     0.0145420    -0.1027660
  C        0.7148086    -0.0448838     0.0121014
  C       -0.1164160    -1.1090330     0.0084540
  C       -0.1198780     1.1527520    -0.0095160
  C       -1.4333080     0.7182450     0.0046470
  H        0.1125540    -2.1658880     0.0046750
  H        0.2096300     2.1837040    -0.0328240
  H       -2.2355060    -1.2420580     0.0220170
  H       -2.3628750     1.2701830     0.0090050
  H        2.5185220    -0.8881070     0.1549510
  H        2.5267920     0.7112850     0.5209140
units angstrom
no_reorient  #important for SAPT in psi4, default
symmetry c1  #important for SAPT in psi4, default
}

set PROPERTIES_ORIGIN ["COM"]
properties('MP2/aug-cc-pvtz', properties = ['dipole'])
--------------------------------------------------------------------------

    Molecular point group: c1
  Charge       = 0
  Multiplicity = 1
  Basis Set: AUG-CC-PVTZ
    Blend: AUG-CC-PVTZ
  Basis Set: (AUG-CC-PVTZ AUX)
    Blend: AUG-CC-PVTZ-JKFIT

    Orbital Energies [Eh]
    ---------------------

    Doubly Occupied:

       1A    -15.597448     2A    -15.553612     3A    -11.257246
       4A    -11.247268     5A    -11.236241     6A    -11.207175
       7A     -1.285302     8A     -1.187199     9A     -1.014113
      10A     -0.970736    11A     -0.788523    12A     -0.753143
      13A     -0.732770    14A     -0.650766    15A     -0.607287
      16A     -0.579572    17A     -0.567714    18A     -0.561207
      19A     -0.509368    20A     -0.468355    21A     -0.318377
      22A     -0.287189

  @DF-RHF Final Energy:  -263.93173337452430

   => Energetics <=

    Nuclear Repulsion Energy =            222.3408362236249900
    One-Electron Energy =                -797.7839171104287743
    Two-Electron Energy =                 311.5113475122794284
    Total Energy =                       -263.9317333745242991
  Basis Set: (AUG-CC-PVTZ AUX)
    Blend: AUG-CC-PVTZ-RI
    Molecular point group: c1

    Geometry (in Angstrom), charge = 0, multiplicity = 1:

       Center              X                  Y                   Z               Mass
    ------------   -----------------  -----------------  -----------------  -----------------
         N           -1.407661159571    -0.645603716573     0.011028987284    14.003074004430
         N            2.136035840429     0.019887283427    -0.096707012716    14.003074004430
         C            0.723743440429    -0.039538516573     0.018160387284    12.000000000000
         C           -0.107481159571    -1.103687716573     0.014512987284    12.000000000000
         C           -0.110943159571     1.158097283427    -0.003457012716    12.000000000000
         C           -1.424373159571     0.723590283427     0.010705987284    12.000000000000
         H            0.121488840429    -2.160542716573     0.010733987284     1.007825032230
         H            0.218564840429     2.189049283427    -0.026765012716     1.007825032230
         H           -2.226571159571    -1.236712716573     0.028075987284     1.007825032230
         H           -2.353940159571     1.275528283427     0.015063987284     1.007825032230
         H            2.527456840429    -0.882761716573     0.161009987284     1.007825032230
         H            2.535726840429     0.716630283427     0.526972987284     1.007825032230

  Basis Set: AUG-CC-PVTZ
    Blend: AUG-CC-PVTZ
  Basis Set: (AUG-CC-PVTZ AUX)
    Blend: AUG-CC-PVTZ-JKFIT
	 Reference Energy          =    -263.9317333745242991 [Eh]
	 Singles Energy            =      -0.0000000000000000 [Eh]
	 Same-Spin Energy          =      -0.2882079932840912 [Eh]
	 Opposite-Spin Energy      =      -0.8967641071614755 [Eh]
	 Correlation Energy        =      -1.1849721004455667 [Eh]
	 Total Energy              =    -265.1167054749698764 [Eh]

	 ================> DF-SCS-MP2 Energies <==================
	-----------------------------------------------------------
	 SCS Same-Spin Scale       =       0.3333333333333333 [-]
	 SCS Opposite-Spin Scale   =       1.2000000000000000 [-]
	 SCS Same-Spin Energy      =      -0.0960693310946971 [Eh]
	 SCS Opposite-Spin Energy  =      -1.0761169285937706 [Eh]
	 SCS Correlation Energy    =      -1.1721862596884678 [Eh]
	 SCS Total Energy          =    -265.1039196342127866 [Eh]
	-----------------------------------------------------------

  Dipole Moment: [D]
     X:    -1.0336      Y:    -1.2630      Z:     1.1740     Total:     2.0104

*** Psi4 exiting successfully. Buy a developer a beer!
