                               Psi4 1.3.2 release

  ==> Input File <==

--------------------------------------------------------------------------
#psi4
#
memory 32 gb

molecule  {
0 1
  N       -1.4165960    -0.6509490     0.0049700
  N        2.1212165    -0.1335239    -0.0939317
  C        0.7124930     0.0023240    -0.0026130
  C       -0.1164160    -1.1090330     0.0084540
  C       -0.1198780     1.1527520    -0.0095160
  C       -1.4333080     0.7182450     0.0046470
  H        0.1125540    -2.1658880     0.0046750
  H        0.2096300     2.1837040    -0.0328240
  H       -2.2355060    -1.2420580     0.0220170
  H       -2.3628750     1.2701830     0.0090050
  H        2.5185220    -0.8881070     0.1549510
  H        2.5267920     0.7112850     0.5209140
units angstrom
no_reorient  #important for SAPT in psi4, default
symmetry c1  #important for SAPT in psi4, default
}

set PROPERTIES_ORIGIN ["COM"]
properties('MP2/aug-cc-pvtz', properties = ['dipole'])
--------------------------------------------------------------------------

    Molecular point group: c1
  Charge       = 0
  Multiplicity = 1
  Basis Set: AUG-CC-PVTZ
    Blend: AUG-CC-PVTZ
  Basis Set: (AUG-CC-PVTZ AUX)
    Blend: AUG-CC-PVTZ-JKFIT

    Orbital Energies [Eh]
    ---------------------

    Doubly Occupied:

       1A    -15.601469     2A    -15.547482     3A    -11.257223
       4A    -11.250304     5A    -11.234918     6A    -11.209416
       7A     -1.285855     8A     -1.193002     9A     -1.024202
      10A     -0.963869    11A     -0.798787    12A     -0.762051
      13A     -0.731054    14A     -0.665411    15A     -0.588532
      16A     -0.579623    17A     -0.568047    18A     -0.562217
      19A     -0.518433    20A     -0.464428    21A     -0.324564
      22A     -0.276022

  @DF-RHF Final Energy:  -263.90355752787616

   => Energetics <=

    Nuclear Repulsion Energy =            222.5856110029208139
    One-Electron Energy =                -798.1645230048012536
    Two-Electron Energy =                 311.6753544740042798
    Total Energy =                       -263.9035575278761598
  Basis Set: (AUG-CC-PVTZ AUX)
    Blend: AUG-CC-PVTZ-RI
    Molecular point group: c1

    Geometry (in Angstrom), charge = 0, multiplicity = 1:

       Center              X                  Y                   Z               Mass
    ------------   -----------------  -----------------  -----------------  -----------------
         N           -1.406318269523    -0.627238972422     0.011673270614    14.003074004430
         N            2.131494230477    -0.109813872422    -0.087228429386    14.003074004430
         C            0.722770730477     0.026034027578     0.004090270614    12.000000000000
         C           -0.106138269523    -1.085322972422     0.015157270614    12.000000000000
         C           -0.109600269523     1.176462027578    -0.002812729386    12.000000000000
         C           -1.423030269523     0.741955027578     0.011350270614    12.000000000000
         H            0.122831730477    -2.142177972422     0.011378270614     1.007825032230
         H            0.219907730477     2.207414027578    -0.026120729386     1.007825032230
         H           -2.225228269523    -1.218347972422     0.028720270614     1.007825032230
         H           -2.352597269523     1.293893027578     0.015708270614     1.007825032230
         H            2.528799730477    -0.864396972422     0.161654270614     1.007825032230
         H            2.537069730477     0.734995027578     0.527617270614     1.007825032230

  Basis Set: AUG-CC-PVTZ
    Blend: AUG-CC-PVTZ
  Basis Set: (AUG-CC-PVTZ AUX)
    Blend: AUG-CC-PVTZ-JKFIT
	 Reference Energy          =    -263.9035575278761598 [Eh]
	 Singles Energy            =      -0.0000000000000000 [Eh]
	 Same-Spin Energy          =      -0.2893749348507240 [Eh]
	 Opposite-Spin Energy      =      -0.8982408856878408 [Eh]
	 Correlation Energy        =      -1.1876158205385647 [Eh]
	 Total Energy              =    -265.0911733484147135 [Eh]

	 ================> DF-SCS-MP2 Energies <==================
	-----------------------------------------------------------
	 SCS Same-Spin Scale       =       0.3333333333333333 [-]
	 SCS Opposite-Spin Scale   =       1.2000000000000000 [-]
	 SCS Same-Spin Energy      =      -0.0964583116169080 [Eh]
	 SCS Opposite-Spin Energy  =      -1.0778890628254090 [Eh]
	 SCS Correlation Energy    =      -1.1743473744423170 [Eh]
	 SCS Total Energy          =    -265.0779049023184939 [Eh]
	-----------------------------------------------------------

  Dipole Moment: [D]
     X:    -1.0670      Y:    -1.1120      Z:     1.1377     Total:     1.9156

*** Psi4 exiting successfully. Buy a developer a beer!
