                               Psi4 1.3.2 release

  ==> Input File <==

--------------------------------------------------------------------------
#psi4
#
memory 32 gb

molecule  {
0 1
  N       -1.4165960    -0.6509490     0.0049700
  N        2.1271010     0.0145420    -0.1027660
  C        0.6127464     0.0014625     0.0044490
  C       -0.1164160    -1.1090330     0.0084540
  C       -0.1198780     1.1527520    -0.0095160
  C       -1.4333080     0.7182450     0.0046470
  H        0.1125540    -2.1658880     0.0046750
  H        0.2096300     2.1837040    -0.0328240
  H       -2.2355060    -1.2420580     0.0220170
  H       -2.3628750     1.2701830     0.0090050
  H        2.5185220    -0.8881070     0.1549510
  H        2.5267920     0.7112850     0.5209140
units angstrom
no_reorient  #important for SAPT in psi4, default
symmetry c1  #important for SAPT in psi4, default
}

set PROPERTIES_ORIGIN ["COM"]
properties('MP2/aug-cc-pvtz', properties = ['dipole'])
--------------------------------------------------------------------------

    Molecular point group: c1
  Charge       = 0
  Multiplicity = 1
  Basis Set: AUG-CC-PVTZ
    Blend: AUG-CC-PVTZ
  Basis Set: (AUG-CC-PVTZ AUX)
    Blend: AUG-CC-PVTZ-JKFIT

    Orbital Energies [Eh]
    ---------------------

    Doubly Occupied:

       1A    -15.603158     2A    -15.545726     3A    -11.259023
       4A    -11.240632     5A    -11.235648     6A    -11.202999
       7A     -1.296560     8A     -1.155005     9A     -1.032733
      10A     -0.975238    11A     -0.800555    12A     -0.750037
      13A     -0.731923    14A     -0.637282    15A     -0.592737
      16A     -0.583766    17A     -0.576173    18A     -0.555832
      19A     -0.530533    20A     -0.447306    21A     -0.331801
      22A     -0.291504

  @DF-RHF Final Energy:  -263.91996876776039

   => Energetics <=

    Nuclear Repulsion Energy =            223.2219932055588174
    One-Electron Energy =                -799.5315748339631909
    Two-Electron Energy =                 312.3896128606440357
    Total Energy =                       -263.9199687677603947
  Basis Set: (AUG-CC-PVTZ AUX)
    Blend: AUG-CC-PVTZ-RI
    Molecular point group: c1

    Geometry (in Angstrom), charge = 0, multiplicity = 1:

       Center              X                  Y                   Z               Mass
    ------------   -----------------  -----------------  -----------------  -----------------
         N           -1.392734893204    -0.652381712921     0.012148126012    14.003074004430
         N            2.150962106796     0.013109287079    -0.095587873988    14.003074004430
         C            0.636607506796     0.000029787079     0.011627126012    12.000000000000
         C           -0.092554893204    -1.110465712921     0.015632126012    12.000000000000
         C           -0.096016893204     1.151319287079    -0.002337873988    12.000000000000
         C           -1.409446893204     0.716812287079     0.011825126012    12.000000000000
         H            0.136415106796    -2.167320712921     0.011853126012     1.007825032230
         H            0.233491106796     2.182271287079    -0.025645873988     1.007825032230
         H           -2.211644893204    -1.243490712921     0.029195126012     1.007825032230
         H           -2.339013893204     1.268750287079     0.016183126012     1.007825032230
         H            2.542383106796    -0.889539712921     0.162129126012     1.007825032230
         H            2.550653106796     0.709852287079     0.528092126012     1.007825032230

  Basis Set: AUG-CC-PVTZ
    Blend: AUG-CC-PVTZ
  Basis Set: (AUG-CC-PVTZ AUX)
    Blend: AUG-CC-PVTZ-JKFIT
	 Reference Energy          =    -263.9199687677603947 [Eh]
	 Singles Energy            =      -0.0000000000000000 [Eh]
	 Same-Spin Energy          =      -0.2888951887796504 [Eh]
	 Opposite-Spin Energy      =      -0.8977317429723587 [Eh]
	 Correlation Energy        =      -1.1866269317520091 [Eh]
	 Total Energy              =    -265.1065956995124111 [Eh]

	 ================> DF-SCS-MP2 Energies <==================
	-----------------------------------------------------------
	 SCS Same-Spin Scale       =       0.3333333333333333 [-]
	 SCS Opposite-Spin Scale   =       1.2000000000000000 [-]
	 SCS Same-Spin Energy      =      -0.0962983962598835 [Eh]
	 SCS Opposite-Spin Energy  =      -1.0772780915668303 [Eh]
	 SCS Correlation Energy    =      -1.1735764878267139 [Eh]
	 SCS Total Energy          =    -265.0935452555871166 [Eh]
	-----------------------------------------------------------

  Dipole Moment: [D]
     X:    -1.5122      Y:    -1.2630      Z:     1.1919     Total:     2.3027

*** Psi4 exiting successfully. Buy a developer a beer!
