                               Psi4 1.3.2 release

  ==> Input File <==

--------------------------------------------------------------------------
#psi4
#
memory 32 gb

molecule  {
0 1
  N       -1.4165960    -0.6509490     0.0049700
  N        2.1270229    -0.0101871    -0.1038269
  C        0.7124930     0.0023240    -0.0026130
  C       -0.1164160    -1.1090330     0.0084540
  C       -0.1198780     1.1527520    -0.0095160
  C       -1.4333080     0.7182450     0.0046470
  H        0.1125540    -2.1658880     0.0046750
  H        0.2096300     2.1837040    -0.0328240
  H       -2.2355060    -1.2420580     0.0220170
  H       -2.3628750     1.2701830     0.0090050
  H        2.5185220    -0.8881070     0.1549510
  H        2.5267920     0.7112850     0.5209140
units angstrom
no_reorient  #important for SAPT in psi4, default
symmetry c1  #important for SAPT in psi4, default
}

set PROPERTIES_ORIGIN ["COM"]
properties('MP2/aug-cc-pvtz', properties = ['dipole'])
--------------------------------------------------------------------------

    Molecular point group: c1
  Charge       = 0
  Multiplicity = 1
  Basis Set: AUG-CC-PVTZ
    Blend: AUG-CC-PVTZ
  Basis Set: (AUG-CC-PVTZ AUX)
    Blend: AUG-CC-PVTZ-JKFIT

    Orbital Energies [Eh]
    ---------------------

    Doubly Occupied:

       1A    -15.601390     2A    -15.552167     3A    -11.256412
       4A    -11.248564     5A    -11.237899     6A    -11.205943
       7A     -1.285795     8A     -1.186923     9A     -1.020336
      10A     -0.963648    11A     -0.793980    12A     -0.753126
      13A     -0.730977    14A     -0.654493    15A     -0.601494
      16A     -0.579863    17A     -0.568038    18A     -0.559374
      19A     -0.519737    20A     -0.466122    21A     -0.323175
      22A     -0.278837

  @DF-RHF Final Energy:  -263.93186837610438

   => Energetics <=

    Nuclear Repulsion Energy =            222.3628306402802934
    One-Electron Energy =                -797.8128169476561879
    Two-Electron Energy =                 311.5181179312714903
    Total Energy =                       -263.9318683761043758
  Basis Set: (AUG-CC-PVTZ AUX)
    Blend: AUG-CC-PVTZ-RI
    Molecular point group: c1

    Geometry (in Angstrom), charge = 0, multiplicity = 1:

       Center              X                  Y                   Z               Mass
    ------------   -----------------  -----------------  -----------------  -----------------
         N           -1.407309182123    -0.648287468770     0.013361972453    14.003074004430
         N            2.136309717877    -0.007525568770    -0.095434927547    14.003074004430
         C            0.721779817877     0.004985531230     0.005778972453    12.000000000000
         C           -0.107129182123    -1.106371468770     0.016845972453    12.000000000000
         C           -0.110591182123     1.155413531230    -0.001124027547    12.000000000000
         C           -1.424021182123     0.720906531230     0.013038972453    12.000000000000
         H            0.121840817877    -2.163226468770     0.013066972453     1.007825032230
         H            0.218916817877     2.186365531230    -0.024432027547     1.007825032230
         H           -2.226219182123    -1.239396468770     0.030408972453     1.007825032230
         H           -2.353588182123     1.272844531230     0.017396972453     1.007825032230
         H            2.527808817877    -0.885445468770     0.163342972453     1.007825032230
         H            2.536078817877     0.713946531230     0.529305972453     1.007825032230

  Basis Set: AUG-CC-PVTZ
    Blend: AUG-CC-PVTZ
  Basis Set: (AUG-CC-PVTZ AUX)
    Blend: AUG-CC-PVTZ-JKFIT
	 Reference Energy          =    -263.9318683761043758 [Eh]
	 Singles Energy            =      -0.0000000000000000 [Eh]
	 Same-Spin Energy          =      -0.2891493930820584 [Eh]
	 Opposite-Spin Energy      =      -0.8976906912103206 [Eh]
	 Correlation Energy        =      -1.1868400842923790 [Eh]
	 Total Energy              =    -265.1187084603967605 [Eh]

	 ================> DF-SCS-MP2 Energies <==================
	-----------------------------------------------------------
	 SCS Same-Spin Scale       =       0.3333333333333333 [-]
	 SCS Opposite-Spin Scale   =       1.2000000000000000 [-]
	 SCS Same-Spin Energy      =      -0.0963831310273528 [Eh]
	 SCS Opposite-Spin Energy  =      -1.0772288294523846 [Eh]
	 SCS Correlation Energy    =      -1.1736119604797375 [Eh]
	 SCS Total Energy          =    -265.1054803365840939 [Eh]
	-----------------------------------------------------------

  Dipole Moment: [D]
     X:    -1.0550      Y:    -1.2329      Z:     1.1753     Total:     2.0036

*** Psi4 exiting successfully. Buy a developer a beer!
