                               Psi4 1.3.2 release

  ==> Input File <==

--------------------------------------------------------------------------
#psi4
#
memory 32 gb

molecule  {
0 1
  N       -1.4165960    -0.6509490     0.0049700
  N        2.1267482     0.0392674    -0.1016746
  C        0.7124930     0.0023240    -0.0026130
  C       -0.1164160    -1.1090330     0.0084540
  C       -0.1198780     1.1527520    -0.0095160
  C       -1.4333080     0.7182450     0.0046470
  H        0.1125540    -2.1658880     0.0046750
  H        0.2096300     2.1837040    -0.0328240
  H       -2.2355060    -1.2420580     0.0220170
  H       -2.3628750     1.2701830     0.0090050
  H        2.5185220    -0.8881070     0.1549510
  H        2.5267920     0.7112850     0.5209140
units angstrom
no_reorient  #important for SAPT in psi4, default
symmetry c1  #important for SAPT in psi4, default
}

set PROPERTIES_ORIGIN ["COM"]
properties('MP2/aug-cc-pvtz', properties = ['dipole'])
--------------------------------------------------------------------------

    Molecular point group: c1
  Charge       = 0
  Multiplicity = 1
  Basis Set: AUG-CC-PVTZ
    Blend: AUG-CC-PVTZ
  Basis Set: (AUG-CC-PVTZ AUX)
    Blend: AUG-CC-PVTZ-JKFIT

    Orbital Energies [Eh]
    ---------------------

    Doubly Occupied:

       1A    -15.601510     2A    -15.553471     3A    -11.256186
       4A    -11.248617     5A    -11.239318     6A    -11.204770
       7A     -1.285973     8A     -1.186605     9A     -1.019607
      10A     -0.964308    11A     -0.792851    12A     -0.753409
      13A     -0.732107    14A     -0.648259    15A     -0.606875
      16A     -0.580017    17A     -0.568228    18A     -0.558830
      19A     -0.516841    20A     -0.466745    21A     -0.322788
      22A     -0.280076

  @DF-RHF Final Energy:  -263.93156896922045

   => Energetics <=

    Nuclear Repulsion Energy =            222.3358593578758757
    One-Electron Energy =                -797.7600720311389750
    Two-Electron Energy =                 311.4926437040426777
    Total Energy =                       -263.9315689692204501
  Basis Set: (AUG-CC-PVTZ AUX)
    Blend: AUG-CC-PVTZ-RI
    Molecular point group: c1

    Geometry (in Angstrom), charge = 0, multiplicity = 1:

       Center              X                  Y                   Z               Mass
    ------------   -----------------  -----------------  -----------------  -----------------
         N           -1.407262302182    -0.656727308807     0.012994663761    14.003074004430
         N            2.136081897818     0.033489091193    -0.093649936239    14.003074004430
         C            0.721826697818    -0.003454308807     0.005411663761    12.000000000000
         C           -0.107082302182    -1.114811308807     0.016478663761    12.000000000000
         C           -0.110544302182     1.146973691193    -0.001491336239    12.000000000000
         C           -1.423974302182     0.712466691193     0.012671663761    12.000000000000
         H            0.121887697818    -2.171666308807     0.012699663761     1.007825032230
         H            0.218963697818     2.177925691193    -0.024799336239     1.007825032230
         H           -2.226172302182    -1.247836308807     0.030041663761     1.007825032230
         H           -2.353541302182     1.264404691193     0.017029663761     1.007825032230
         H            2.527855697818    -0.893885308807     0.162975663761     1.007825032230
         H            2.536125697818     0.705506691193     0.528938663761     1.007825032230

  Basis Set: AUG-CC-PVTZ
    Blend: AUG-CC-PVTZ
  Basis Set: (AUG-CC-PVTZ AUX)
    Blend: AUG-CC-PVTZ-JKFIT
	 Reference Energy          =    -263.9315689692204501 [Eh]
	 Singles Energy            =      -0.0000000000000000 [Eh]
	 Same-Spin Energy          =      -0.2891558921636262 [Eh]
	 Opposite-Spin Energy      =      -0.8978575486030572 [Eh]
	 Correlation Energy        =      -1.1870134407666835 [Eh]
	 Total Energy              =    -265.1185824099871411 [Eh]

	 ================> DF-SCS-MP2 Energies <==================
	-----------------------------------------------------------
	 SCS Same-Spin Scale       =       0.3333333333333333 [-]
	 SCS Opposite-Spin Scale   =       1.2000000000000000 [-]
	 SCS Same-Spin Energy      =      -0.0963852973878754 [Eh]
	 SCS Opposite-Spin Energy  =      -1.0774290583236685 [Eh]
	 SCS Correlation Energy    =      -1.1738143557115439 [Eh]
	 SCS Total Energy          =    -265.1053833249320064 [Eh]
	-----------------------------------------------------------

  Dipole Moment: [D]
     X:    -1.0633      Y:    -1.2767      Z:     1.1817     Total:     2.0388

*** Psi4 exiting successfully. Buy a developer a beer!
