                               Psi4 1.3.2 release

  ==> Input File <==

--------------------------------------------------------------------------
#psi4
#
memory 32 gb

molecule  {
0 1
  N       -1.4165960    -0.6509490     0.0049700
  N        2.1201744    -0.1336249    -0.1086628
  C        0.7124930     0.0023240    -0.0026130
  C       -0.1164160    -1.1090330     0.0084540
  C       -0.1198780     1.1527520    -0.0095160
  C       -1.4333080     0.7182450     0.0046470
  H        0.1125540    -2.1658880     0.0046750
  H        0.2096300     2.1837040    -0.0328240
  H       -2.2355060    -1.2420580     0.0220170
  H       -2.3628750     1.2701830     0.0090050
  H        2.5185220    -0.8881070     0.1549510
  H        2.5267920     0.7112850     0.5209140
units angstrom
no_reorient  #important for SAPT in psi4, default
symmetry c1  #important for SAPT in psi4, default
}

set PROPERTIES_ORIGIN ["COM"]
properties('MP2/aug-cc-pvtz', properties = ['dipole'])
--------------------------------------------------------------------------

    Molecular point group: c1
  Charge       = 0
  Multiplicity = 1
  Basis Set: AUG-CC-PVTZ
    Blend: AUG-CC-PVTZ
  Basis Set: (AUG-CC-PVTZ AUX)
    Blend: AUG-CC-PVTZ-JKFIT

    Orbital Energies [Eh]
    ---------------------

    Doubly Occupied:

       1A    -15.601643     2A    -15.549174     3A    -11.257318
       4A    -11.250159     5A    -11.235243     6A    -11.209514
       7A     -1.286018     8A     -1.192315     9A     -1.024062
      10A     -0.963842    11A     -0.798519    12A     -0.761682
      13A     -0.731094    14A     -0.662898    15A     -0.588007
      16A     -0.579825    17A     -0.568071    18A     -0.561855
      19A     -0.517465    20A     -0.465236    21A     -0.324842
      22A     -0.276542

  @DF-RHF Final Energy:  -263.90338385947223

   => Energetics <=

    Nuclear Repulsion Energy =            222.5438277024014724
    One-Electron Energy =                -798.0837797727774614
    Two-Electron Energy =                 311.6365682109037607
    Total Energy =                       -263.9033838594722283
  Basis Set: (AUG-CC-PVTZ AUX)
    Blend: AUG-CC-PVTZ-RI
    Molecular point group: c1

    Geometry (in Angstrom), charge = 0, multiplicity = 1:

       Center              X                  Y                   Z               Mass
    ------------   -----------------  -----------------  -----------------  -----------------
         N           -1.406140426105    -0.627221735895     0.014187260798    14.003074004430
         N            2.130629973895    -0.109897635895    -0.099445539202    14.003074004430
         C            0.722948573895     0.026051264105     0.006604260798    12.000000000000
         C           -0.105960426105    -1.085305735895     0.017671260798    12.000000000000
         C           -0.109422426105     1.176479264105    -0.000298739202    12.000000000000
         C           -1.422852426105     0.741972264105     0.013864260798    12.000000000000
         H            0.123009573895    -2.142160735895     0.013892260798     1.007825032230
         H            0.220085573895     2.207431264105    -0.023606739202     1.007825032230
         H           -2.225050426105    -1.218330735895     0.031234260798     1.007825032230
         H           -2.352419426105     1.293910264105     0.018222260798     1.007825032230
         H            2.528977573895    -0.864379735895     0.164168260798     1.007825032230
         H            2.537247573895     0.735012264105     0.530131260798     1.007825032230

  Basis Set: AUG-CC-PVTZ
    Blend: AUG-CC-PVTZ
  Basis Set: (AUG-CC-PVTZ AUX)
    Blend: AUG-CC-PVTZ-JKFIT
	 Reference Energy          =    -263.9033838594722283 [Eh]
	 Singles Energy            =      -0.0000000000000000 [Eh]
	 Same-Spin Energy          =      -0.2894336547273991 [Eh]
	 Opposite-Spin Energy      =      -0.8985079746411089 [Eh]
	 Correlation Energy        =      -1.1879416293685079 [Eh]
	 Total Energy              =    -265.0913254888407096 [Eh]

	 ================> DF-SCS-MP2 Energies <==================
	-----------------------------------------------------------
	 SCS Same-Spin Scale       =       0.3333333333333333 [-]
	 SCS Opposite-Spin Scale   =       1.2000000000000000 [-]
	 SCS Same-Spin Energy      =      -0.0964778849091330 [Eh]
	 SCS Opposite-Spin Energy  =      -1.0782095695693306 [Eh]
	 SCS Correlation Energy    =      -1.1746874544784636 [Eh]
	 SCS Total Energy          =    -265.0780713139507156 [Eh]
	-----------------------------------------------------------

  Dipole Moment: [D]
     X:    -1.0859      Y:    -1.1188      Z:     1.1614     Total:     1.9442

*** Psi4 exiting successfully. Buy a developer a beer!
