                               Psi4 1.3.2 release

  ==> Input File <==

--------------------------------------------------------------------------
#psi4
#
memory 32 gb

molecule  {
0 1
  N       -1.4165960    -0.6509490     0.0049700
  N        2.1259645     0.0639815    -0.1005530
  C        0.7124930     0.0023240    -0.0026130
  C       -0.1164160    -1.1090330     0.0084540
  C       -0.1198780     1.1527520    -0.0095160
  C       -1.4333080     0.7182450     0.0046470
  H        0.1125540    -2.1658880     0.0046750
  H        0.2096300     2.1837040    -0.0328240
  H       -2.2355060    -1.2420580     0.0220170
  H       -2.3628750     1.2701830     0.0090050
  H        2.5185220    -0.8881070     0.1549510
  H        2.5267920     0.7112850     0.5209140
units angstrom
no_reorient  #important for SAPT in psi4, default
symmetry c1  #important for SAPT in psi4, default
}

set PROPERTIES_ORIGIN ["COM"]
properties('MP2/aug-cc-pvtz', properties = ['dipole'])
--------------------------------------------------------------------------

    Molecular point group: c1
  Charge       = 0
  Multiplicity = 1
  Basis Set: AUG-CC-PVTZ
    Blend: AUG-CC-PVTZ
  Basis Set: (AUG-CC-PVTZ AUX)
    Blend: AUG-CC-PVTZ-JKFIT

    Orbital Energies [Eh]
    ---------------------

    Doubly Occupied:

       1A    -15.601617     2A    -15.554145     3A    -11.256102
       4A    -11.248782     5A    -11.240098     6A    -11.204241
       7A     -1.286117     8A     -1.186823     9A     -1.019414
      10A     -0.964761    11A     -0.792428    12A     -0.754387
      13A     -0.732735    14A     -0.645002    15A     -0.609160
      16A     -0.580133    17A     -0.568368    18A     -0.558656
      19A     -0.514691    20A     -0.467115    21A     -0.322658
      22A     -0.280759

  @DF-RHF Final Energy:  -263.92914394912145

   => Energetics <=

    Nuclear Repulsion Energy =            222.3317044439653500
    One-Electron Energy =                -797.7453116197006011
    Two-Electron Energy =                 311.4844632266137978
    Total Energy =                       -263.9291439491214533
  Basis Set: (AUG-CC-PVTZ AUX)
    Blend: AUG-CC-PVTZ-RI
    Molecular point group: c1

    Geometry (in Angstrom), charge = 0, multiplicity = 1:

       Center              X                  Y                   Z               Mass
    ------------   -----------------  -----------------  -----------------  -----------------
         N           -1.407128556969    -0.660944984664     0.012803252978    14.003074004430
         N            2.135431943031     0.053985515336    -0.092719747022    14.003074004430
         C            0.721960443031    -0.007671984664     0.005220252978    12.000000000000
         C           -0.106948556969    -1.119028984664     0.016287252978    12.000000000000
         C           -0.110410556969     1.142756015336    -0.001682747022    12.000000000000
         C           -1.423840556969     0.708249015336     0.012480252978    12.000000000000
         H            0.122021443031    -2.175883984664     0.012508252978     1.007825032230
         H            0.219097443031     2.173708015336    -0.024990747022     1.007825032230
         H           -2.226038556969    -1.252053984664     0.029850252978     1.007825032230
         H           -2.353407556969     1.260187015336     0.016838252978     1.007825032230
         H            2.527989443031    -0.898102984664     0.162784252978     1.007825032230
         H            2.536259443031     0.701289015336     0.528747252978     1.007825032230

  Basis Set: AUG-CC-PVTZ
    Blend: AUG-CC-PVTZ
  Basis Set: (AUG-CC-PVTZ AUX)
    Blend: AUG-CC-PVTZ-JKFIT
	 Reference Energy          =    -263.9291439491214533 [Eh]
	 Singles Energy            =      -0.0000000000000000 [Eh]
	 Same-Spin Energy          =      -0.2891835204737709 [Eh]
	 Opposite-Spin Energy      =      -0.8980438917119964 [Eh]
	 Correlation Energy        =      -1.1872274121857673 [Eh]
	 Total Energy              =    -265.1163713613072446 [Eh]

	 ================> DF-SCS-MP2 Energies <==================
	-----------------------------------------------------------
	 SCS Same-Spin Scale       =       0.3333333333333333 [-]
	 SCS Opposite-Spin Scale   =       1.2000000000000000 [-]
	 SCS Same-Spin Energy      =      -0.0963945068245903 [Eh]
	 SCS Opposite-Spin Energy  =      -1.0776526700543956 [Eh]
	 SCS Correlation Energy    =      -1.1740471768789860 [Eh]
	 SCS Total Energy          =    -265.1031911260004108 [Eh]
	-----------------------------------------------------------

  Dipole Moment: [D]
     X:    -1.0717      Y:    -1.2980      Z:     1.1851     Total:     2.0586

*** Psi4 exiting successfully. Buy a developer a beer!
