                               Psi4 1.3.2 release

  ==> Input File <==

--------------------------------------------------------------------------
#psi4
#
memory 32 gb

molecule  {
0 1
  N       -1.4165960    -0.6509490     0.0049700
  N        2.1265742     0.0392505    -0.1041341
  C        0.7124930     0.0023240    -0.0026130
  C       -0.1164160    -1.1090330     0.0084540
  C       -0.1198780     1.1527520    -0.0095160
  C       -1.4333080     0.7182450     0.0046470
  H        0.1125540    -2.1658880     0.0046750
  H        0.2096300     2.1837040    -0.0328240
  H       -2.2355060    -1.2420580     0.0220170
  H       -2.3628750     1.2701830     0.0090050
  H        2.5185220    -0.8881070     0.1549510
  H        2.5267920     0.7112850     0.5209140
units angstrom
no_reorient  #important for SAPT in psi4, default
symmetry c1  #important for SAPT in psi4, default
}

set PROPERTIES_ORIGIN ["COM"]
properties('MP2/aug-cc-pvtz', properties = ['dipole'])
--------------------------------------------------------------------------

    Molecular point group: c1
  Charge       = 0
  Multiplicity = 1
  Basis Set: AUG-CC-PVTZ
    Blend: AUG-CC-PVTZ
  Basis Set: (AUG-CC-PVTZ AUX)
    Blend: AUG-CC-PVTZ-JKFIT

    Orbital Energies [Eh]
    ---------------------

    Doubly Occupied:

       1A    -15.601536     2A    -15.553771     3A    -11.256198
       4A    -11.248584     5A    -11.239362     6A    -11.204788
       7A     -1.285996     8A     -1.186463     9A     -1.019573
      10A     -0.964291    11A     -0.792850    12A     -0.753301
      13A     -0.732060    14A     -0.647731    15A     -0.606792
      16A     -0.580042    17A     -0.568225    18A     -0.558805
      19A     -0.516741    20A     -0.466885    21A     -0.322835
      22A     -0.280151

  @DF-RHF Final Energy:  -263.93149920625058

   => Energetics <=

    Nuclear Repulsion Energy =            222.3284391286234154
    One-Electron Energy =                -797.7459224060124825
    Two-Electron Energy =                 311.4859840711384322
    Total Energy =                       -263.9314992062505780
  Basis Set: (AUG-CC-PVTZ AUX)
    Blend: AUG-CC-PVTZ-RI
    Molecular point group: c1

    Geometry (in Angstrom), charge = 0, multiplicity = 1:

       Center              X                  Y                   Z               Mass
    ------------   -----------------  -----------------  -----------------  -----------------
         N           -1.407232607570    -0.656724424675     0.013414398802    14.003074004430
         N            2.135937592430     0.033475075325    -0.095689701198    14.003074004430
         C            0.721856392430    -0.003451424675     0.005831398802    12.000000000000
         C           -0.107052607570    -1.114808424675     0.016898398802    12.000000000000
         C           -0.110514607570     1.146976575325    -0.001071601198    12.000000000000
         C           -1.423944607570     0.712469575325     0.013091398802    12.000000000000
         H            0.121917392430    -2.171663424675     0.013119398802     1.007825032230
         H            0.218993392430     2.177928575325    -0.024379601198     1.007825032230
         H           -2.226142607570    -1.247833424675     0.030461398802     1.007825032230
         H           -2.353511607570     1.264407575325     0.017449398802     1.007825032230
         H            2.527885392430    -0.893882424675     0.163395398802     1.007825032230
         H            2.536155392430     0.705509575325     0.529358398802     1.007825032230

  Basis Set: AUG-CC-PVTZ
    Blend: AUG-CC-PVTZ
  Basis Set: (AUG-CC-PVTZ AUX)
    Blend: AUG-CC-PVTZ-JKFIT
	 Reference Energy          =    -263.9314992062505780 [Eh]
	 Singles Energy            =      -0.0000000000000000 [Eh]
	 Same-Spin Energy          =      -0.2891693109338347 [Eh]
	 Opposite-Spin Energy      =      -0.8979048922052572 [Eh]
	 Correlation Energy        =      -1.1870742031390917 [Eh]
	 Total Energy              =    -265.1185734093896826 [Eh]

	 ================> DF-SCS-MP2 Energies <==================
	-----------------------------------------------------------
	 SCS Same-Spin Scale       =       0.3333333333333333 [-]
	 SCS Opposite-Spin Scale   =       1.2000000000000000 [-]
	 SCS Same-Spin Energy      =      -0.0963897703112782 [Eh]
	 SCS Opposite-Spin Energy  =      -1.0774858706463086 [Eh]
	 SCS Correlation Energy    =      -1.1738756409575868 [Eh]
	 SCS Total Energy          =    -265.1053748472081679 [Eh]
	-----------------------------------------------------------

  Dipole Moment: [D]
     X:    -1.0660      Y:    -1.2771      Z:     1.1852     Total:     2.0426

*** Psi4 exiting successfully. Buy a developer a beer!
