                               Psi4 1.4a3.dev225

  ==> Input File <==

--------------------------------------------------------------------------
#psi4
#
memory 32 gb

molecule  {
0 1
  N       -1.4165960    -0.6509490     0.0049700
  N        2.1271010     0.0145420    -0.1027660
  C        0.7623663     0.0027548    -0.0061440
  C       -0.1164160    -1.1090330     0.0084540
  C       -0.1198780     1.1527520    -0.0095160
  C       -1.4333080     0.7182450     0.0046470
  H        0.1125540    -2.1658880     0.0046750
  H        0.2096300     2.1837040    -0.0328240
  H       -2.2355060    -1.2420580     0.0220170
  H       -2.3628750     1.2701830     0.0090050
  H        2.5185220    -0.8881070     0.1549510
  H        2.5267920     0.7112850     0.5209140
units angstrom
no_reorient  #important for SAPT in psi4, default
symmetry c1  #important for SAPT in psi4, default
}

set PROPERTIES_ORIGIN ["COM"]
properties('MP2/aug-cc-pvtz', properties = ['dipole'])
--------------------------------------------------------------------------

    Molecular point group: c1
  Charge       = 0
  Multiplicity = 1
  Basis Set: AUG-CC-PVTZ
    Blend: AUG-CC-PVTZ
  Basis Set: (AUG-CC-PVTZ AUX)
    Blend: AUG-CC-PVTZ-JKFIT

    Orbital Energies [Eh]
    ---------------------

    Doubly Occupied:

       1A    -15.600319     2A    -15.556393     3A    -11.255161
       4A    -11.253469     5A    -11.239527     6A    -11.206584
       7A     -1.281610     8A     -1.205977     9A     -1.013154
      10A     -0.958199    11A     -0.790772    12A     -0.757266
      13A     -0.729667    14A     -0.659527    15A     -0.615472
      16A     -0.577071    17A     -0.565336    18A     -0.560515
      19A     -0.506763    20A     -0.474840    21A     -0.319018
      22A     -0.272249

  @DF-RHF Final Energy:  -263.92771484612604

   => Energetics <=

    Nuclear Repulsion Energy =            221.9929204309594866
    One-Electron Energy =                -797.0434926821781119
    Two-Electron Energy =                 311.1228574050926454
    Total Energy =                       -263.9277148461260367
  Basis Set: (AUG-CC-PVTZ AUX)
    Blend: AUG-CC-PVTZ-RI
    Molecular point group: c1

    Geometry (in Angstrom), charge = 0, multiplicity = 1:

       Center              X                  Y                   Z               Mass
    ------------   -----------------  -----------------  -----------------  -----------------
         N           -1.414616319248    -0.652570707613     0.013697317972    14.003074004430
         N            2.129080680752     0.012920292387    -0.094038682028    14.003074004430
         C            0.764345980752     0.001133092387     0.002583317972    12.000000000000
         C           -0.114436319248    -1.110654707613     0.017181317972    12.000000000000
         C           -0.117898319248     1.151130292387    -0.000788682028    12.000000000000
         C           -1.431328319248     0.716623292387     0.013374317972    12.000000000000
         H            0.114533680752    -2.167509707613     0.013402317972     1.007825032230
         H            0.211609680752     2.182082292387    -0.024096682028     1.007825032230
         H           -2.233526319248    -1.243679707613     0.030744317972     1.007825032230
         H           -2.360895319248     1.268561292387     0.017732317972     1.007825032230
         H            2.520501680752    -0.889728707613     0.163678317972     1.007825032230
         H            2.528771680752     0.709663292387     0.529641317972     1.007825032230

  Basis Set: AUG-CC-PVTZ
    Blend: AUG-CC-PVTZ
  Basis Set: (AUG-CC-PVTZ AUX)
    Blend: AUG-CC-PVTZ-JKFIT
	 Reference Energy          =    -263.9277148461260367 [Eh]
	 Singles Energy            =      -0.0000000000000000 [Eh]
	 Same-Spin Energy          =      -0.2896295397767534 [Eh]
	 Opposite-Spin Energy      =      -0.8983063110778944 [Eh]
	 Correlation Energy        =      -1.1879358508546478 [Eh]
	 Total Energy              =    -265.1156506969807083 [Eh]

	 ================> DF-SCS-MP2 Energies <==================
	-----------------------------------------------------------
	 SCS Same-Spin Scale       =       0.3333333333333333 [-]
	 SCS Opposite-Spin Scale   =       1.2000000000000000 [-]
	 SCS Same-Spin Energy      =      -0.0965431799255845 [Eh]
	 SCS Opposite-Spin Energy  =      -1.0779675732934733 [Eh]
	 SCS Correlation Energy    =      -1.1745107532190577 [Eh]
	 SCS Total Energy          =    -265.1022255993451040 [Eh]
	-----------------------------------------------------------

  Dipole Moment: [D]
     X:    -0.8038      Y:    -1.2465      Z:     1.1687     Total:     1.8884

*** Psi4 exiting successfully. Buy a developer a beer!
