                               Psi4 1.4a3.dev225

  ==> Input File <==

--------------------------------------------------------------------------
#psi4
#
memory 32 gb

molecule  {
0 1
  N       -1.4165960    -0.6509490     0.0049700
  N        2.1271010     0.0145420    -0.1027660
  C        0.6626197     0.0018932     0.0009180
  C       -0.1164160    -1.1090330     0.0084540
  C       -0.1198780     1.1527520    -0.0095160
  C       -1.4333080     0.7182450     0.0046470
  H        0.1125540    -2.1658880     0.0046750
  H        0.2096300     2.1837040    -0.0328240
  H       -2.2355060    -1.2420580     0.0220170
  H       -2.3628750     1.2701830     0.0090050
  H        2.5185220    -0.8881070     0.1549510
  H        2.5267920     0.7112850     0.5209140
units angstrom
no_reorient  #important for SAPT in psi4, default
symmetry c1  #important for SAPT in psi4, default
}

set PROPERTIES_ORIGIN ["COM"]
properties('MP2/aug-cc-pvtz', properties = ['dipole'])
--------------------------------------------------------------------------

    Molecular point group: c1
  Charge       = 0
  Multiplicity = 1
  Basis Set: AUG-CC-PVTZ
    Blend: AUG-CC-PVTZ
  Basis Set: (AUG-CC-PVTZ AUX)
    Blend: AUG-CC-PVTZ-JKFIT

    Orbital Energies [Eh]
    ---------------------

    Doubly Occupied:

       1A    -15.602342     2A    -15.549342     3A    -11.257554
       4A    -11.244211     5A    -11.237232     6A    -11.204101
       7A     -1.290843     8A     -1.169696     9A     -1.026494
      10A     -0.969552    11A     -0.796709    12A     -0.750481
      13A     -0.732388    14A     -0.644083    15A     -0.595756
      16A     -0.582108    17A     -0.571609    18A     -0.556518
      19A     -0.528838    20A     -0.456834    21A     -0.327253
      22A     -0.285825

  @DF-RHF Final Energy:  -263.92975924225607

   => Energetics <=

    Nuclear Repulsion Energy =            222.7578808447770768
    One-Electron Energy =                -798.6157379904531126
    Two-Electron Energy =                 311.9280979034199390
    Total Energy =                       -263.9297592422560683
  Basis Set: (AUG-CC-PVTZ AUX)
    Blend: AUG-CC-PVTZ-RI
    Molecular point group: c1

    Geometry (in Angstrom), charge = 0, multiplicity = 1:

       Center              X                  Y                   Z               Mass
    ------------   -----------------  -----------------  -----------------  -----------------
         N           -1.400028701885    -0.652444701402     0.012664523332    14.003074004430
         N            2.143668298115     0.013046298598    -0.095071476668    14.003074004430
         C            0.679186998115     0.000397498598     0.008612523332    12.000000000000
         C           -0.099848701885    -1.110528701402     0.016148523332    12.000000000000
         C           -0.103310701885     1.151256298598    -0.001821476668    12.000000000000
         C           -1.416740701885     0.716749298598     0.012341523332    12.000000000000
         H            0.129121298115    -2.167383701402     0.012369523332     1.007825032230
         H            0.226197298115     2.182208298598    -0.025129476668     1.007825032230
         H           -2.218938701885    -1.243553701402     0.029711523332     1.007825032230
         H           -2.346307701885     1.268687298598     0.016699523332     1.007825032230
         H            2.535089298115    -0.889602701402     0.162645523332     1.007825032230
         H            2.543359298115     0.709789298598     0.528608523332     1.007825032230

  Basis Set: AUG-CC-PVTZ
    Blend: AUG-CC-PVTZ
  Basis Set: (AUG-CC-PVTZ AUX)
    Blend: AUG-CC-PVTZ-JKFIT
	 Reference Energy          =    -263.9297592422560683 [Eh]
	 Singles Energy            =      -0.0000000000000000 [Eh]
	 Same-Spin Energy          =      -0.2888968199915583 [Eh]
	 Opposite-Spin Energy      =      -0.8975463103108923 [Eh]
	 Correlation Energy        =      -1.1864431303024505 [Eh]
	 Total Energy              =    -265.1162023725585186 [Eh]

	 ================> DF-SCS-MP2 Energies <==================
	-----------------------------------------------------------
	 SCS Same-Spin Scale       =       0.3333333333333333 [-]
	 SCS Opposite-Spin Scale   =       1.2000000000000000 [-]
	 SCS Same-Spin Energy      =      -0.0962989399971861 [Eh]
	 SCS Opposite-Spin Energy  =      -1.0770555723730706 [Eh]
	 SCS Correlation Energy    =      -1.1733545123702567 [Eh]
	 SCS Total Energy          =    -265.1031137546263494 [Eh]
	-----------------------------------------------------------

  Dipole Moment: [D]
     X:    -1.2917      Y:    -1.2606      Z:     1.1860     Total:     2.1597

*** Psi4 exiting successfully. Buy a developer a beer!
