                               Psi4 1.3.2 release

  ==> Input File <==

--------------------------------------------------------------------------
#psi4
#
memory 32 gb

molecule  {
0 1
  N       -1.4165960    -0.6509490     0.0049700
  N        2.1271010     0.0145420    -0.1027660
  C        0.7158878     0.1438067    -0.0474158
  C       -0.1164160    -1.1090330     0.0084540
  C       -0.1198780     1.1527520    -0.0095160
  C       -1.4333080     0.7182450     0.0046470
  H        0.1125540    -2.1658880     0.0046750
  H        0.2096300     2.1837040    -0.0328240
  H       -2.2355060    -1.2420580     0.0220170
  H       -2.3628750     1.2701830     0.0090050
  H        2.5185220    -0.8881070     0.1549510
  H        2.5267920     0.7112850     0.5209140
units angstrom
no_reorient  #important for SAPT in psi4, default
symmetry c1  #important for SAPT in psi4, default
}

set PROPERTIES_ORIGIN ["COM"]
properties('MP2/aug-cc-pvtz', properties = ['dipole'])
--------------------------------------------------------------------------

    Molecular point group: c1
  Charge       = 0
  Multiplicity = 1
  Basis Set: AUG-CC-PVTZ
    Blend: AUG-CC-PVTZ
  Basis Set: (AUG-CC-PVTZ AUX)
    Blend: AUG-CC-PVTZ-JKFIT

    Orbital Energies [Eh]
    ---------------------

    Doubly Occupied:

       1A    -15.614796     2A    -15.552368     3A    -11.252390
       4A    -11.251882     5A    -11.245043     6A    -11.198833
       7A     -1.287332     8A     -1.186513     9A     -1.041069
      10A     -0.946279    11A     -0.809956    12A     -0.750448
      13A     -0.726232    14A     -0.655469    15A     -0.608151
      16A     -0.582063    17A     -0.568789    18A     -0.563241
      19A     -0.512666    20A     -0.459426    21A     -0.338672
      22A     -0.258568

  @DF-RHF Final Energy:  -263.90316751815504

   => Energetics <=

    Nuclear Repulsion Energy =            222.2890149735242176
    One-Electron Energy =                -797.5639931654577595
    Two-Electron Energy =                 311.3718106737784979
    Total Energy =                       -263.9031675181550440
  Basis Set: (AUG-CC-PVTZ AUX)
    Blend: AUG-CC-PVTZ-RI
    Molecular point group: c1

    Geometry (in Angstrom), charge = 0, multiplicity = 1:

       Center              X                  Y                   Z               Mass
    ------------   -----------------  -----------------  -----------------  -----------------
         N           -1.407818989077    -0.673199091392     0.019733185122    14.003074004430
         N            2.135878010923    -0.007708091392    -0.088002814878    14.003074004430
         C            0.724664810923     0.121556608608    -0.032652614878    12.000000000000
         C           -0.107638989077    -1.131283091392     0.023217185122    12.000000000000
         C           -0.111100989077     1.130501908608     0.005247185122    12.000000000000
         C           -1.424530989077     0.695994908608     0.019410185122    12.000000000000
         H            0.121331010923    -2.188138091392     0.019438185122     1.007825032230
         H            0.218407010923     2.161453908608    -0.018060814878     1.007825032230
         H           -2.226728989077    -1.264308091392     0.036780185122     1.007825032230
         H           -2.354097989077     1.247932908608     0.023768185122     1.007825032230
         H            2.527299010923    -0.910357091392     0.169714185122     1.007825032230
         H            2.535569010923     0.689034908608     0.535677185122     1.007825032230

  Basis Set: AUG-CC-PVTZ
    Blend: AUG-CC-PVTZ
  Basis Set: (AUG-CC-PVTZ AUX)
    Blend: AUG-CC-PVTZ-JKFIT
	 Reference Energy          =    -263.9031675181550440 [Eh]
	 Singles Energy            =      -0.0000000000000000 [Eh]
	 Same-Spin Energy          =      -0.2922255295853432 [Eh]
	 Opposite-Spin Energy      =      -0.9023489735955665 [Eh]
	 Correlation Energy        =      -1.1945745031809096 [Eh]
	 Total Energy              =    -265.0977420213359323 [Eh]

	 ================> DF-SCS-MP2 Energies <==================
	-----------------------------------------------------------
	 SCS Same-Spin Scale       =       0.3333333333333333 [-]
	 SCS Opposite-Spin Scale   =       1.2000000000000000 [-]
	 SCS Same-Spin Energy      =      -0.0974085098617811 [Eh]
	 SCS Opposite-Spin Energy  =      -1.0828187683146797 [Eh]
	 SCS Correlation Energy    =      -1.1802272781764609 [Eh]
	 SCS Total Energy          =    -265.0833947963315040 [Eh]
	-----------------------------------------------------------

  Dipole Moment: [D]
     X:    -1.0567      Y:    -1.2089      Z:     1.1890     Total:     1.9980

*** Psi4 exiting successfully. Buy a developer a beer!
