                               Psi4 1.3.2 release

  ==> Input File <==

--------------------------------------------------------------------------
#psi4
#
memory 32 gb

molecule  {
0 1
  N       -1.4165960    -0.6509490     0.0049700
  N        2.1271010     0.0145420    -0.1027660
  C        0.9119862     0.0040470    -0.0167369
  C       -0.1164160    -1.1090330     0.0084540
  C       -0.1198780     1.1527520    -0.0095160
  C       -1.4333080     0.7182450     0.0046470
  H        0.1125540    -2.1658880     0.0046750
  H        0.2096300     2.1837040    -0.0328240
  H       -2.2355060    -1.2420580     0.0220170
  H       -2.3628750     1.2701830     0.0090050
  H        2.5185220    -0.8881070     0.1549510
  H        2.5267920     0.7112850     0.5209140
units angstrom
no_reorient  #important for SAPT in psi4, default
symmetry c1  #important for SAPT in psi4, default
}

set PROPERTIES_ORIGIN ["COM"]
properties('MP2/aug-cc-pvtz', properties = ['dipole'])
--------------------------------------------------------------------------

    Molecular point group: c1
  Charge       = 0
  Multiplicity = 1
  Basis Set: AUG-CC-PVTZ
    Blend: AUG-CC-PVTZ
  Basis Set: (AUG-CC-PVTZ AUX)
    Blend: AUG-CC-PVTZ-JKFIT

    Orbital Energies [Eh]
    ---------------------

    Doubly Occupied:

       1A    -15.594803     2A    -15.570384     3A    -11.270373
       4A    -11.252124     5A    -11.238189     6A    -11.209366
       7A     -1.293561     8A     -1.258848     9A     -0.993355
      10A     -0.938798    11A     -0.796207    12A     -0.773850
      13A     -0.724307    14A     -0.684770    15A     -0.643636
      16A     -0.568583    17A     -0.565056    18A     -0.558940
      19A     -0.517330    20A     -0.448476    21A     -0.309145
      22A     -0.246374

  @DF-RHF Final Energy:  -263.86092080333373

   => Energetics <=

    Nuclear Repulsion Energy =            221.3484025666574837
    One-Electron Energy =                -795.5056974425756380
    Two-Electron Energy =                 310.2963740725844559
    Total Energy =                       -263.8609208033337268
  Basis Set: (AUG-CC-PVTZ AUX)
    Blend: AUG-CC-PVTZ-RI
    Molecular point group: c1

    Geometry (in Angstrom), charge = 0, multiplicity = 1:

       Center              X                  Y                   Z               Mass
    ------------   -----------------  -----------------  -----------------  -----------------
         N           -1.436497745292    -0.652759687680     0.015246495307    14.003074004430
         N            2.107199254708     0.012731312320    -0.092489504693    14.003074004430
         C            0.892084454708     0.002236312320    -0.006460404693    12.000000000000
         C           -0.136317745292    -1.110843687680     0.018730495307    12.000000000000
         C           -0.139779745292     1.150941312320     0.000760495307    12.000000000000
         C           -1.453209745292     0.716434312320     0.014923495307    12.000000000000
         H            0.092652254708    -2.167698687680     0.014951495307     1.007825032230
         H            0.189728254708     2.181893312320    -0.022547504693     1.007825032230
         H           -2.255407745292    -1.243868687680     0.032293495307     1.007825032230
         H           -2.382776745292     1.268372312320     0.019281495307     1.007825032230
         H            2.498620254708    -0.889917687680     0.165227495307     1.007825032230
         H            2.506890254708     0.709474312320     0.531190495307     1.007825032230

  Basis Set: AUG-CC-PVTZ
    Blend: AUG-CC-PVTZ
  Basis Set: (AUG-CC-PVTZ AUX)
    Blend: AUG-CC-PVTZ-JKFIT
	 Reference Energy          =    -263.8609208033337268 [Eh]
	 Singles Energy            =      -0.0000000000000000 [Eh]
	 Same-Spin Energy          =      -0.2922802347965379 [Eh]
	 Opposite-Spin Energy      =      -0.9019897600046366 [Eh]
	 Correlation Energy        =      -1.1942699948011746 [Eh]
	 Total Energy              =    -265.0551907981349018 [Eh]

	 ================> DF-SCS-MP2 Energies <==================
	-----------------------------------------------------------
	 SCS Same-Spin Scale       =       0.3333333333333333 [-]
	 SCS Opposite-Spin Scale   =       1.2000000000000000 [-]
	 SCS Same-Spin Energy      =      -0.0974267449321793 [Eh]
	 SCS Opposite-Spin Energy  =      -1.0823877120055638 [Eh]
	 SCS Correlation Energy    =      -1.1798144569377431 [Eh]
	 SCS Total Energy          =    -265.0407352602714468 [Eh]
	-----------------------------------------------------------

  Dipole Moment: [D]
     X:     0.1156      Y:    -1.2123      Z:     1.1232     Total:     1.6567

*** Psi4 exiting successfully. Buy a developer a beer!
