                               Psi4 1.4a3.dev225

  ==> Input File <==

--------------------------------------------------------------------------
#psi4
#
memory 32 gb

molecule  {
0 1
  N       -1.4165960    -0.6509490     0.0049700
  N        2.1271010     0.0145420    -0.1027660
  C        0.6925437     0.0021517    -0.0012006
  C       -0.1164160    -1.1090330     0.0084540
  C       -0.1198780     1.1527520    -0.0095160
  C       -1.4333080     0.7182450     0.0046470
  H        0.1125540    -2.1658880     0.0046750
  H        0.2096300     2.1837040    -0.0328240
  H       -2.2355060    -1.2420580     0.0220170
  H       -2.3628750     1.2701830     0.0090050
  H        2.5185220    -0.8881070     0.1549510
  H        2.5267920     0.7112850     0.5209140
units angstrom
no_reorient  #important for SAPT in psi4, default
symmetry c1  #important for SAPT in psi4, default
}

set PROPERTIES_ORIGIN ["COM"]
properties('MP2/aug-cc-pvtz', properties = ['dipole'])
--------------------------------------------------------------------------

    Molecular point group: c1
  Charge       = 0
  Multiplicity = 1
  Basis Set: AUG-CC-PVTZ
    Blend: AUG-CC-PVTZ
  Basis Set: (AUG-CC-PVTZ AUX)
    Blend: AUG-CC-PVTZ-JKFIT

    Orbital Energies [Eh]
    ---------------------

    Doubly Occupied:

       1A    -15.601816     2A    -15.551425     3A    -11.256775
       4A    -11.246730     5A    -11.238083     6A    -11.204835
       7A     -1.287773     8A     -1.179577     9A     -1.022578
      10A     -0.966185    11A     -0.794633    12A     -0.751746
      13A     -0.731998    14A     -0.648448    15A     -0.600353
      16A     -0.580899    17A     -0.569422    18A     -0.558137
      19A     -0.523152    20A     -0.462607    21A     -0.324639
      22A     -0.282083

  @DF-RHF Final Energy:  -263.93227663830447

   => Energetics <=

    Nuclear Repulsion Energy =            222.5041891677903436
    One-Electron Energy =                -798.1051448732290510
    Two-Electron Energy =                 311.6686790671342919
    Total Energy =                       -263.9322766383044723
  Basis Set: (AUG-CC-PVTZ AUX)
    Blend: AUG-CC-PVTZ-RI
    Molecular point group: c1

    Geometry (in Angstrom), charge = 0, multiplicity = 1:

       Center              X                  Y                   Z               Mass
    ------------   -----------------  -----------------  -----------------  -----------------
         N           -1.404404990019    -0.652482506190     0.012974361724    14.003074004430
         N            2.139292009981     0.013008493810    -0.094761638276    14.003074004430
         C            0.704734709981     0.000618193810     0.006803761724    12.000000000000
         C           -0.104224990019    -1.110566506190     0.016458361724    12.000000000000
         C           -0.107686990019     1.151218493810    -0.001511638276    12.000000000000
         C           -1.421116990019     0.716711493810     0.012651361724    12.000000000000
         H            0.124745009981    -2.167421506190     0.012679361724     1.007825032230
         H            0.221821009981     2.182170493810    -0.024819638276     1.007825032230
         H           -2.223314990019    -1.243591506190     0.030021361724     1.007825032230
         H           -2.350683990019     1.268649493810     0.017009361724     1.007825032230
         H            2.530713009981    -0.889640506190     0.162955361724     1.007825032230
         H            2.538983009981     0.709751493810     0.528918361724     1.007825032230

  Basis Set: AUG-CC-PVTZ
    Blend: AUG-CC-PVTZ
  Basis Set: (AUG-CC-PVTZ AUX)
    Blend: AUG-CC-PVTZ-JKFIT
	 Reference Energy          =    -263.9322766383044723 [Eh]
	 Singles Energy            =      -0.0000000000000000 [Eh]
	 Same-Spin Energy          =      -0.2890162273085558 [Eh]
	 Opposite-Spin Energy      =      -0.8976168987769612 [Eh]
	 Correlation Energy        =      -1.1866331260855170 [Eh]
	 Total Energy              =    -265.1189097643899686 [Eh]

	 ================> DF-SCS-MP2 Energies <==================
	-----------------------------------------------------------
	 SCS Same-Spin Scale       =       0.3333333333333333 [-]
	 SCS Opposite-Spin Scale   =       1.2000000000000000 [-]
	 SCS Same-Spin Energy      =      -0.0963387424361853 [Eh]
	 SCS Opposite-Spin Energy  =      -1.0771402785323534 [Eh]
	 SCS Correlation Energy    =      -1.1734790209685386 [Eh]
	 SCS Total Energy          =    -265.1057556592730293 [Eh]
	-----------------------------------------------------------

  Dipole Moment: [D]
     X:    -1.1534      Y:    -1.2576      Z:     1.1817     Total:     2.0756

*** Psi4 exiting successfully. Buy a developer a beer!
