                               Psi4 1.3.2 release

  ==> Input File <==

--------------------------------------------------------------------------
#psi4
#
memory 32 gb

molecule  {
0 1
  N       -1.4165960    -0.6509490     0.0049700
  N        2.1271969    -0.0101702    -0.1013673
  C        0.7124930     0.0023240    -0.0026130
  C       -0.1164160    -1.1090330     0.0084540
  C       -0.1198780     1.1527520    -0.0095160
  C       -1.4333080     0.7182450     0.0046470
  H        0.1125540    -2.1658880     0.0046750
  H        0.2096300     2.1837040    -0.0328240
  H       -2.2355060    -1.2420580     0.0220170
  H       -2.3628750     1.2701830     0.0090050
  H        2.5185220    -0.8881070     0.1549510
  H        2.5267920     0.7112850     0.5209140
units angstrom
no_reorient  #important for SAPT in psi4, default
symmetry c1  #important for SAPT in psi4, default
}

set PROPERTIES_ORIGIN ["COM"]
properties('MP2/aug-cc-pvtz', properties = ['dipole'])
--------------------------------------------------------------------------

    Molecular point group: c1
  Charge       = 0
  Multiplicity = 1
  Basis Set: AUG-CC-PVTZ
    Blend: AUG-CC-PVTZ
  Basis Set: (AUG-CC-PVTZ AUX)
    Blend: AUG-CC-PVTZ-JKFIT

    Orbital Energies [Eh]
    ---------------------

    Doubly Occupied:

       1A    -15.601363     2A    -15.551873     3A    -11.256398
       4A    -11.248593     5A    -11.237852     6A    -11.205925
       7A     -1.285771     8A     -1.187053     9A     -1.020364
      10A     -0.963660    11A     -0.793988    12A     -0.753194
      13A     -0.731011    14A     -0.655017    15A     -0.601602
      16A     -0.579836    17A     -0.568037    18A     -0.559409
      19A     -0.519842    20A     -0.465983    21A     -0.323129
      22A     -0.278758

  @DF-RHF Final Energy:  -263.93197773523787

   => Energetics <=

    Nuclear Repulsion Energy =            222.3700044984990711
    One-Electron Energy =                -797.8266529055943010
    Two-Electron Energy =                 311.5246706718573932
    Total Energy =                       -263.9319777352378651
  Basis Set: (AUG-CC-PVTZ AUX)
    Blend: AUG-CC-PVTZ-RI
    Molecular point group: c1

    Geometry (in Angstrom), charge = 0, multiplicity = 1:

       Center              X                  Y                   Z               Mass
    ------------   -----------------  -----------------  -----------------  -----------------
         N           -1.407338876735    -0.648290352902     0.012942220347    14.003074004430
         N            2.136454023265    -0.007511552902    -0.093395079653    14.003074004430
         C            0.721750123265     0.004982647098     0.005359220347    12.000000000000
         C           -0.107158876735    -1.106374352902     0.016426220347    12.000000000000
         C           -0.110620876735     1.155410647098    -0.001543779653    12.000000000000
         C           -1.424050876735     0.720903647098     0.012619220347    12.000000000000
         H            0.121811123265    -2.163229352902     0.012647220347     1.007825032230
         H            0.218887123265     2.186362647098    -0.024851779653     1.007825032230
         H           -2.226248876735    -1.239399352902     0.029989220347     1.007825032230
         H           -2.353617876735     1.272841647098     0.016977220347     1.007825032230
         H            2.527779123265    -0.885448352902     0.162923220347     1.007825032230
         H            2.536049123265     0.713943647098     0.528886220347     1.007825032230

  Basis Set: AUG-CC-PVTZ
    Blend: AUG-CC-PVTZ
  Basis Set: (AUG-CC-PVTZ AUX)
    Blend: AUG-CC-PVTZ-JKFIT
	 Reference Energy          =    -263.9319777352378651 [Eh]
	 Singles Energy            =      -0.0000000000000000 [Eh]
	 Same-Spin Energy          =      -0.2891366883123803 [Eh]
	 Opposite-Spin Energy      =      -0.8976434780280800 [Eh]
	 Correlation Energy        =      -1.1867801663404602 [Eh]
	 Total Energy              =    -265.1187579015783058 [Eh]

	 ================> DF-SCS-MP2 Energies <==================
	-----------------------------------------------------------
	 SCS Same-Spin Scale       =       0.3333333333333333 [-]
	 SCS Opposite-Spin Scale   =       1.2000000000000000 [-]
	 SCS Same-Spin Energy      =      -0.0963788961041268 [Eh]
	 SCS Opposite-Spin Energy  =      -1.0771721736336959 [Eh]
	 SCS Correlation Energy    =      -1.1735510697378226 [Eh]
	 SCS Total Energy          =    -265.1055288049756768 [Eh]
	-----------------------------------------------------------

  Dipole Moment: [D]
     X:    -1.0521      Y:    -1.2322      Z:     1.1717     Total:     1.9995

*** Psi4 exiting successfully. Buy a developer a beer!
