                               Psi4 1.3.2 release

  ==> Input File <==

--------------------------------------------------------------------------
#psi4
#
memory 32 gb

molecule  {
0 1
  N       -1.4165960    -0.6509490     0.0049700
  N        2.1256166     0.0639478    -0.1054714
  C        0.7124930     0.0023240    -0.0026130
  C       -0.1164160    -1.1090330     0.0084540
  C       -0.1198780     1.1527520    -0.0095160
  C       -1.4333080     0.7182450     0.0046470
  H        0.1125540    -2.1658880     0.0046750
  H        0.2096300     2.1837040    -0.0328240
  H       -2.2355060    -1.2420580     0.0220170
  H       -2.3628750     1.2701830     0.0090050
  H        2.5185220    -0.8881070     0.1549510
  H        2.5267920     0.7112850     0.5209140
units angstrom
no_reorient  #important for SAPT in psi4, default
symmetry c1  #important for SAPT in psi4, default
}

set PROPERTIES_ORIGIN ["COM"]
properties('MP2/aug-cc-pvtz', properties = ['dipole'])
--------------------------------------------------------------------------

    Molecular point group: c1
  Charge       = 0
  Multiplicity = 1
  Basis Set: AUG-CC-PVTZ
    Blend: AUG-CC-PVTZ
  Basis Set: (AUG-CC-PVTZ AUX)
    Blend: AUG-CC-PVTZ-JKFIT

    Orbital Energies [Eh]
    ---------------------

    Doubly Occupied:

       1A    -15.601667     2A    -15.554752     3A    -11.256126
       4A    -11.248711     5A    -11.240181     6A    -11.204275
       7A     -1.286160     8A     -1.186521     9A     -1.019336
      10A     -0.964721    11A     -0.792429    12A     -0.754113
      13A     -0.732640    14A     -0.643951    15A     -0.609031
      16A     -0.580180    17A     -0.568359    18A     -0.558614
      19A     -0.514490    20A     -0.467395    21A     -0.322751
      22A     -0.280905

  @DF-RHF Final Energy:  -263.92907175477342

   => Energetics <=

    Nuclear Repulsion Energy =            222.3165551400022650
    One-Electron Energy =                -797.7166365936211605
    Two-Electron Energy =                 311.4710096988454779
    Total Energy =                       -263.9290717547734175
  Basis Set: (AUG-CC-PVTZ AUX)
    Blend: AUG-CC-PVTZ-RI
    Molecular point group: c1

    Geometry (in Angstrom), charge = 0, multiplicity = 1:

       Center              X                  Y                   Z               Mass
    ------------   -----------------  -----------------  -----------------  -----------------
         N           -1.407069184811    -0.660939233466     0.013642620664    14.003074004430
         N            2.135143415189     0.053957566534    -0.096798779336    14.003074004430
         C            0.722019815189    -0.007666233466     0.006059620664    12.000000000000
         C           -0.106889184811    -1.119023233466     0.017126620664    12.000000000000
         C           -0.110351184811     1.142761766534    -0.000843379336    12.000000000000
         C           -1.423781184811     0.708254766534     0.013319620664    12.000000000000
         H            0.122080815189    -2.175878233466     0.013347620664     1.007825032230
         H            0.219156815189     2.173713766534    -0.024151379336     1.007825032230
         H           -2.225979184811    -1.252048233466     0.030689620664     1.007825032230
         H           -2.353348184811     1.260192766534     0.017677620664     1.007825032230
         H            2.528048815189    -0.898097233466     0.163623620664     1.007825032230
         H            2.536318815189     0.701294766534     0.529586620664     1.007825032230

  Basis Set: AUG-CC-PVTZ
    Blend: AUG-CC-PVTZ
  Basis Set: (AUG-CC-PVTZ AUX)
    Blend: AUG-CC-PVTZ-JKFIT
	 Reference Energy          =    -263.9290717547734175 [Eh]
	 Singles Energy            =      -0.0000000000000000 [Eh]
	 Same-Spin Energy          =      -0.2892108760548971 [Eh]
	 Opposite-Spin Energy      =      -0.8981383434516649 [Eh]
	 Correlation Energy        =      -1.1873492195065620 [Eh]
	 Total Energy              =    -265.1164209742800040 [Eh]

	 ================> DF-SCS-MP2 Energies <==================
	-----------------------------------------------------------
	 SCS Same-Spin Scale       =       0.3333333333333333 [-]
	 SCS Opposite-Spin Scale   =       1.2000000000000000 [-]
	 SCS Same-Spin Energy      =      -0.0964036253516324 [Eh]
	 SCS Opposite-Spin Energy  =      -1.0777660121419979 [Eh]
	 SCS Correlation Energy    =      -1.1741696374936301 [Eh]
	 SCS Total Energy          =    -265.1032413922670230 [Eh]
	-----------------------------------------------------------

  Dipole Moment: [D]
     X:    -1.0771      Y:    -1.2986      Z:     1.1920     Total:     2.0657

*** Psi4 exiting successfully. Buy a developer a beer!
