                               Psi4 1.3.2 release

  ==> Input File <==

--------------------------------------------------------------------------
#psi4
#
memory 32 gb

molecule  {
0 1
  N       -1.4165960    -0.6509490     0.0049700
  N        2.1271010     0.0145420    -0.1027660
  C        0.7130329     0.0967268    -0.0323897
  C       -0.1164160    -1.1090330     0.0084540
  C       -0.1198780     1.1527520    -0.0095160
  C       -1.4333080     0.7182450     0.0046470
  H        0.1125540    -2.1658880     0.0046750
  H        0.2096300     2.1837040    -0.0328240
  H       -2.2355060    -1.2420580     0.0220170
  H       -2.3628750     1.2701830     0.0090050
  H        2.5185220    -0.8881070     0.1549510
  H        2.5267920     0.7112850     0.5209140
units angstrom
no_reorient  #important for SAPT in psi4, default
symmetry c1  #important for SAPT in psi4, default
}

set PROPERTIES_ORIGIN ["COM"]
properties('MP2/aug-cc-pvtz', properties = ['dipole'])
--------------------------------------------------------------------------

    Molecular point group: c1
  Charge       = 0
  Multiplicity = 1
  Basis Set: AUG-CC-PVTZ
    Blend: AUG-CC-PVTZ
  Basis Set: (AUG-CC-PVTZ AUX)
    Blend: AUG-CC-PVTZ-JKFIT

    Orbital Energies [Eh]
    ---------------------

    Doubly Occupied:

       1A    -15.610212     2A    -15.552193     3A    -11.253610
       4A    -11.251122     5A    -11.243060     6A    -11.201085
       7A     -1.286901     8A     -1.186297     9A     -1.033651
      10A     -0.951492    11A     -0.804348    12A     -0.751487
      13A     -0.728169    14A     -0.653774    15A     -0.605169
      16A     -0.581115    17A     -0.568630    18A     -0.560001
      19A     -0.519687    20A     -0.462252    21A     -0.333191
      22A     -0.265016

  @DF-RHF Final Energy:  -263.91807896531878

   => Energetics <=

    Nuclear Repulsion Energy =            222.3208147084054076
    One-Electron Energy =                -797.6728642271634726
    Two-Electron Energy =                 311.4339705534393374
    Total Energy =                       -263.9180789653187844
  Basis Set: (AUG-CC-PVTZ AUX)
    Blend: AUG-CC-PVTZ-RI
    Molecular point group: c1

    Geometry (in Angstrom), charge = 0, multiplicity = 1:

       Center              X                  Y                   Z               Mass
    ------------   -----------------  -----------------  -----------------  -----------------
         N           -1.407401469194    -0.666313808418     0.017535666638    14.003074004430
         N            2.136295530806    -0.000822808418    -0.090200333362    14.003074004430
         C            0.722227430806     0.081361991582    -0.019824033362    12.000000000000
         C           -0.107221469194    -1.124397808418     0.021019666638    12.000000000000
         C           -0.110683469194     1.137387191582     0.003049666638    12.000000000000
         C           -1.424113469194     0.702880191582     0.017212666638    12.000000000000
         H            0.121748530806    -2.181252808418     0.017240666638     1.007825032230
         H            0.218824530806     2.168339191582    -0.020258333362     1.007825032230
         H           -2.226311469194    -1.257422808418     0.034582666638     1.007825032230
         H           -2.353680469194     1.254818191582     0.021570666638     1.007825032230
         H            2.527716530806    -0.903471808418     0.167516666638     1.007825032230
         H            2.535986530806     0.695920191582     0.533479666638     1.007825032230

  Basis Set: AUG-CC-PVTZ
    Blend: AUG-CC-PVTZ
  Basis Set: (AUG-CC-PVTZ AUX)
    Blend: AUG-CC-PVTZ-JKFIT
	 Reference Energy          =    -263.9180789653187844 [Eh]
	 Singles Energy            =      -0.0000000000000000 [Eh]
	 Same-Spin Energy          =      -0.2911931422789161 [Eh]
	 Opposite-Spin Energy      =      -0.9005783759147974 [Eh]
	 Correlation Energy        =      -1.1917715181937134 [Eh]
	 Total Energy              =    -265.1098504835125027 [Eh]

	 ================> DF-SCS-MP2 Energies <==================
	-----------------------------------------------------------
	 SCS Same-Spin Scale       =       0.3333333333333333 [-]
	 SCS Opposite-Spin Scale   =       1.2000000000000000 [-]
	 SCS Same-Spin Energy      =      -0.0970643807596387 [Eh]
	 SCS Opposite-Spin Energy  =      -1.0806940510977567 [Eh]
	 SCS Correlation Energy    =      -1.1777584318573955 [Eh]
	 SCS Total Energy          =    -265.0958373971761830 [Eh]
	-----------------------------------------------------------

  Dipole Moment: [D]
     X:    -1.0693      Y:    -1.2289      Z:     1.1862     Total:     2.0151

*** Psi4 exiting successfully. Buy a developer a beer!
