                               Psi4 1.3.2 release

  ==> Input File <==

--------------------------------------------------------------------------
#psi4
#
memory 32 gb

molecule  {
0 1
  N       -1.4165960    -0.6509490     0.0049700
  N        2.1185288     0.1625750    -0.0957719
  C        0.7124930     0.0023240    -0.0026130
  C       -0.1164160    -1.1090330     0.0084540
  C       -0.1198780     1.1527520    -0.0095160
  C       -1.4333080     0.7182450     0.0046470
  H        0.1125540    -2.1658880     0.0046750
  H        0.2096300     2.1837040    -0.0328240
  H       -2.2355060    -1.2420580     0.0220170
  H       -2.3628750     1.2701830     0.0090050
  H        2.5185220    -0.8881070     0.1549510
  H        2.5267920     0.7112850     0.5209140
units angstrom
no_reorient  #important for SAPT in psi4, default
symmetry c1  #important for SAPT in psi4, default
}

set PROPERTIES_ORIGIN ["COM"]
properties('MP2/aug-cc-pvtz', properties = ['dipole'])
--------------------------------------------------------------------------

    Molecular point group: c1
  Charge       = 0
  Multiplicity = 1
  Basis Set: AUG-CC-PVTZ
    Blend: AUG-CC-PVTZ
  Basis Set: (AUG-CC-PVTZ AUX)
    Blend: AUG-CC-PVTZ-JKFIT

    Orbital Energies [Eh]
    ---------------------

    Doubly Occupied:

       1A    -15.602347     2A    -15.557103     3A    -11.255951
       4A    -11.250296     5A    -11.243631     6A    -11.202503
       7A     -1.287035     8A     -1.189941     9A     -1.019759
      10A     -0.967142    11A     -0.791959    12A     -0.762583
      13A     -0.734683    14A     -0.636906    15A     -0.611512
      16A     -0.580846    17A     -0.569214    18A     -0.558448
      19A     -0.502150    20A     -0.468769    21A     -0.322570
      22A     -0.283868

  @DF-RHF Final Energy:  -263.90591563817986

   => Energetics <=

    Nuclear Repulsion Energy =            222.3720981895077102
    One-Electron Energy =                -797.7575947679271167
    Two-Electron Energy =                 311.4795809402395435
    Total Energy =                       -263.9059156381798630
  Basis Set: (AUG-CC-PVTZ AUX)
    Blend: AUG-CC-PVTZ-RI
    Molecular point group: c1

    Geometry (in Angstrom), charge = 0, multiplicity = 1:

       Center              X                  Y                   Z               Mass
    ------------   -----------------  -----------------  -----------------  -----------------
         N           -1.405859590170    -0.677770821922     0.011987316729    14.003074004430
         N            2.129265209830     0.135753178078    -0.088754583271    14.003074004430
         C            0.723229409830    -0.024497821922     0.004404316729    12.000000000000
         C           -0.105679590170    -1.135854821922     0.015471316729    12.000000000000
         C           -0.109141590170     1.125930178078    -0.002498683271    12.000000000000
         C           -1.422571590170     0.691423178078     0.011664316729    12.000000000000
         H            0.123290409830    -2.192709821922     0.011692316729     1.007825032230
         H            0.220366409830     2.156882178078    -0.025806683271     1.007825032230
         H           -2.224769590170    -1.268879821922     0.029034316729     1.007825032230
         H           -2.352138590170     1.243361178078     0.016022316729     1.007825032230
         H            2.529258409830    -0.914928821922     0.161968316729     1.007825032230
         H            2.537528409830     0.684463178078     0.527931316729     1.007825032230

  Basis Set: AUG-CC-PVTZ
    Blend: AUG-CC-PVTZ
  Basis Set: (AUG-CC-PVTZ AUX)
    Blend: AUG-CC-PVTZ-JKFIT
	 Reference Energy          =    -263.9059156381798630 [Eh]
	 Singles Energy            =      -0.0000000000000000 [Eh]
	 Same-Spin Energy          =      -0.2894487993383472 [Eh]
	 Opposite-Spin Energy      =      -0.8994388342381738 [Eh]
	 Correlation Energy        =      -1.1888876335765211 [Eh]
	 Total Energy              =    -265.0948032717564047 [Eh]

	 ================> DF-SCS-MP2 Energies <==================
	-----------------------------------------------------------
	 SCS Same-Spin Scale       =       0.3333333333333333 [-]
	 SCS Opposite-Spin Scale   =       1.2000000000000000 [-]
	 SCS Same-Spin Energy      =      -0.0964829331127824 [Eh]
	 SCS Opposite-Spin Energy  =      -1.0793266010858085 [Eh]
	 SCS Correlation Energy    =      -1.1758095341985908 [Eh]
	 SCS Total Energy          =    -265.0817251723784693 [Eh]
	-----------------------------------------------------------

  Dipole Moment: [D]
     X:    -1.1315      Y:    -1.3780      Z:     1.2001     Total:     2.1493

*** Psi4 exiting successfully. Buy a developer a beer!
