                               Psi4 1.3.2 release

  ==> Input File <==

--------------------------------------------------------------------------
#psi4
#
memory 32 gb

molecule  {
-1 1
  O        1.1365690     1.2999450     0.1428980
  O       -1.4424670    -1.1799650     0.1827610
  O       -1.3575130     1.0293890    -0.3577040
  C        0.7090743     0.1682715     0.3731064
  C        1.4464200    -1.0470520    -0.3590510
  C       -0.8609500    -0.0719650     0.0469300
  H        0.7165270    -0.2335850     1.4896730
  H        1.3388480    -0.8658950    -1.4332610
  H        2.5070550    -0.9809740    -0.0983190
  H        1.0872750    -2.0528800    -0.1336960
  H        0.3068940     1.7456410    -0.1582790
units angstrom
no_reorient  #important for SAPT in psi4, default
symmetry c1  #important for SAPT in psi4, default
}

set PROPERTIES_ORIGIN ["COM"]
properties('MP2/aug-cc-pvtz', properties = ['dipole'])
--------------------------------------------------------------------------

    Molecular point group: c1
  Charge       = -1
  Multiplicity = 1
  Basis Set: AUG-CC-PVTZ
    Blend: AUG-CC-PVTZ
  Basis Set: (AUG-CC-PVTZ AUX)
    Blend: AUG-CC-PVTZ-JKFIT

    Orbital Energies [Eh]
    ---------------------

    Doubly Occupied:

       1A    -20.406113     2A    -20.318046     3A    -20.311939
       4A    -11.151827     5A    -11.123904     6A    -11.064812
       7A     -1.293447     8A     -1.177407     9A     -1.083302
      10A     -0.834716    11A     -0.686585    12A     -0.611284
      13A     -0.507490    14A     -0.499007    15A     -0.464413
      16A     -0.409936    17A     -0.403386    18A     -0.385933
      19A     -0.359913    20A     -0.349882    21A     -0.243480
      22A     -0.232649    23A     -0.214096    24A     -0.195782

  @DF-RHF Final Energy:  -341.23737983039496

   => Energetics <=

    Nuclear Repulsion Energy =            239.9550767847054544
    One-Electron Energy =                -953.7262134989412061
    Two-Electron Energy =                 372.5337568838408515
    Total Energy =                       -341.2373798303949570
  Basis Set: (AUG-CC-PVTZ AUX)
    Blend: AUG-CC-PVTZ-RI
    Molecular point group: c1

    Geometry (in Angstrom), charge = -1, multiplicity = 1:

       Center              X                  Y                   Z               Mass
    ------------   -----------------  -----------------  -----------------  -----------------
         O            1.193501773187     1.248624648537     0.144214802760    15.994914619570
         O           -1.385534226813    -1.231285351463     0.184077802760    15.994914619570
         O           -1.300580226813     0.978068648537    -0.356387197240    15.994914619570
         C            0.766007073187     0.116951148537     0.374423202760    12.000000000000
         C            1.503352773187    -1.098372351463    -0.357734197240    12.000000000000
         C           -0.804017226813    -0.123285351463     0.048246802760    12.000000000000
         H            0.773459773187    -0.284905351463     1.490989802760     1.007825032230
         H            1.395780773187    -0.917215351463    -1.431944197240     1.007825032230
         H            2.563987773187    -1.032294351463    -0.097002197240     1.007825032230
         H            1.144207773187    -2.104200351463    -0.132379197240     1.007825032230
         H            0.363826773187     1.694320648537    -0.156962197240     1.007825032230

  Basis Set: AUG-CC-PVTZ
    Blend: AUG-CC-PVTZ
  Basis Set: (AUG-CC-PVTZ AUX)
    Blend: AUG-CC-PVTZ-JKFIT
	 Reference Energy          =    -341.2373798303949570 [Eh]
	 Singles Energy            =      -0.0000000000000000 [Eh]
	 Same-Spin Energy          =      -0.3377125418567806 [Eh]
	 Opposite-Spin Energy      =      -1.0184038625595204 [Eh]
	 Correlation Energy        =      -1.3561164044163010 [Eh]
	 Total Energy              =    -342.5934962348112549 [Eh]

	 ================> DF-SCS-MP2 Energies <==================
	-----------------------------------------------------------
	 SCS Same-Spin Scale       =       0.3333333333333333 [-]
	 SCS Opposite-Spin Scale   =       1.2000000000000000 [-]
	 SCS Same-Spin Energy      =      -0.1125708472855935 [Eh]
	 SCS Opposite-Spin Energy  =      -1.2220846350714245 [Eh]
	 SCS Correlation Energy    =      -1.3346554823570180 [Eh]
	 SCS Total Energy          =    -342.5720353127519502 [Eh]
	-----------------------------------------------------------

  Dipole Moment: [D]
     X:     3.8305      Y:     0.4730      Z:     0.1515     Total:     3.8625

*** Psi4 exiting successfully. Buy a developer a beer!
