                               Psi4 1.3.2 release

  ==> Input File <==

--------------------------------------------------------------------------
#psi4
#
memory 32 gb

molecule  {
-1 1
  O        1.1365690     1.2999450     0.1428980
  O       -1.4424670    -1.1799650     0.1827610
  O       -1.3575130     1.0293890    -0.3577040
  C        0.6396440    -0.0155260     0.4104950
  C        1.4464200    -1.0470520    -0.3590510
  C       -0.7685489     0.1040924     0.0253469
  H        0.7165270    -0.2335850     1.4896730
  H        1.3388480    -0.8658950    -1.4332610
  H        2.5070550    -0.9809740    -0.0983190
  H        1.0872750    -2.0528800    -0.1336960
  H        0.3068940     1.7456410    -0.1582790
units angstrom
no_reorient  #important for SAPT in psi4, default
symmetry c1  #important for SAPT in psi4, default
}

set PROPERTIES_ORIGIN ["COM"]
properties('MP2/aug-cc-pvtz', properties = ['dipole'])
--------------------------------------------------------------------------

    Molecular point group: c1
  Charge       = -1
  Multiplicity = 1
  Basis Set: AUG-CC-PVTZ
    Blend: AUG-CC-PVTZ
  Basis Set: (AUG-CC-PVTZ AUX)
    Blend: AUG-CC-PVTZ-JKFIT

    Orbital Energies [Eh]
    ---------------------

    Doubly Occupied:

       1A    -20.391459     2A    -20.356943     3A    -20.267377
       4A    -11.152200     5A    -11.125401     6A    -11.076710
       7A     -1.257040     8A     -1.188980     9A     -0.995966
      10A     -0.867586    11A     -0.725224    12A     -0.588632
      13A     -0.520015    14A     -0.493843    15A     -0.447215
      16A     -0.415453    17A     -0.397847    18A     -0.376842
      19A     -0.368923    20A     -0.363720    21A     -0.291122
      22A     -0.218840    23A     -0.183915    24A     -0.176479

  @DF-RHF Final Energy:  -341.22201848190457

   => Energetics <=

    Nuclear Repulsion Energy =            239.7928504433339185
    One-Electron Energy =                -953.5342733259661827
    Two-Electron Energy =                 372.5194044007276943
    Total Energy =                       -341.2220184819045699
  Basis Set: (AUG-CC-PVTZ AUX)
    Blend: AUG-CC-PVTZ-RI
    Molecular point group: c1

    Geometry (in Angstrom), charge = -1, multiplicity = 1:

       Center              X                  Y                   Z               Mass
    ------------   -----------------  -----------------  -----------------  -----------------
         O            1.190405417085     1.249667977714     0.142084295491    15.994914619570
         O           -1.388630582915    -1.230242022286     0.181947295491    15.994914619570
         O           -1.303676582915     0.979111977714    -0.358517704509    15.994914619570
         C            0.693480417085    -0.065803022286     0.409681295491    12.000000000000
         C            1.500256417085    -1.097329022286    -0.359864704509    12.000000000000
         C           -0.714712482915     0.053815377714     0.024533195491    12.000000000000
         H            0.770363417085    -0.283862022286     1.488859295491     1.007825032230
         H            1.392684417085    -0.916172022286    -1.434074704509     1.007825032230
         H            2.560891417085    -1.031251022286    -0.099132704509     1.007825032230
         H            1.141111417085    -2.103157022286    -0.134509704509     1.007825032230
         H            0.360730417085     1.695363977714    -0.159092704509     1.007825032230

  Basis Set: AUG-CC-PVTZ
    Blend: AUG-CC-PVTZ
  Basis Set: (AUG-CC-PVTZ AUX)
    Blend: AUG-CC-PVTZ-JKFIT
	 Reference Energy          =    -341.2220184819045699 [Eh]
	 Singles Energy            =      -0.0000000000000000 [Eh]
	 Same-Spin Energy          =      -0.3381721129926178 [Eh]
	 Opposite-Spin Energy      =      -1.0234925578268765 [Eh]
	 Correlation Energy        =      -1.3616646708194944 [Eh]
	 Total Energy              =    -342.5836831527240633 [Eh]

	 ================> DF-SCS-MP2 Energies <==================
	-----------------------------------------------------------
	 SCS Same-Spin Scale       =       0.3333333333333333 [-]
	 SCS Opposite-Spin Scale   =       1.2000000000000000 [-]
	 SCS Same-Spin Energy      =      -0.1127240376642059 [Eh]
	 SCS Opposite-Spin Energy  =      -1.2281910693922518 [Eh]
	 SCS Correlation Energy    =      -1.3409151070564578 [Eh]
	 SCS Total Energy          =    -342.5629335889610161 [Eh]
	-----------------------------------------------------------

  Dipole Moment: [D]
     X:     4.5072      Y:     1.2816      Z:     0.0605     Total:     4.6863

*** Psi4 exiting successfully. Buy a developer a beer!
