                               Psi4 1.4a3.dev225

  ==> Input File <==

--------------------------------------------------------------------------
#psi4
#
memory 32 gb

molecule  {
-1 1
  O       -1.1681810     1.2683390    -0.1935740
  O        1.4902400    -1.1295240    -0.2243730
  O        1.3027740     1.0522020     0.4123420
  C       -0.6330532    -0.0588600    -0.4215586
  C       -1.4092810    -1.0711850     0.3952000
  C        0.8630350    -0.0522610    -0.0492080
  H       -0.7260590    -0.2876370    -1.4879020
  H       -1.3060210    -0.8470660     1.4617500
  H       -2.4733650    -1.0522610     0.1409170
  H       -1.0158520    -2.0724200     0.2054930
  H       -0.3572580     1.7151740     0.1591030
units angstrom
no_reorient  #important for SAPT in psi4, default
symmetry c1  #important for SAPT in psi4, default
}

set PROPERTIES_ORIGIN ["COM"]
properties('MP2/aug-cc-pvtz', properties = ['dipole'])
--------------------------------------------------------------------------

    Molecular point group: c1
  Charge       = -1
  Multiplicity = 1
  Basis Set: AUG-CC-PVTZ
    Blend: AUG-CC-PVTZ
  Basis Set: (AUG-CC-PVTZ AUX)
    Blend: AUG-CC-PVTZ-JKFIT

    Orbital Energies [Eh]
    ---------------------

    Doubly Occupied:

       1A    -20.378513     2A    -20.319222     3A    -20.311474
       4A    -11.153908     5A    -11.115806     6A    -11.072986
       7A     -1.201117     8A     -1.159492     9A     -1.084324
      10A     -0.863741    11A     -0.702017    12A     -0.565575
      13A     -0.498106    14A     -0.476235    15A     -0.436251
      16A     -0.405681    17A     -0.402386    18A     -0.367730
      19A     -0.365769    20A     -0.349350    21A     -0.279897
      22A     -0.235306    23A     -0.216318    24A     -0.214503

  @DF-RHF Final Energy:  -341.27883491586516

   => Energetics <=

    Nuclear Repulsion Energy =            238.8990072945319696
    One-Electron Energy =                -952.0042705492912773
    Two-Electron Energy =                 371.8264283388941180
    Total Energy =                       -341.2788349158651613
  Basis Set: (AUG-CC-PVTZ AUX)
    Blend: AUG-CC-PVTZ-RI
    Molecular point group: c1

    Geometry (in Angstrom), charge = -1, multiplicity = 1:

       Center              X                  Y                   Z               Mass
    ------------   -----------------  -----------------  -----------------  -----------------
         O           -1.234600488266     1.242520927549    -0.187807696122    15.994914619570
         O            1.423820511734    -1.155342072451    -0.218606696122    15.994914619570
         O            1.236354511734     1.026383927549     0.418108303878    15.994914619570
         C           -0.699472688266    -0.084678072451    -0.415792296122    12.000000000000
         C           -1.475700488266    -1.097003072451     0.400966303878    12.000000000000
         C            0.796615511734    -0.078079072451    -0.043441696122    12.000000000000
         H           -0.792478488266    -0.313455072451    -1.482135696122     1.007825032230
         H           -1.372440488266    -0.872884072451     1.467516303878     1.007825032230
         H           -2.539784488266    -1.078079072451     0.146683303878     1.007825032230
         H           -1.082271488266    -2.098238072451     0.211259303878     1.007825032230
         H           -0.423677488266     1.689355927549     0.164869303878     1.007825032230

  Basis Set: AUG-CC-PVTZ
    Blend: AUG-CC-PVTZ
  Basis Set: (AUG-CC-PVTZ AUX)
    Blend: AUG-CC-PVTZ-JKFIT
	 Reference Energy          =    -341.2788349158651613 [Eh]
	 Singles Energy            =      -0.0000000000000000 [Eh]
	 Same-Spin Energy          =      -0.3366780819956531 [Eh]
	 Opposite-Spin Energy      =      -1.0196127588653561 [Eh]
	 Correlation Energy        =      -1.3562908408610093 [Eh]
	 Total Energy              =    -342.6351257567261541 [Eh]

	 ================> DF-SCS-MP2 Energies <==================
	-----------------------------------------------------------
	 SCS Same-Spin Scale       =       0.3333333333333333 [-]
	 SCS Opposite-Spin Scale   =       1.2000000000000000 [-]
	 SCS Same-Spin Energy      =      -0.1122260273318844 [Eh]
	 SCS Opposite-Spin Energy  =      -1.2235353106384272 [Eh]
	 SCS Correlation Energy    =      -1.3357613379703117 [Eh]
	 SCS Total Energy          =    -342.6145962538354866 [Eh]
	-----------------------------------------------------------

  Dipole Moment: [D]
     X:    -3.7315      Y:    -0.6945      Z:    -0.3087     Total:     3.8081

*** Psi4 exiting successfully. Buy a developer a beer!
