                               Psi4 1.4a3.dev225

  ==> Input File <==

--------------------------------------------------------------------------
#psi4
#
memory 32 gb

molecule  {
-1 1
  O       -1.1681810     1.2683390    -0.1935740
  O        1.4902400    -1.1295240    -0.2243730
  O        1.3027740     1.0522020     0.4123420
  C       -0.6404390    -0.0405420    -0.4184120
  C       -1.4092810    -1.0711850     0.3952000
  C        0.8630350    -0.0522610    -0.0492080
  H       -0.7245037    -0.2831484    -1.4684743
  H       -1.3060210    -0.8470660     1.4617500
  H       -2.4733650    -1.0522610     0.1409170
  H       -1.0158520    -2.0724200     0.2054930
  H       -0.3572580     1.7151740     0.1591030
units angstrom
no_reorient  #important for SAPT in psi4, default
symmetry c1  #important for SAPT in psi4, default
}

set PROPERTIES_ORIGIN ["COM"]
properties('MP2/aug-cc-pvtz', properties = ['dipole'])
--------------------------------------------------------------------------

    Molecular point group: c1
  Charge       = -1
  Multiplicity = 1
  Basis Set: AUG-CC-PVTZ
    Blend: AUG-CC-PVTZ
  Basis Set: (AUG-CC-PVTZ AUX)
    Blend: AUG-CC-PVTZ-JKFIT

    Orbital Energies [Eh]
    ---------------------

    Doubly Occupied:

       1A    -20.380323     2A    -20.318870     3A    -20.311459
       4A    -11.153452     5A    -11.113079     6A    -11.072043
       7A     -1.204415     8A     -1.163323     9A     -1.084113
      10A     -0.861561    11A     -0.701629    12A     -0.568192
      13A     -0.499568    14A     -0.477919    15A     -0.436461
      16A     -0.405814    17A     -0.401586    18A     -0.371680
      19A     -0.365600    20A     -0.350045    21A     -0.278969
      22A     -0.234892    23A     -0.215296    24A     -0.214283

  @DF-RHF Final Energy:  -341.27979531386131

   => Energetics <=

    Nuclear Repulsion Energy =            239.0778928893867885
    One-Electron Energy =                -952.3462357741100277
    Two-Electron Energy =                 371.9885475708618969
    Total Energy =                       -341.2797953138613138
  Basis Set: (AUG-CC-PVTZ AUX)
    Blend: AUG-CC-PVTZ-RI
    Molecular point group: c1

    Geometry (in Angstrom), charge = -1, multiplicity = 1:

       Center              X                  Y                   Z               Mass
    ------------   -----------------  -----------------  -----------------  -----------------
         O           -1.233622524370     1.240000932340    -0.188451780939    15.994914619570
         O            1.424798475630    -1.157862067660    -0.219250780939    15.994914619570
         O            1.237332475630     1.023863932340     0.417464219061    15.994914619570
         C           -0.705880524370    -0.068880067660    -0.413289780939    12.000000000000
         C           -1.474722524370    -1.099523067660     0.400322219061    12.000000000000
         C            0.797593475630    -0.080599067660    -0.044085780939    12.000000000000
         H           -0.789945224370    -0.311486467660    -1.463352080939     1.007825032230
         H           -1.371462524370    -0.875404067660     1.466872219061     1.007825032230
         H           -2.538806524370    -1.080599067660     0.146039219061     1.007825032230
         H           -1.081293524370    -2.100758067660     0.210615219061     1.007825032230
         H           -0.422699524370     1.686835932340     0.164225219061     1.007825032230

  Basis Set: AUG-CC-PVTZ
    Blend: AUG-CC-PVTZ
  Basis Set: (AUG-CC-PVTZ AUX)
    Blend: AUG-CC-PVTZ-JKFIT
	 Reference Energy          =    -341.2797953138613138 [Eh]
	 Singles Energy            =      -0.0000000000000000 [Eh]
	 Same-Spin Energy          =      -0.3366024345327341 [Eh]
	 Opposite-Spin Energy      =      -1.0191072714663965 [Eh]
	 Correlation Energy        =      -1.3557097059991305 [Eh]
	 Total Energy              =    -342.6355050198604317 [Eh]

	 ================> DF-SCS-MP2 Energies <==================
	-----------------------------------------------------------
	 SCS Same-Spin Scale       =       0.3333333333333333 [-]
	 SCS Opposite-Spin Scale   =       1.2000000000000000 [-]
	 SCS Same-Spin Energy      =      -0.1122008115109114 [Eh]
	 SCS Opposite-Spin Energy  =      -1.2229287257596757 [Eh]
	 SCS Correlation Energy    =      -1.3351295372705871 [Eh]
	 SCS Total Energy          =    -342.6149248511318888 [Eh]
	-----------------------------------------------------------

  Dipole Moment: [D]
     X:    -3.7448      Y:    -0.6201      Z:    -0.3180     Total:     3.8091

*** Psi4 exiting successfully. Buy a developer a beer!
