                               Psi4 1.4a3.dev225

  ==> Input File <==

--------------------------------------------------------------------------
#psi4
#
memory 32 gb

molecule  {
-1 1
  O       -1.1681810     1.2683390    -0.1935740
  O        1.4902400    -1.1295240    -0.2243730
  O        1.3027740     1.0522020     0.4123420
  C       -0.6404390    -0.0405420    -0.4184120
  C       -1.4193866    -1.0847317     0.4058941
  C        0.8630350    -0.0522610    -0.0492080
  H       -0.7260590    -0.2876370    -1.4879020
  H       -1.3060210    -0.8470660     1.4617500
  H       -2.4733650    -1.0522610     0.1409170
  H       -1.0158520    -2.0724200     0.2054930
  H       -0.3572580     1.7151740     0.1591030
units angstrom
no_reorient  #important for SAPT in psi4, default
symmetry c1  #important for SAPT in psi4, default
}

set PROPERTIES_ORIGIN ["COM"]
properties('MP2/aug-cc-pvtz', properties = ['dipole'])
--------------------------------------------------------------------------

    Molecular point group: c1
  Charge       = -1
  Multiplicity = 1
  Basis Set: AUG-CC-PVTZ
    Blend: AUG-CC-PVTZ
  Basis Set: (AUG-CC-PVTZ AUX)
    Blend: AUG-CC-PVTZ-JKFIT

    Orbital Energies [Eh]
    ---------------------

    Doubly Occupied:

       1A    -20.380891     2A    -20.318982     3A    -20.311424
       4A    -11.153622     5A    -11.116772     6A    -11.071431
       7A     -1.204365     8A     -1.163409     9A     -1.084116
      10A     -0.858210    11A     -0.701559    12A     -0.566678
      13A     -0.498560    14A     -0.476451    15A     -0.435587
      16A     -0.408238    17A     -0.401338    18A     -0.373253
      19A     -0.365716    20A     -0.350234    21A     -0.276224
      22A     -0.235083    23A     -0.215392    24A     -0.214291

  @DF-RHF Final Energy:  -341.27950888929166

   => Energetics <=

    Nuclear Repulsion Energy =            238.6578511717626725
    One-Electron Energy =                -951.5110696580902641
    Two-Electron Energy =                 371.5737095970359292
    Total Energy =                       -341.2795088892916624
  Basis Set: (AUG-CC-PVTZ AUX)
    Blend: AUG-CC-PVTZ-RI
    Molecular point group: c1

    Geometry (in Angstrom), charge = -1, multiplicity = 1:

       Center              X                  Y                   Z               Mass
    ------------   -----------------  -----------------  -----------------  -----------------
         O           -1.232242729585     1.241877778688    -0.189673357566    15.994914619570
         O            1.426178270415    -1.155985221312    -0.220472357566    15.994914619570
         O            1.238712270415     1.025740778688     0.416242642434    15.994914619570
         C           -0.704500729585    -0.067003221312    -0.414511357566    12.000000000000
         C           -1.483448329585    -1.111192921312     0.409794742434    12.000000000000
         C            0.798973270415    -0.078722221312    -0.045307357566    12.000000000000
         H           -0.790120729585    -0.314098221312    -1.484001357566     1.007825032230
         H           -1.370082729585    -0.873527221312     1.465650642434     1.007825032230
         H           -2.537426729585    -1.078722221312     0.144817642434     1.007825032230
         H           -1.079913729585    -2.098881221312     0.209393642434     1.007825032230
         H           -0.421319729585     1.688712778688     0.163003642434     1.007825032230

  Basis Set: AUG-CC-PVTZ
    Blend: AUG-CC-PVTZ
  Basis Set: (AUG-CC-PVTZ AUX)
    Blend: AUG-CC-PVTZ-JKFIT
	 Reference Energy          =    -341.2795088892916624 [Eh]
	 Singles Energy            =      -0.0000000000000000 [Eh]
	 Same-Spin Energy          =      -0.3365263312754371 [Eh]
	 Opposite-Spin Energy      =      -1.0191658351298902 [Eh]
	 Correlation Energy        =      -1.3556921664053272 [Eh]
	 Total Energy              =    -342.6352010556969958 [Eh]

	 ================> DF-SCS-MP2 Energies <==================
	-----------------------------------------------------------
	 SCS Same-Spin Scale       =       0.3333333333333333 [-]
	 SCS Opposite-Spin Scale   =       1.2000000000000000 [-]
	 SCS Same-Spin Energy      =      -0.1121754437584790 [Eh]
	 SCS Opposite-Spin Energy  =      -1.2229990021558683 [Eh]
	 SCS Correlation Energy    =      -1.3351744459143473 [Eh]
	 SCS Total Energy          =    -342.6146833352059957 [Eh]
	-----------------------------------------------------------

  Dipole Moment: [D]
     X:    -3.7508      Y:    -0.6071      Z:    -0.2988     Total:     3.8113

*** Psi4 exiting successfully. Buy a developer a beer!
