                               Psi4 1.3.2 release

  ==> Input File <==

--------------------------------------------------------------------------
#psi4
#
memory 32 gb

molecule  {
-1 1
  O        1.1365690     1.2999450     0.1428980
  O       -1.4424670    -1.1799650     0.1827610
  O       -1.3575130     1.0293890    -0.3577040
  C        0.6396440    -0.0155260     0.4104950
  C        1.4464200    -1.0470520    -0.3590510
  C       -0.8609500    -0.0719650     0.0469300
  H        0.7165270    -0.2335850     1.4896730
  H        1.3388480    -0.8658950    -1.4332610
  H        2.5070550    -0.9809740    -0.0983190
  H        1.0872750    -2.0528800    -0.1336960
  H        0.4747096     1.6554916    -0.0973609
units angstrom
no_reorient  #important for SAPT in psi4, default
symmetry c1  #important for SAPT in psi4, default
}

set PROPERTIES_ORIGIN ["COM"]
properties('MP2/aug-cc-pvtz', properties = ['dipole'])
--------------------------------------------------------------------------

    Molecular point group: c1
  Charge       = -1
  Multiplicity = 1
  Basis Set: AUG-CC-PVTZ
    Blend: AUG-CC-PVTZ
  Basis Set: (AUG-CC-PVTZ AUX)
    Blend: AUG-CC-PVTZ-JKFIT

    Orbital Energies [Eh]
    ---------------------

    Doubly Occupied:

       1A    -20.372181     2A    -20.311098     3A    -20.308294
       4A    -11.151110     5A    -11.120098     6A    -11.074252
       7A     -1.254073     8A     -1.174288     9A     -1.079072
      10A     -0.873543    11A     -0.709335    12A     -0.597840
      13A     -0.508856    14A     -0.479018    15A     -0.440574
      16A     -0.416524    17A     -0.399633    18A     -0.381012
      19A     -0.376333    20A     -0.349929    21A     -0.289323
      22A     -0.228870    23A     -0.214304    24A     -0.209007

  @DF-RHF Final Energy:  -341.24043811026172

   => Energetics <=

    Nuclear Repulsion Energy =            240.0695091991673280
    One-Electron Energy =                -953.9827655282489332
    Two-Electron Energy =                 372.6728182188198844
    Total Energy =                       -341.2404381102617208
  Basis Set: (AUG-CC-PVTZ AUX)
    Blend: AUG-CC-PVTZ-RI
    Molecular point group: c1

    Geometry (in Angstrom), charge = -1, multiplicity = 1:

       Center              X                  Y                   Z               Mass
    ------------   -----------------  -----------------  -----------------  -----------------
         O            1.200960838321     1.274420256470     0.138485350741    15.994914619570
         O           -1.378075161679    -1.205489743530     0.178348350741    15.994914619570
         O           -1.293121161679     1.003864256470    -0.362116649259    15.994914619570
         C            0.704035838321    -0.041050743530     0.406082350741    12.000000000000
         C            1.510811838321    -1.072576743530    -0.363463649259    12.000000000000
         C           -0.796558161679    -0.097489743530     0.042517350741    12.000000000000
         H            0.780918838321    -0.259109743530     1.485260350741     1.007825032230
         H            1.403239838321    -0.891419743530    -1.437673649259     1.007825032230
         H            2.571446838321    -1.006498743530    -0.102731649259     1.007825032230
         H            1.151666838321    -2.078404743530    -0.138108649259     1.007825032230
         H            0.539101438321     1.629966856470    -0.101773549259     1.007825032230

  Basis Set: AUG-CC-PVTZ
    Blend: AUG-CC-PVTZ
  Basis Set: (AUG-CC-PVTZ AUX)
    Blend: AUG-CC-PVTZ-JKFIT
	 Reference Energy          =    -341.2404381102617208 [Eh]
	 Singles Energy            =      -0.0000000000000000 [Eh]
	 Same-Spin Energy          =      -0.3333222103327815 [Eh]
	 Opposite-Spin Energy      =      -1.0132701684367873 [Eh]
	 Correlation Energy        =      -1.3465923787695688 [Eh]
	 Total Energy              =    -342.5870304890312923 [Eh]

	 ================> DF-SCS-MP2 Energies <==================
	-----------------------------------------------------------
	 SCS Same-Spin Scale       =       0.3333333333333333 [-]
	 SCS Opposite-Spin Scale   =       1.2000000000000000 [-]
	 SCS Same-Spin Energy      =      -0.1111074034442605 [Eh]
	 SCS Opposite-Spin Energy  =      -1.2159242021241448 [Eh]
	 SCS Correlation Energy    =      -1.3270316055684053 [Eh]
	 SCS Total Energy          =    -342.5674697158301001 [Eh]
	-----------------------------------------------------------

  Dipole Moment: [D]
     X:     4.1906      Y:    -0.5261      Z:     0.4705     Total:     4.2496

*** Psi4 exiting successfully. Buy a developer a beer!
