                               Psi4 1.4a3.dev225

  ==> Input File <==

--------------------------------------------------------------------------
#psi4
#
memory 32 gb

molecule  {
-1 1
  O       -1.1681810     1.2683390    -0.1935740
  O        1.4902400    -1.1295240    -0.2243730
  O        1.3027740     1.0522020     0.4123420
  C       -0.6404390    -0.0405420    -0.4184120
  C       -1.3991754    -1.0576383     0.3845059
  C        0.8630350    -0.0522610    -0.0492080
  H       -0.7260590    -0.2876370    -1.4879020
  H       -1.3060210    -0.8470660     1.4617500
  H       -2.4733650    -1.0522610     0.1409170
  H       -1.0158520    -2.0724200     0.2054930
  H       -0.3572580     1.7151740     0.1591030
units angstrom
no_reorient  #important for SAPT in psi4, default
symmetry c1  #important for SAPT in psi4, default
}

set PROPERTIES_ORIGIN ["COM"]
properties('MP2/aug-cc-pvtz', properties = ['dipole'])
--------------------------------------------------------------------------

    Molecular point group: c1
  Charge       = -1
  Multiplicity = 1
  Basis Set: AUG-CC-PVTZ
    Blend: AUG-CC-PVTZ
  Basis Set: (AUG-CC-PVTZ AUX)
    Blend: AUG-CC-PVTZ-JKFIT

    Orbital Energies [Eh]
    ---------------------

    Doubly Occupied:

       1A    -20.380685     2A    -20.319141     3A    -20.311584
       4A    -11.153811     5A    -11.114694     6A    -11.073292
       7A     -1.204903     8A     -1.163694     9A     -1.084348
      10A     -0.864147    11A     -0.698948    12A     -0.568163
      13A     -0.499162    14A     -0.478222    15A     -0.438112
      16A     -0.403964    17A     -0.402143    18A     -0.369843
      19A     -0.364300    20A     -0.349435    21A     -0.280209
      22A     -0.234938    23A     -0.215417    24A     -0.214488

  @DF-RHF Final Energy:  -341.27908059362971

   => Energetics <=

    Nuclear Repulsion Energy =            239.2931045260052656
    One-Electron Energy =                -952.7690791814503655
    Two-Electron Energy =                 372.1968940618153283
    Total Energy =                       -341.2790805936297147
  Basis Set: (AUG-CC-PVTZ AUX)
    Blend: AUG-CC-PVTZ-RI
    Molecular point group: c1

    Geometry (in Angstrom), charge = -1, multiplicity = 1:

       Center              X                  Y                   Z               Mass
    ------------   -----------------  -----------------  -----------------  -----------------
         O           -1.234967104549     1.238225715442    -0.186790328522    15.994914619570
         O            1.423453895451    -1.159637284558    -0.217589328522    15.994914619570
         O            1.235987895451     1.022088715442     0.419125671478    15.994914619570
         C           -0.707225104549    -0.070655284558    -0.411628328522    12.000000000000
         C           -1.465961504549    -1.087751584558     0.391289571478    12.000000000000
         C            0.796248895451    -0.082374284558    -0.042424328522    12.000000000000
         H           -0.792845104549    -0.317750284558    -1.481118328522     1.007825032230
         H           -1.372807104549    -0.877179284558     1.468533671478     1.007825032230
         H           -2.540151104549    -1.082374284558     0.147700671478     1.007825032230
         H           -1.082638104549    -2.102533284558     0.212276671478     1.007825032230
         H           -0.424044104549     1.685060715442     0.165886671478     1.007825032230

  Basis Set: AUG-CC-PVTZ
    Blend: AUG-CC-PVTZ
  Basis Set: (AUG-CC-PVTZ AUX)
    Blend: AUG-CC-PVTZ-JKFIT
	 Reference Energy          =    -341.2790805936297147 [Eh]
	 Singles Energy            =      -0.0000000000000000 [Eh]
	 Same-Spin Energy          =      -0.3367480833704189 [Eh]
	 Opposite-Spin Energy      =      -1.0193714834215075 [Eh]
	 Correlation Energy        =      -1.3561195667919264 [Eh]
	 Total Energy              =    -342.6352001604216184 [Eh]

	 ================> DF-SCS-MP2 Energies <==================
	-----------------------------------------------------------
	 SCS Same-Spin Scale       =       0.3333333333333333 [-]
	 SCS Opposite-Spin Scale   =       1.2000000000000000 [-]
	 SCS Same-Spin Energy      =      -0.1122493611234730 [Eh]
	 SCS Opposite-Spin Energy  =      -1.2232457801058090 [Eh]
	 SCS Correlation Energy    =      -1.3354951412292819 [Eh]
	 SCS Total Energy          =    -342.6145757348589882 [Eh]
	-----------------------------------------------------------

  Dipole Moment: [D]
     X:    -3.7337      Y:    -0.6164      Z:    -0.3009     Total:     3.7962

*** Psi4 exiting successfully. Buy a developer a beer!
