                               Psi4 1.3.2 release

  ==> Input File <==

--------------------------------------------------------------------------
#psi4
#
memory 32 gb

molecule  {
-1 1
  O        1.1365690     1.2999450     0.1428980
  O       -1.4424670    -1.1799650     0.1827610
  O       -1.3772244     1.0193865    -0.3601287
  C        0.6388262    -0.0416990     0.4169333
  C        1.4464200    -1.0470520    -0.3590510
  C       -0.8609500    -0.0719650     0.0469300
  H        0.7165270    -0.2335850     1.4896730
  H        1.3388480    -0.8658950    -1.4332610
  H        2.5070550    -0.9809740    -0.0983190
  H        1.0872750    -2.0528800    -0.1336960
  H        0.3068940     1.7456410    -0.1582790
units angstrom
no_reorient  #important for SAPT in psi4, default
symmetry c1  #important for SAPT in psi4, default
}

set PROPERTIES_ORIGIN ["COM"]
properties('MP2/aug-cc-pvtz', properties = ['dipole'])
--------------------------------------------------------------------------

    Molecular point group: c1
  Charge       = -1
  Multiplicity = 1
  Basis Set: AUG-CC-PVTZ
    Blend: AUG-CC-PVTZ
  Basis Set: (AUG-CC-PVTZ AUX)
    Blend: AUG-CC-PVTZ-JKFIT

    Orbital Energies [Eh]
    ---------------------

    Doubly Occupied:

       1A    -20.380200     2A    -20.317372     3A    -20.308733
       4A    -11.152412     5A    -11.117527     6A    -11.073191
       7A     -1.199212     8A     -1.159099     9A     -1.081304
      10A     -0.866995    11A     -0.702794    12A     -0.564389
      13A     -0.499114    14A     -0.476708    15A     -0.435856
      16A     -0.404415    17A     -0.401803    18A     -0.369418
      19A     -0.365430    20A     -0.348572    21A     -0.283217
      22A     -0.232683    23A     -0.215172    24A     -0.212068

  @DF-RHF Final Energy:  -341.27817197768991

   => Energetics <=

    Nuclear Repulsion Energy =            238.6283531665377780
    One-Electron Energy =                -951.4776862881143416
    Two-Electron Energy =                 371.5711611438866839
    Total Energy =                       -341.2781719776899081
  Basis Set: (AUG-CC-PVTZ AUX)
    Blend: AUG-CC-PVTZ-RI
    Molecular point group: c1

    Geometry (in Angstrom), charge = -1, multiplicity = 1:

       Center              X                  Y                   Z               Mass
    ------------   -----------------  -----------------  -----------------  -----------------
         O            1.206512433954     1.278724835857     0.138742787941    15.994914619570
         O           -1.372523566046    -1.201185164143     0.178605787941    15.994914619570
         O           -1.307280966046     0.998166335857    -0.364283912059    15.994914619570
         C            0.708769633954    -0.062919164143     0.412778087941    12.000000000000
         C            1.516363433954    -1.068272164143    -0.363206212059    12.000000000000
         C           -0.791006566046    -0.093185164143     0.042774787941    12.000000000000
         H            0.786470433954    -0.254805164143     1.485517787941     1.007825032230
         H            1.408791433954    -0.887115164143    -1.437416212059     1.007825032230
         H            2.576998433954    -1.002194164143    -0.102474212059     1.007825032230
         H            1.157218433954    -2.074100164143    -0.137851212059     1.007825032230
         H            0.376837433954     1.724420835857    -0.162434212059     1.007825032230

  Basis Set: AUG-CC-PVTZ
    Blend: AUG-CC-PVTZ
  Basis Set: (AUG-CC-PVTZ AUX)
    Blend: AUG-CC-PVTZ-JKFIT
	 Reference Energy          =    -341.2781719776899081 [Eh]
	 Singles Energy            =      -0.0000000000000000 [Eh]
	 Same-Spin Energy          =      -0.3364739157113695 [Eh]
	 Opposite-Spin Energy      =      -1.0194241045064607 [Eh]
	 Correlation Energy        =      -1.3558980202178301 [Eh]
	 Total Energy              =    -342.6340699979077158 [Eh]

	 ================> DF-SCS-MP2 Energies <==================
	-----------------------------------------------------------
	 SCS Same-Spin Scale       =       0.3333333333333333 [-]
	 SCS Opposite-Spin Scale   =       1.2000000000000000 [-]
	 SCS Same-Spin Energy      =      -0.1121579719037898 [Eh]
	 SCS Opposite-Spin Energy  =      -1.2233089254077527 [Eh]
	 SCS Correlation Energy    =      -1.3354668973115424 [Eh]
	 SCS Total Energy          =    -342.6136388750014703 [Eh]
	-----------------------------------------------------------

  Dipole Moment: [D]
     X:     3.8499      Y:    -0.5741      Z:     0.4001     Total:     3.9129

*** Psi4 exiting successfully. Buy a developer a beer!
