                               Psi4 1.3.2 release

  ==> Input File <==

--------------------------------------------------------------------------
#psi4
#
memory 32 gb

molecule  {
-1 1
  O        1.1365690     1.2999450     0.1428980
  O       -1.3853592    -1.2054273     0.2035639
  O       -1.2974805     1.0573568    -0.3497532
  C        0.6396440    -0.0155260     0.4104950
  C        1.4464200    -1.0470520    -0.3590510
  C       -0.8609500    -0.0719650     0.0469300
  H        0.7165270    -0.2335850     1.4896730
  H        1.3388480    -0.8658950    -1.4332610
  H        2.5070550    -0.9809740    -0.0983190
  H        1.0872750    -2.0528800    -0.1336960
  H        0.3068940     1.7456410    -0.1582790
units angstrom
no_reorient  #important for SAPT in psi4, default
symmetry c1  #important for SAPT in psi4, default
}

set PROPERTIES_ORIGIN ["COM"]
properties('MP2/aug-cc-pvtz', properties = ['dipole'])
--------------------------------------------------------------------------

    Molecular point group: c1
  Charge       = -1
  Multiplicity = 1
  Basis Set: AUG-CC-PVTZ
    Blend: AUG-CC-PVTZ
  Basis Set: (AUG-CC-PVTZ AUX)
    Blend: AUG-CC-PVTZ-JKFIT

    Orbital Energies [Eh]
    ---------------------

    Doubly Occupied:

       1A    -20.374106     2A    -20.323921     3A    -20.316206
       4A    -11.156014     5A    -11.108392     6A    -11.067808
       7A     -1.204339     8A     -1.159627     9A     -1.093954
      10A     -0.856741    11A     -0.696466    12A     -0.562086
      13A     -0.503329    14A     -0.475167    15A     -0.437010
      16A     -0.405363    17A     -0.397603    18A     -0.369914
      19A     -0.362405    20A     -0.349079    21A     -0.274414
      22A     -0.241398    23A     -0.220700    24A     -0.210962

  @DF-RHF Final Energy:  -341.27748024271631

   => Energetics <=

    Nuclear Repulsion Energy =            239.7911905188958031
    One-Electron Energy =                -953.8033361105237873
    Two-Electron Energy =                 372.7346653489117330
    Total Energy =                       -341.2774802427163081
  Basis Set: (AUG-CC-PVTZ AUX)
    Blend: AUG-CC-PVTZ-RI
    Molecular point group: c1

    Geometry (in Angstrom), charge = -1, multiplicity = 1:

       Center              X                  Y                   Z               Mass
    ------------   -----------------  -----------------  -----------------  -----------------
         O            1.181814059448     1.272949526407     0.134008818831    15.994914619570
         O           -1.340114140552    -1.232422773593     0.194674718831    15.994914619570
         O           -1.252235440552     1.030361326407    -0.358642381169    15.994914619570
         C            0.684889059448    -0.042521473593     0.401605818831    12.000000000000
         C            1.491665059448    -1.074047473593    -0.367940181169    12.000000000000
         C           -0.815704940552    -0.098960473593     0.038040818831    12.000000000000
         H            0.761772059448    -0.260580473593     1.480783818831     1.007825032230
         H            1.384093059448    -0.892890473593    -1.442150181169     1.007825032230
         H            2.552300059448    -1.007969473593    -0.107208181169     1.007825032230
         H            1.132520059448    -2.079875473593    -0.142585181169     1.007825032230
         H            0.352139059448     1.718645526407    -0.167168181169     1.007825032230

  Basis Set: AUG-CC-PVTZ
    Blend: AUG-CC-PVTZ
  Basis Set: (AUG-CC-PVTZ AUX)
    Blend: AUG-CC-PVTZ-JKFIT
	 Reference Energy          =    -341.2774802427163081 [Eh]
	 Singles Energy            =      -0.0000000000000000 [Eh]
	 Same-Spin Energy          =      -0.3369355041237995 [Eh]
	 Opposite-Spin Energy      =      -1.0194987901434196 [Eh]
	 Correlation Energy        =      -1.3564342942672192 [Eh]
	 Total Energy              =    -342.6339145369835251 [Eh]

	 ================> DF-SCS-MP2 Energies <==================
	-----------------------------------------------------------
	 SCS Same-Spin Scale       =       0.3333333333333333 [-]
	 SCS Opposite-Spin Scale   =       1.2000000000000000 [-]
	 SCS Same-Spin Energy      =      -0.1123118347079332 [Eh]
	 SCS Opposite-Spin Energy  =      -1.2233985481721035 [Eh]
	 SCS Correlation Energy    =      -1.3357103828800367 [Eh]
	 SCS Total Energy          =    -342.6131906255963600 [Eh]
	-----------------------------------------------------------

  Dipole Moment: [D]
     X:     3.4194      Y:    -0.4905      Z:     0.3139     Total:     3.4687

*** Psi4 exiting successfully. Buy a developer a beer!
