                               Psi4 1.3.2 release

  ==> Input File <==

--------------------------------------------------------------------------
#psi4
#
memory 32 gb

molecule  {
-1 1
  O        1.1365690     1.2999450     0.1428980
  O       -1.4236005    -1.1887935     0.1897395
  O       -1.3376454     1.0390510    -0.3551759
  C        0.6396440    -0.0155260     0.4104950
  C        1.4464200    -1.0470520    -0.3590510
  C       -0.8609500    -0.0719650     0.0469300
  H        0.7165270    -0.2335850     1.4896730
  H        1.3388480    -0.8658950    -1.4332610
  H        2.5070550    -0.9809740    -0.0983190
  H        1.0872750    -2.0528800    -0.1336960
  H        0.3068940     1.7456410    -0.1582790
units angstrom
no_reorient  #important for SAPT in psi4, default
symmetry c1  #important for SAPT in psi4, default
}

set PROPERTIES_ORIGIN ["COM"]
properties('MP2/aug-cc-pvtz', properties = ['dipole'])
--------------------------------------------------------------------------

    Molecular point group: c1
  Charge       = -1
  Multiplicity = 1
  Basis Set: AUG-CC-PVTZ
    Blend: AUG-CC-PVTZ
  Basis Set: (AUG-CC-PVTZ AUX)
    Blend: AUG-CC-PVTZ-JKFIT

    Orbital Energies [Eh]
    ---------------------

    Doubly Occupied:

       1A    -20.379188     2A    -20.319970     3A    -20.312280
       4A    -11.153726     5A    -11.113699     6A    -11.070582
       7A     -1.204094     8A     -1.162248     9A     -1.086957
      10A     -0.860198    11A     -0.699559    12A     -0.564976
      13A     -0.501096    14A     -0.476816    15A     -0.436657
      16A     -0.404342    17A     -0.399687    18A     -0.371434
      19A     -0.365061    20A     -0.349411    21A     -0.277631
      22A     -0.236262    23A     -0.216070    24A     -0.213947

  @DF-RHF Final Energy:  -341.27966704258608

   => Energetics <=

    Nuclear Repulsion Energy =            239.2172886440138484
    One-Electron Energy =                -952.6421272976757564
    Two-Electron Energy =                 372.1451716110758525
    Total Energy =                       -341.2796670425860839
  Basis Set: (AUG-CC-PVTZ AUX)
    Blend: AUG-CC-PVTZ-RI
    Molecular point group: c1

    Geometry (in Angstrom), charge = -1, multiplicity = 1:

       Center              X                  Y                   Z               Mass
    ------------   -----------------  -----------------  -----------------  -----------------
         O            1.195901297943     1.273249934573     0.137466944439    15.994914619570
         O           -1.364268202057    -1.215488565427     0.184308444439    15.994914619570
         O           -1.278313102057     1.012355934573    -0.360606955561    15.994914619570
         C            0.698976297943    -0.042221065427     0.405063944439    12.000000000000
         C            1.505752297943    -1.073747065427    -0.364482055561    12.000000000000
         C           -0.801617702057    -0.098660065427     0.041498944439    12.000000000000
         H            0.775859297943    -0.260280065427     1.484241944439     1.007825032230
         H            1.398180297943    -0.892590065427    -1.438692055561     1.007825032230
         H            2.566387297943    -1.007669065427    -0.103750055561     1.007825032230
         H            1.146607297943    -2.079575065427    -0.139127055561     1.007825032230
         H            0.366226297943     1.718945934573    -0.163710055561     1.007825032230

  Basis Set: AUG-CC-PVTZ
    Blend: AUG-CC-PVTZ
  Basis Set: (AUG-CC-PVTZ AUX)
    Blend: AUG-CC-PVTZ-JKFIT
	 Reference Energy          =    -341.2796670425860839 [Eh]
	 Singles Energy            =      -0.0000000000000000 [Eh]
	 Same-Spin Energy          =      -0.3365955646160728 [Eh]
	 Opposite-Spin Energy      =      -1.0191173089101082 [Eh]
	 Correlation Energy        =      -1.3557128735261810 [Eh]
	 Total Energy              =    -342.6353799161122424 [Eh]

	 ================> DF-SCS-MP2 Energies <==================
	-----------------------------------------------------------
	 SCS Same-Spin Scale       =       0.3333333333333333 [-]
	 SCS Opposite-Spin Scale   =       1.2000000000000000 [-]
	 SCS Same-Spin Energy      =      -0.1121985215386909 [Eh]
	 SCS Opposite-Spin Energy  =      -1.2229407706921298 [Eh]
	 SCS Correlation Energy    =      -1.3351392922308207 [Eh]
	 SCS Total Energy          =    -342.6148063348168762 [Eh]
	-----------------------------------------------------------

  Dipole Moment: [D]
     X:     3.6698      Y:    -0.4811      Z:     0.3549     Total:     3.7181

*** Psi4 exiting successfully. Buy a developer a beer!
