                               Psi4 1.4a3.dev225

  ==> Input File <==

--------------------------------------------------------------------------
#psi4
#
memory 32 gb

molecule  {
-1 1
  O       -1.1681810     1.2683390    -0.1935740
  O        1.4902400    -1.1295240    -0.2243730
  O        1.3027740     1.0522020     0.4123420
  C       -0.6404390    -0.0405420    -0.4184120
  C       -1.4092810    -1.0711850     0.3952000
  C        0.8630350    -0.0522610    -0.0492080
  H       -0.7260590    -0.2876370    -1.4879020
  H       -1.3060210    -0.8470660     1.4617500
  H       -2.4733650    -1.0522610     0.1409170
  H       -1.0158520    -2.0724200     0.2054930
  H       -0.3408886     1.7241939     0.1662222
units angstrom
no_reorient  #important for SAPT in psi4, default
symmetry c1  #important for SAPT in psi4, default
}

set PROPERTIES_ORIGIN ["COM"]
properties('MP2/aug-cc-pvtz', properties = ['dipole'])
--------------------------------------------------------------------------

    Molecular point group: c1
  Charge       = -1
  Multiplicity = 1
  Basis Set: AUG-CC-PVTZ
    Blend: AUG-CC-PVTZ
  Basis Set: (AUG-CC-PVTZ AUX)
    Blend: AUG-CC-PVTZ-JKFIT

    Orbital Energies [Eh]
    ---------------------

    Doubly Occupied:

       1A    -20.380834     2A    -20.320074     3A    -20.311826
       4A    -11.153984     5A    -11.115320     6A    -11.072040
       7A     -1.202636     8A     -1.161221     9A     -1.084812
      10A     -0.860082    11A     -0.699634    12A     -0.564928
      13A     -0.498290    14A     -0.476802    15A     -0.436397
      16A     -0.405258    17A     -0.401375    18A     -0.370909
      19A     -0.363198    20A     -0.350025    21A     -0.277124
      22A     -0.235644    23A     -0.215660    24A     -0.214859

  @DF-RHF Final Energy:  -341.27819591838534

   => Energetics <=

    Nuclear Repulsion Energy =            238.8868104742844025
    One-Electron Energy =                -951.9841508729134603
    Two-Electron Energy =                 371.8191444802437218
    Total Energy =                       -341.2781959183853360
  Basis Set: (AUG-CC-PVTZ AUX)
    Blend: AUG-CC-PVTZ-RI
    Molecular point group: c1

    Geometry (in Angstrom), charge = -1, multiplicity = 1:

       Center              X                  Y                   Z               Mass
    ------------   -----------------  -----------------  -----------------  -----------------
         O           -1.233790232435     1.239949634215    -0.188312438372    15.994914619570
         O            1.424630767565    -1.157913365785    -0.219111438372    15.994914619570
         O            1.237164767565     1.023812634215     0.417603561628    15.994914619570
         C           -0.706048232435    -0.068931365785    -0.413150438372    12.000000000000
         C           -1.474890232435    -1.099574365785     0.400461561628    12.000000000000
         C            0.797425767565    -0.080650365785    -0.043946438372    12.000000000000
         H           -0.791668232435    -0.316026365785    -1.482640438372     1.007825032230
         H           -1.371630232435    -0.875455365785     1.467011561628     1.007825032230
         H           -2.538974232435    -1.080650365785     0.146178561628     1.007825032230
         H           -1.081461232435    -2.100809365785     0.210754561628     1.007825032230
         H           -0.406497832435     1.695804534215     0.171483761628     1.007825032230

  Basis Set: AUG-CC-PVTZ
    Blend: AUG-CC-PVTZ
  Basis Set: (AUG-CC-PVTZ AUX)
    Blend: AUG-CC-PVTZ-JKFIT
	 Reference Energy          =    -341.2781959183853360 [Eh]
	 Singles Energy            =      -0.0000000000000000 [Eh]
	 Same-Spin Energy          =      -0.3369693329817486 [Eh]
	 Opposite-Spin Energy      =      -1.0198924192823791 [Eh]
	 Correlation Energy        =      -1.3568617522641278 [Eh]
	 Total Energy              =    -342.6350576706494735 [Eh]

	 ================> DF-SCS-MP2 Energies <==================
	-----------------------------------------------------------
	 SCS Same-Spin Scale       =       0.3333333333333333 [-]
	 SCS Opposite-Spin Scale   =       1.2000000000000000 [-]
	 SCS Same-Spin Energy      =      -0.1123231109939162 [Eh]
	 SCS Opposite-Spin Energy  =      -1.2238709031388548 [Eh]
	 SCS Correlation Energy    =      -1.3361940141327711 [Eh]
	 SCS Total Energy          =    -342.6143899325181224 [Eh]
	-----------------------------------------------------------

  Dipole Moment: [D]
     X:    -3.6908      Y:    -0.6117      Z:    -0.2865     Total:     3.7521

*** Psi4 exiting successfully. Buy a developer a beer!
