                               Psi4 1.3.2 release

  ==> Input File <==

--------------------------------------------------------------------------
#psi4
#
memory 32 gb

molecule  {
-1 1
  O        1.1365690     1.2999450     0.1428980
  O       -1.4424670    -1.1799650     0.1827610
  O       -1.3575130     1.0293890    -0.3577040
  C        0.6358107    -0.0100648     0.3990417
  C        1.4464200    -1.0470520    -0.3590510
  C       -0.8609500    -0.0719650     0.0469300
  H        0.7165270    -0.2335850     1.4896730
  H        1.3331408    -0.8584654    -1.4313941
  H        2.5070550    -0.9809740    -0.0983190
  H        1.0872750    -2.0528800    -0.1336960
  H        0.3068940     1.7456410    -0.1582790
units angstrom
no_reorient  #important for SAPT in psi4, default
symmetry c1  #important for SAPT in psi4, default
}

set PROPERTIES_ORIGIN ["COM"]
properties('MP2/aug-cc-pvtz', properties = ['dipole'])
--------------------------------------------------------------------------

    Molecular point group: c1
  Charge       = -1
  Multiplicity = 1
  Basis Set: AUG-CC-PVTZ
    Blend: AUG-CC-PVTZ
  Basis Set: (AUG-CC-PVTZ AUX)
    Blend: AUG-CC-PVTZ-JKFIT

    Orbital Energies [Eh]
    ---------------------

    Doubly Occupied:

       1A    -20.382637     2A    -20.317866     3A    -20.310301
       4A    -11.152410     5A    -11.116776     6A    -11.071890
       7A     -1.205997     8A     -1.164802     9A     -1.083362
      10A     -0.861883    11A     -0.701116    12A     -0.567378
      13A     -0.499750    14A     -0.478052    15A     -0.437764
      16A     -0.404523    17A     -0.399255    18A     -0.373487
      19A     -0.366794    20A     -0.349482    21A     -0.277413
      22A     -0.233824    23A     -0.215850    24A     -0.213525

  @DF-RHF Final Energy:  -341.27960343879272

   => Energetics <=

    Nuclear Repulsion Energy =            239.1179442036173555
    One-Electron Energy =                -952.4228221891436306
    Two-Electron Energy =                 372.0252745467334989
    Total Energy =                       -341.2796034387927193
  Basis Set: (AUG-CC-PVTZ AUX)
    Blend: AUG-CC-PVTZ-RI
    Molecular point group: c1

    Geometry (in Angstrom), charge = -1, multiplicity = 1:

       Center              X                  Y                   Z               Mass
    ------------   -----------------  -----------------  -----------------  -----------------
         O            1.203441973144     1.272579436018     0.140697711085    15.994914619570
         O           -1.375594026856    -1.207330563982     0.180560711085    15.994914619570
         O           -1.290640026856     1.002023436018    -0.359904288915    15.994914619570
         C            0.702683673144    -0.037430363982     0.396841411085    12.000000000000
         C            1.513292973144    -1.074417563982    -0.361251288915    12.000000000000
         C           -0.794077026856    -0.099330563982     0.044729711085    12.000000000000
         H            0.783399973144    -0.260950563982     1.487472711085     1.007825032230
         H            1.400013773144    -0.885830963982    -1.433594388915     1.007825032230
         H            2.573927973144    -1.008339563982    -0.100519288915     1.007825032230
         H            1.154147973144    -2.080245563982    -0.135896288915     1.007825032230
         H            0.373766973144     1.718275436018    -0.160479288915     1.007825032230

  Basis Set: AUG-CC-PVTZ
    Blend: AUG-CC-PVTZ
  Basis Set: (AUG-CC-PVTZ AUX)
    Blend: AUG-CC-PVTZ-JKFIT
	 Reference Energy          =    -341.2796034387927193 [Eh]
	 Singles Energy            =      -0.0000000000000000 [Eh]
	 Same-Spin Energy          =      -0.3365144384649378 [Eh]
	 Opposite-Spin Energy      =      -1.0189953593658749 [Eh]
	 Correlation Energy        =      -1.3555097978308126 [Eh]
	 Total Energy              =    -342.6351132366235106 [Eh]

	 ================> DF-SCS-MP2 Energies <==================
	-----------------------------------------------------------
	 SCS Same-Spin Scale       =       0.3333333333333333 [-]
	 SCS Opposite-Spin Scale   =       1.2000000000000000 [-]
	 SCS Same-Spin Energy      =      -0.1121714794883126 [Eh]
	 SCS Opposite-Spin Energy  =      -1.2227944312390500 [Eh]
	 SCS Correlation Energy    =      -1.3349659107273626 [Eh]
	 SCS Total Energy          =    -342.6145693495200817 [Eh]
	-----------------------------------------------------------

  Dipole Moment: [D]
     X:     3.8000      Y:    -0.4508      Z:     0.3504     Total:     3.8427

*** Psi4 exiting successfully. Buy a developer a beer!
