                               Psi4 1.3.2 release

  ==> Input File <==

--------------------------------------------------------------------------
#psi4
#
memory 32 gb

molecule  {
-1 1
  O        1.1390442     1.3014232     0.1550524
  O       -1.4424670    -1.1799650     0.1827610
  O       -1.3575130     1.0293890    -0.3577040
  C        0.6396440    -0.0155260     0.4104950
  C        1.4464200    -1.0470520    -0.3590510
  C       -0.8609500    -0.0719650     0.0469300
  H        0.7203223    -0.2248528     1.4911241
  H        1.3388480    -0.8658950    -1.4332610
  H        2.5070550    -0.9809740    -0.0983190
  H        1.0872750    -2.0528800    -0.1336960
  H        0.3068940     1.7456410    -0.1582790
units angstrom
no_reorient  #important for SAPT in psi4, default
symmetry c1  #important for SAPT in psi4, default
}

set PROPERTIES_ORIGIN ["COM"]
properties('MP2/aug-cc-pvtz', properties = ['dipole'])
--------------------------------------------------------------------------

    Molecular point group: c1
  Charge       = -1
  Multiplicity = 1
  Basis Set: AUG-CC-PVTZ
    Blend: AUG-CC-PVTZ
  Basis Set: (AUG-CC-PVTZ AUX)
    Blend: AUG-CC-PVTZ-JKFIT

    Orbital Energies [Eh]
    ---------------------

    Doubly Occupied:

       1A    -20.381749     2A    -20.318274     3A    -20.310454
       4A    -11.152876     5A    -11.116152     6A    -11.072111
       7A     -1.203642     8A     -1.163166     9A     -1.083467
      10A     -0.861650    11A     -0.700953    12A     -0.566293
      13A     -0.499264    14A     -0.477253    15A     -0.436794
      16A     -0.404627    17A     -0.400254    18A     -0.371874
      19A     -0.366077    20A     -0.349686    21A     -0.278750
      22A     -0.233945    23A     -0.215300    24A     -0.213731

  @DF-RHF Final Energy:  -341.27952168747532

   => Energetics <=

    Nuclear Repulsion Energy =            238.8653701339095505
    One-Electron Energy =                -951.9330975306147593
    Two-Electron Energy =                 371.7882057092298851
    Total Energy =                       -341.2795216874753237
  Basis Set: (AUG-CC-PVTZ AUX)
    Blend: AUG-CC-PVTZ-RI
    Molecular point group: c1

    Geometry (in Angstrom), charge = -1, multiplicity = 1:

       Center              X                  Y                   Z               Mass
    ------------   -----------------  -----------------  -----------------  -----------------
         O            1.204848166920     1.274513445508     0.149129186658    15.994914619570
         O           -1.376663033080    -1.206874754492     0.176837786658    15.994914619570
         O           -1.291709033080     1.002479245508    -0.363627213342    15.994914619570
         C            0.705447966920    -0.042435754492     0.404571786658    12.000000000000
         C            1.512223966920    -1.073961754492    -0.364974213342    12.000000000000
         C           -0.795146033080    -0.098874754492     0.041006786658    12.000000000000
         H            0.786126266920    -0.251762554492     1.485200886658     1.007825032230
         H            1.404651966920    -0.892804754492    -1.439184213342     1.007825032230
         H            2.572858966920    -1.007883754492    -0.104242213342     1.007825032230
         H            1.153078966920    -2.079789754492    -0.139619213342     1.007825032230
         H            0.372697966920     1.718731245508    -0.164202213342     1.007825032230

  Basis Set: AUG-CC-PVTZ
    Blend: AUG-CC-PVTZ
  Basis Set: (AUG-CC-PVTZ AUX)
    Blend: AUG-CC-PVTZ-JKFIT
	 Reference Energy          =    -341.2795216874753237 [Eh]
	 Singles Energy            =      -0.0000000000000000 [Eh]
	 Same-Spin Energy          =      -0.3365451480683705 [Eh]
	 Opposite-Spin Energy      =      -1.0191840798601235 [Eh]
	 Correlation Energy        =      -1.3557292279284940 [Eh]
	 Total Energy              =    -342.6352509154038444 [Eh]

	 ================> DF-SCS-MP2 Energies <==================
	-----------------------------------------------------------
	 SCS Same-Spin Scale       =       0.3333333333333333 [-]
	 SCS Opposite-Spin Scale   =       1.2000000000000000 [-]
	 SCS Same-Spin Energy      =      -0.1121817160227902 [Eh]
	 SCS Opposite-Spin Energy  =      -1.2230208958321482 [Eh]
	 SCS Correlation Energy    =      -1.3352026118549385 [Eh]
	 SCS Total Energy          =    -342.6147242993302484 [Eh]
	-----------------------------------------------------------

  Dipole Moment: [D]
     X:     3.7839      Y:    -0.4853      Z:     0.3589     Total:     3.8317

*** Psi4 exiting successfully. Buy a developer a beer!
