                               Psi4 1.3.2 release

  ==> Input File <==

--------------------------------------------------------------------------
#psi4
#
memory 32 gb

molecule  {
-1 1
  O        1.1340560     1.2983667     0.1307640
  O       -1.4424670    -1.1799650     0.1827610
  O       -1.3575130     1.0293890    -0.3577040
  C        0.6396440    -0.0155260     0.4104950
  C        1.4464200    -1.0470520    -0.3590510
  C       -0.8609500    -0.0719650     0.0469300
  H        0.7127258    -0.2423006     1.4881397
  H        1.3388480    -0.8658950    -1.4332610
  H        2.5070550    -0.9809740    -0.0983190
  H        1.0872750    -2.0528800    -0.1336960
  H        0.3068940     1.7456410    -0.1582790
units angstrom
no_reorient  #important for SAPT in psi4, default
symmetry c1  #important for SAPT in psi4, default
}

set PROPERTIES_ORIGIN ["COM"]
properties('MP2/aug-cc-pvtz', properties = ['dipole'])
--------------------------------------------------------------------------

    Molecular point group: c1
  Charge       = -1
  Multiplicity = 1
  Basis Set: AUG-CC-PVTZ
    Blend: AUG-CC-PVTZ
  Basis Set: (AUG-CC-PVTZ AUX)
    Blend: AUG-CC-PVTZ-JKFIT

    Orbital Energies [Eh]
    ---------------------

    Doubly Occupied:

       1A    -20.381548     2A    -20.317554     3A    -20.310039
       4A    -11.152330     5A    -11.116451     6A    -11.071778
       7A     -1.204755     8A     -1.163788     9A     -1.082983
      10A     -0.862156    11A     -0.701260    12A     -0.566551
      13A     -0.501335    14A     -0.477529    15A     -0.436579
      16A     -0.404215    17A     -0.399725    18A     -0.372428
      19A     -0.366601    20A     -0.349130    21A     -0.279735
      22A     -0.233412    23A     -0.214830    24A     -0.213204

  @DF-RHF Final Energy:  -341.27994798311317

   => Energetics <=

    Nuclear Repulsion Energy =            239.0427975668874581
    One-Electron Energy =                -952.2856589622557522
    Two-Electron Energy =                 371.9629134122551477
    Total Energy =                       -341.2799479831131748
  Basis Set: (AUG-CC-PVTZ AUX)
    Blend: AUG-CC-PVTZ-RI
    Molecular point group: c1

    Geometry (in Angstrom), charge = -1, multiplicity = 1:

       Center              X                  Y                   Z               Mass
    ------------   -----------------  -----------------  -----------------  -----------------
         O            1.200842195360     1.272203630491     0.129238468331    15.994914619570
         O           -1.375680804640    -1.206128069509     0.181235468331    15.994914619570
         O           -1.290726804640     1.003225930491    -0.359229531669    15.994914619570
         C            0.706430195360    -0.041689069509     0.408969468331    12.000000000000
         C            1.513206195360    -1.073215069509    -0.360576531669    12.000000000000
         C           -0.794163804640    -0.098128069509     0.045404468331    12.000000000000
         H            0.779511995360    -0.268463669509     1.486614168331     1.007825032230
         H            1.405634195360    -0.892058069509    -1.434786531669     1.007825032230
         H            2.573841195360    -1.007137069509    -0.099844531669     1.007825032230
         H            1.154061195360    -2.079043069509    -0.135221531669     1.007825032230
         H            0.373680195360     1.719477930491    -0.159804531669     1.007825032230

  Basis Set: AUG-CC-PVTZ
    Blend: AUG-CC-PVTZ
  Basis Set: (AUG-CC-PVTZ AUX)
    Blend: AUG-CC-PVTZ-JKFIT
	 Reference Energy          =    -341.2799479831131748 [Eh]
	 Singles Energy            =      -0.0000000000000000 [Eh]
	 Same-Spin Energy          =      -0.3363961310821001 [Eh]
	 Opposite-Spin Energy      =      -1.0188233249988774 [Eh]
	 Correlation Energy        =      -1.3552194560809774 [Eh]
	 Total Energy              =    -342.6351674391941629 [Eh]

	 ================> DF-SCS-MP2 Energies <==================
	-----------------------------------------------------------
	 SCS Same-Spin Scale       =       0.3333333333333333 [-]
	 SCS Opposite-Spin Scale   =       1.2000000000000000 [-]
	 SCS Same-Spin Energy      =      -0.1121320436940334 [Eh]
	 SCS Opposite-Spin Energy  =      -1.2225879899986529 [Eh]
	 SCS Correlation Energy    =      -1.3347200336926863 [Eh]
	 SCS Total Energy          =    -342.6146680168058651 [Eh]
	-----------------------------------------------------------

  Dipole Moment: [D]
     X:     3.8016      Y:    -0.4685      Z:     0.3914     Total:     3.8503

*** Psi4 exiting successfully. Buy a developer a beer!
