                               Psi4 1.3.2 release

  ==> Input File <==

--------------------------------------------------------------------------
#psi4
#
memory 32 gb

molecule  {
-1 1
  O        1.1365690     1.2999450     0.1428980
  O       -1.4424670    -1.1799650     0.1827610
  O       -1.3575130     1.0293890    -0.3577040
  C        0.6396440    -0.0155260     0.4104950
  C        1.4464200    -1.0470520    -0.3590510
  C       -0.8609500    -0.0719650     0.0469300
  H        0.7165270    -0.2335850     1.4896730
  H        1.3388480    -0.8658950    -1.4332610
  H        2.5070550    -0.9809740    -0.0983190
  H        1.0872750    -2.0528800    -0.1336960
  H        0.3908018     1.7005663    -0.1278200
units angstrom
no_reorient  #important for SAPT in psi4, default
symmetry c1  #important for SAPT in psi4, default
}

set PROPERTIES_ORIGIN ["COM"]
properties('MP2/aug-cc-pvtz', properties = ['dipole'])
--------------------------------------------------------------------------

    Molecular point group: c1
  Charge       = -1
  Multiplicity = 1
  Basis Set: AUG-CC-PVTZ
    Blend: AUG-CC-PVTZ
  Basis Set: (AUG-CC-PVTZ AUX)
    Blend: AUG-CC-PVTZ-JKFIT

    Orbital Energies [Eh]
    ---------------------

    Doubly Occupied:

       1A    -20.378692     2A    -20.313925     3A    -20.309038
       4A    -11.151616     5A    -11.118277     6A    -11.073159
       7A     -1.222289     8A     -1.171302     9A     -1.080844
      10A     -0.867325    11A     -0.704717    12A     -0.581033
      13A     -0.504569    14A     -0.478380    15A     -0.438441
      16A     -0.410133    17A     -0.400052    18A     -0.375805
      19A     -0.373575    20A     -0.349482    21A     -0.284516
      22A     -0.231014    23A     -0.214656    24A     -0.210932

  @DF-RHF Final Energy:  -341.27604215656424

   => Energetics <=

    Nuclear Repulsion Energy =            239.4508114017199318
    One-Electron Energy =                -952.9661594125004740
    Two-Electron Energy =                 372.2393058542163544
    Total Energy =                       -341.2760421565642446
  Basis Set: (AUG-CC-PVTZ AUX)
    Blend: AUG-CC-PVTZ-RI
    Molecular point group: c1

    Geometry (in Angstrom), charge = -1, multiplicity = 1:

       Center              X                  Y                   Z               Mass
    ------------   -----------------  -----------------  -----------------  -----------------
         O            1.201910745151     1.273909972976     0.138830173357    15.994914619570
         O           -1.377125254849    -1.206000027024     0.178693173357    15.994914619570
         O           -1.292171254849     1.003353972976    -0.361771826643    15.994914619570
         C            0.704985745151    -0.041561027024     0.406427173357    12.000000000000
         C            1.511761745151    -1.073087027024    -0.363118826643    12.000000000000
         C           -0.795608254849    -0.098000027024     0.042862173357    12.000000000000
         H            0.781868745151    -0.259620027024     1.485605173357     1.007825032230
         H            1.404189745151    -0.891930027024    -1.437328826643     1.007825032230
         H            2.572396745151    -1.007009027024    -0.102386826643     1.007825032230
         H            1.152616745151    -2.078915027024    -0.137763826643     1.007825032230
         H            0.456143545151     1.674531272976    -0.131887826643     1.007825032230

  Basis Set: AUG-CC-PVTZ
    Blend: AUG-CC-PVTZ
  Basis Set: (AUG-CC-PVTZ AUX)
    Blend: AUG-CC-PVTZ-JKFIT
	 Reference Energy          =    -341.2760421565642446 [Eh]
	 Singles Energy            =      -0.0000000000000000 [Eh]
	 Same-Spin Energy          =      -0.3348067461310019 [Eh]
	 Opposite-Spin Energy      =      -1.0159351191120105 [Eh]
	 Correlation Energy        =      -1.3507418652430125 [Eh]
	 Total Energy              =    -342.6267840218072820 [Eh]

	 ================> DF-SCS-MP2 Energies <==================
	-----------------------------------------------------------
	 SCS Same-Spin Scale       =       0.3333333333333333 [-]
	 SCS Opposite-Spin Scale   =       1.2000000000000000 [-]
	 SCS Same-Spin Energy      =      -0.1116022487103340 [Eh]
	 SCS Opposite-Spin Energy  =      -1.2191221429344126 [Eh]
	 SCS Correlation Energy    =      -1.3307243916447464 [Eh]
	 SCS Total Energy          =    -342.6067665482090092 [Eh]
	-----------------------------------------------------------

  Dipole Moment: [D]
     X:     4.0159      Y:    -0.4921      Z:     0.4258     Total:     4.0683

*** Psi4 exiting successfully. Buy a developer a beer!
