                               Psi4 1.3.2 release

  ==> Input File <==

--------------------------------------------------------------------------
#psi4
#
memory 32 gb

molecule  {
-1 1
  O        1.1365690     1.2999450     0.1428980
  O       -1.4424670    -1.1799650     0.1827610
  O       -1.3575130     1.0293890    -0.3577040
  C        0.5941629    -0.0002289     0.3965712
  C        1.4464200    -1.0470520    -0.3590510
  C       -0.8609500    -0.0719650     0.0469300
  H        0.7165270    -0.2335850     1.4896730
  H        1.3388480    -0.8658950    -1.4332610
  H        2.5070550    -0.9809740    -0.0983190
  H        1.0872750    -2.0528800    -0.1336960
  H        0.2899261     1.7159752    -0.1534596
units angstrom
no_reorient  #important for SAPT in psi4, default
symmetry c1  #important for SAPT in psi4, default
}

set PROPERTIES_ORIGIN ["COM"]
properties('MP2/aug-cc-pvtz', properties = ['dipole'])
--------------------------------------------------------------------------

    Molecular point group: c1
  Charge       = -1
  Multiplicity = 1
  Basis Set: AUG-CC-PVTZ
    Blend: AUG-CC-PVTZ
  Basis Set: (AUG-CC-PVTZ AUX)
    Blend: AUG-CC-PVTZ-JKFIT

    Orbital Energies [Eh]
    ---------------------

    Doubly Occupied:

       1A    -20.382755     2A    -20.319215     3A    -20.311223
       4A    -11.152265     5A    -11.118229     6A    -11.073132
       7A     -1.208822     8A     -1.165498     9A     -1.085299
      10A     -0.857356    11A     -0.709253    12A     -0.568909
      13A     -0.498576    14A     -0.476858    15A     -0.439859
      16A     -0.403892    17A     -0.395789    18A     -0.376499
      19A     -0.366781    20A     -0.349329    21A     -0.272756
      22A     -0.236982    23A     -0.221595    24A     -0.214853

  @DF-RHF Final Energy:  -341.27654450717415

   => Energetics <=

    Nuclear Repulsion Energy =            239.5137974349918295
    One-Electron Energy =                -953.1692309929467228
    Two-Electron Energy =                 372.3788890507807423
    Total Energy =                       -341.2765445071741510
  Basis Set: (AUG-CC-PVTZ AUX)
    Blend: AUG-CC-PVTZ-RI
    Molecular point group: c1

    Geometry (in Angstrom), charge = -1, multiplicity = 1:

       Center              X                  Y                   Z               Mass
    ------------   -----------------  -----------------  -----------------  -----------------
         O            1.209183381835     1.271673553942     0.140997298116    15.994914619570
         O           -1.369852618165    -1.208236446058     0.180860298116    15.994914619570
         O           -1.284898618165     1.001117553942    -0.359604701884    15.994914619570
         C            0.666777281835    -0.028500346058     0.394670498116    12.000000000000
         C            1.519034381835    -1.075323446058    -0.360951701884    12.000000000000
         C           -0.788335618165    -0.100236446058     0.045029298116    12.000000000000
         H            0.789141381835    -0.261856446058     1.487772298116     1.007825032230
         H            1.411462381835    -0.894166446058    -1.435161701884     1.007825032230
         H            2.579669381835    -1.009245446058    -0.100219701884     1.007825032230
         H            1.159889381835    -2.081151446058    -0.135596701884     1.007825032230
         H            0.362540481835     1.687703753942    -0.155360301884     1.007825032230

  Basis Set: AUG-CC-PVTZ
    Blend: AUG-CC-PVTZ
  Basis Set: (AUG-CC-PVTZ AUX)
    Blend: AUG-CC-PVTZ-JKFIT
	 Reference Energy          =    -341.2765445071741510 [Eh]
	 Singles Energy            =      -0.0000000000000000 [Eh]
	 Same-Spin Energy          =      -0.3368158417073031 [Eh]
	 Opposite-Spin Energy      =      -1.0196847231537254 [Eh]
	 Correlation Energy        =      -1.3565005648610284 [Eh]
	 Total Energy              =    -342.6330450720352019 [Eh]

	 ================> DF-SCS-MP2 Energies <==================
	-----------------------------------------------------------
	 SCS Same-Spin Scale       =       0.3333333333333333 [-]
	 SCS Opposite-Spin Scale   =       1.2000000000000000 [-]
	 SCS Same-Spin Energy      =      -0.1122719472357677 [Eh]
	 SCS Opposite-Spin Energy  =      -1.2236216677844705 [Eh]
	 SCS Correlation Energy    =      -1.3358936150202381 [Eh]
	 SCS Total Energy          =    -342.6124381221943622 [Eh]
	-----------------------------------------------------------

  Dipole Moment: [D]
     X:     3.7375      Y:    -0.4704      Z:     0.3722     Total:     3.7854

*** Psi4 exiting successfully. Buy a developer a beer!
