                               Psi4 1.3.2 release

  ==> Input File <==

--------------------------------------------------------------------------
#psi4
#
memory 32 gb

molecule  {
-1 1
  O        1.1365690     1.2999450     0.1428980
  O       -1.4424670    -1.1799650     0.1827610
  O       -1.3176425     1.0483846    -0.3524856
  C        0.6399081     0.0367606     0.3972883
  C        1.4464200    -1.0470520    -0.3590510
  C       -0.8609500    -0.0719650     0.0469300
  H        0.7165270    -0.2335850     1.4896730
  H        1.3388480    -0.8658950    -1.4332610
  H        2.5070550    -0.9809740    -0.0983190
  H        1.0872750    -2.0528800    -0.1336960
  H        0.3068940     1.7456410    -0.1582790
units angstrom
no_reorient  #important for SAPT in psi4, default
symmetry c1  #important for SAPT in psi4, default
}

set PROPERTIES_ORIGIN ["COM"]
properties('MP2/aug-cc-pvtz', properties = ['dipole'])
--------------------------------------------------------------------------

    Molecular point group: c1
  Charge       = -1
  Multiplicity = 1
  Basis Set: AUG-CC-PVTZ
    Blend: AUG-CC-PVTZ
  Basis Set: (AUG-CC-PVTZ AUX)
    Blend: AUG-CC-PVTZ-JKFIT

    Orbital Energies [Eh]
    ---------------------

    Doubly Occupied:

       1A    -20.384309     2A    -20.319159     3A    -20.313501
       4A    -11.153362     5A    -11.114794     6A    -11.069346
       7A     -1.218336     8A     -1.170287     9A     -1.087390
      10A     -0.851724    11A     -0.697901    12A     -0.572620
      13A     -0.502115    14A     -0.480004    15A     -0.439747
      16A     -0.404019    17A     -0.398963    18A     -0.380367
      19A     -0.362601    20A     -0.351447    21A     -0.268803
      22A     -0.236330    23A     -0.216656    24A     -0.213427

  @DF-RHF Final Energy:  -341.27769137986019

   => Energetics <=

    Nuclear Repulsion Energy =            239.6609512109044999
    One-Electron Energy =                -953.4628685096076879
    Two-Electron Energy =                 372.5242259188430012
    Total Energy =                       -341.2776913798601868
  Basis Set: (AUG-CC-PVTZ AUX)
    Blend: AUG-CC-PVTZ-RI
    Molecular point group: c1

    Geometry (in Angstrom), charge = -1, multiplicity = 1:

       Center              X                  Y                   Z               Mass
    ------------   -----------------  -----------------  -----------------  -----------------
         O            1.195661521564     1.262938762424     0.140017606361    15.994914619570
         O           -1.383374478436    -1.216971237576     0.179880606361    15.994914619570
         O           -1.258549978436     1.011378362424    -0.355365993639    15.994914619570
         C            0.699000621564    -0.000245637576     0.394407906361    12.000000000000
         C            1.505512521564    -1.084058237576    -0.361931393639    12.000000000000
         C           -0.801857478436    -0.108971237576     0.044049606361    12.000000000000
         H            0.775619521564    -0.270591237576     1.486792606361     1.007825032230
         H            1.397940521564    -0.902901237576    -1.436141393639     1.007825032230
         H            2.566147521564    -1.017980237576    -0.101199393639     1.007825032230
         H            1.146367521564    -2.089886237576    -0.136576393639     1.007825032230
         H            0.365986521564     1.708634762424    -0.161159393639     1.007825032230

  Basis Set: AUG-CC-PVTZ
    Blend: AUG-CC-PVTZ
  Basis Set: (AUG-CC-PVTZ AUX)
    Blend: AUG-CC-PVTZ-JKFIT
	 Reference Energy          =    -341.2776913798601868 [Eh]
	 Singles Energy            =      -0.0000000000000000 [Eh]
	 Same-Spin Energy          =      -0.3366792049163037 [Eh]
	 Opposite-Spin Energy      =      -1.0185316743466879 [Eh]
	 Correlation Energy        =      -1.3552108792629916 [Eh]
	 Total Energy              =    -342.6329022591231706 [Eh]

	 ================> DF-SCS-MP2 Energies <==================
	-----------------------------------------------------------
	 SCS Same-Spin Scale       =       0.3333333333333333 [-]
	 SCS Opposite-Spin Scale   =       1.2000000000000000 [-]
	 SCS Same-Spin Energy      =      -0.1122264016387679 [Eh]
	 SCS Opposite-Spin Energy  =      -1.2222380092160254 [Eh]
	 SCS Correlation Energy    =      -1.3344644108547934 [Eh]
	 SCS Total Energy          =    -342.6121557907150077 [Eh]
	-----------------------------------------------------------

  Dipole Moment: [D]
     X:     3.6667      Y:    -0.2723      Z:     0.3170     Total:     3.6904

*** Psi4 exiting successfully. Buy a developer a beer!
