                               Psi4 1.3.2 release

  ==> Input File <==

--------------------------------------------------------------------------
#psi4
#
memory 32 gb

molecule  {
-1 1
  O        1.1365690     1.2999450     0.1428980
  O       -1.4424670    -1.1799650     0.1827610
  O       -1.3575130     1.0293890    -0.3577040
  C        0.5702137    -0.1993235     0.4478836
  C        1.4464200    -1.0470520    -0.3590510
  C       -0.8609500    -0.0719650     0.0469300
  H        0.7165270    -0.2335850     1.4896730
  H        1.3388480    -0.8658950    -1.4332610
  H        2.5070550    -0.9809740    -0.0983190
  H        1.0872750    -2.0528800    -0.1336960
  H        0.3068940     1.7456410    -0.1582790
units angstrom
no_reorient  #important for SAPT in psi4, default
symmetry c1  #important for SAPT in psi4, default
}

set PROPERTIES_ORIGIN ["COM"]
properties('MP2/aug-cc-pvtz', properties = ['dipole'])
--------------------------------------------------------------------------

    Molecular point group: c1
  Charge       = -1
  Multiplicity = 1
  Basis Set: AUG-CC-PVTZ
    Blend: AUG-CC-PVTZ
  Basis Set: (AUG-CC-PVTZ AUX)
    Blend: AUG-CC-PVTZ-JKFIT

    Orbital Energies [Eh]
    ---------------------

    Doubly Occupied:

       1A    -20.355795     2A    -20.320903     3A    -20.312303
       4A    -11.156709     5A    -11.123877     6A    -11.079539
       7A     -1.194213     8A     -1.115283     9A     -1.084461
      10A     -0.887254    11A     -0.718380    12A     -0.564604
      13A     -0.490266    14A     -0.473770    15A     -0.442282
      16A     -0.416457    17A     -0.399445    18A     -0.373183
      19A     -0.352035    20A     -0.314880    21A     -0.277503
      22A     -0.237755    23A     -0.218804    24A     -0.215208

  @DF-RHF Final Energy:  -341.24485666470275

   => Energetics <=

    Nuclear Repulsion Energy =            238.2997690669770350
    One-Electron Energy =                -950.8394320073427934
    Two-Electron Energy =                 371.2948062756630634
    Total Energy =                       -341.2448566647027519
  Basis Set: (AUG-CC-PVTZ AUX)
    Blend: AUG-CC-PVTZ-RI
    Molecular point group: c1

    Geometry (in Angstrom), charge = -1, multiplicity = 1:

       Center              X                  Y                   Z               Mass
    ------------   -----------------  -----------------  -----------------  -----------------
         O            1.212219530776     1.298174730426     0.134135186923    15.994914619570
         O           -1.366816469224    -1.181735269574     0.173998186923    15.994914619570
         O           -1.281862469224     1.027618730426    -0.366466813077    15.994914619570
         C            0.645864230776    -0.201093769574     0.439120786923    12.000000000000
         C            1.522070530776    -1.048822269574    -0.367813813077    12.000000000000
         C           -0.785299469224    -0.073735269574     0.038167186923    12.000000000000
         H            0.792177530776    -0.235355269574     1.480910186923     1.007825032230
         H            1.414498530776    -0.867665269574    -1.442023813077     1.007825032230
         H            2.582705530776    -0.982744269574    -0.107081813077     1.007825032230
         H            1.162925530776    -2.054650269574    -0.142458813077     1.007825032230
         H            0.382544530776     1.743870730426    -0.167041813077     1.007825032230

  Basis Set: AUG-CC-PVTZ
    Blend: AUG-CC-PVTZ
  Basis Set: (AUG-CC-PVTZ AUX)
    Blend: AUG-CC-PVTZ-JKFIT
	 Reference Energy          =    -341.2448566647027519 [Eh]
	 Singles Energy            =      -0.0000000000000000 [Eh]
	 Same-Spin Energy          =      -0.3383629654504715 [Eh]
	 Opposite-Spin Energy      =      -1.0248137718363068 [Eh]
	 Correlation Energy        =      -1.3631767372867785 [Eh]
	 Total Energy              =    -342.6080334019895304 [Eh]

	 ================> DF-SCS-MP2 Energies <==================
	-----------------------------------------------------------
	 SCS Same-Spin Scale       =       0.3333333333333333 [-]
	 SCS Opposite-Spin Scale   =       1.2000000000000000 [-]
	 SCS Same-Spin Energy      =      -0.1127876551501572 [Eh]
	 SCS Opposite-Spin Energy  =      -1.2297765262035683 [Eh]
	 SCS Correlation Energy    =      -1.3425641813537255 [Eh]
	 SCS Total Energy          =    -342.5874208460564887 [Eh]
	-----------------------------------------------------------

  Dipole Moment: [D]
     X:     3.6063      Y:    -1.2655      Z:     0.4680     Total:     3.8505

*** Psi4 exiting successfully. Buy a developer a beer!
