                               Psi4 1.3.2 release

  ==> Input File <==

--------------------------------------------------------------------------
#psi4
#
memory 32 gb

molecule  {
-1 1
  O        1.1816077     1.2852027     0.1587277
  O       -1.4424670    -1.1799650     0.1827610
  O       -1.3575130     1.0293890    -0.3577040
  C        0.6396440    -0.0155260     0.4104950
  C        1.4464200    -1.0470520    -0.3590510
  C       -0.8617364    -0.1236803     0.0622037
  H        0.7165270    -0.2335850     1.4896730
  H        1.3388480    -0.8658950    -1.4332610
  H        2.5070550    -0.9809740    -0.0983190
  H        1.0872750    -2.0528800    -0.1336960
  H        0.3068940     1.7456410    -0.1582790
units angstrom
no_reorient  #important for SAPT in psi4, default
symmetry c1  #important for SAPT in psi4, default
}

set PROPERTIES_ORIGIN ["COM"]
properties('MP2/aug-cc-pvtz', properties = ['dipole'])
--------------------------------------------------------------------------

    Molecular point group: c1
  Charge       = -1
  Multiplicity = 1
  Basis Set: AUG-CC-PVTZ
    Blend: AUG-CC-PVTZ
  Basis Set: (AUG-CC-PVTZ AUX)
    Blend: AUG-CC-PVTZ-JKFIT

    Orbital Energies [Eh]
    ---------------------

    Doubly Occupied:

       1A    -20.383591     2A    -20.324429     3A    -20.308552
       4A    -11.154157     5A    -11.115461     6A    -11.071300
       7A     -1.204825     8A     -1.169029     9A     -1.073013
      10A     -0.860858    11A     -0.700295    12A     -0.559946
      13A     -0.496433    14A     -0.478823    15A     -0.435933
      16A     -0.404557    17A     -0.396681    18A     -0.376967
      19A     -0.365764    20A     -0.353238    21A     -0.275074
      22A     -0.228905    23A     -0.217203    24A     -0.215270

  @DF-RHF Final Energy:  -341.27038277102275

   => Energetics <=

    Nuclear Repulsion Energy =            238.4134809819487941
    One-Electron Energy =                -951.0271150631333512
    Two-Electron Energy =                 371.3432513101617474
    Total Energy =                       -341.2703827710227529
  Basis Set: (AUG-CC-PVTZ AUX)
    Blend: AUG-CC-PVTZ-RI
    Molecular point group: c1

    Geometry (in Angstrom), charge = -1, multiplicity = 1:

       Center              X                  Y                   Z               Mass
    ------------   -----------------  -----------------  -----------------  -----------------
         O            1.239913253771     1.268277117755     0.150101750218    15.994914619570
         O           -1.384161446229    -1.196890582245     0.174135050218    15.994914619570
         O           -1.299207446229     1.012463417755    -0.366329949782    15.994914619570
         C            0.697949553771    -0.032451582245     0.401869050218    12.000000000000
         C            1.504725553771    -1.063977582245    -0.367676949782    12.000000000000
         C           -0.803430846229    -0.140605882245     0.053577750218    12.000000000000
         H            0.774832553771    -0.250510582245     1.481047050218     1.007825032230
         H            1.397153553771    -0.882820582245    -1.441886949782     1.007825032230
         H            2.565360553771    -0.997899582245    -0.106944949782     1.007825032230
         H            1.145580553771    -2.069805582245    -0.142321949782     1.007825032230
         H            0.365199553771     1.728715417755    -0.166904949782     1.007825032230

  Basis Set: AUG-CC-PVTZ
    Blend: AUG-CC-PVTZ
  Basis Set: (AUG-CC-PVTZ AUX)
    Blend: AUG-CC-PVTZ-JKFIT
	 Reference Energy          =    -341.2703827710227529 [Eh]
	 Singles Energy            =      -0.0000000000000000 [Eh]
	 Same-Spin Energy          =      -0.3374276393854990 [Eh]
	 Opposite-Spin Energy      =      -1.0210179223750164 [Eh]
	 Correlation Energy        =      -1.3584455617605153 [Eh]
	 Total Energy              =    -342.6288283327832573 [Eh]

	 ================> DF-SCS-MP2 Energies <==================
	-----------------------------------------------------------
	 SCS Same-Spin Scale       =       0.3333333333333333 [-]
	 SCS Opposite-Spin Scale   =       1.2000000000000000 [-]
	 SCS Same-Spin Energy      =      -0.1124758797951663 [Eh]
	 SCS Opposite-Spin Energy  =      -1.2252215068500196 [Eh]
	 SCS Correlation Energy    =      -1.3376973866451860 [Eh]
	 SCS Total Energy          =    -342.6080801576679278 [Eh]
	-----------------------------------------------------------

  Dipole Moment: [D]
     X:     3.6332      Y:    -1.0233      Z:     0.4844     Total:     3.8055

*** Psi4 exiting successfully. Buy a developer a beer!
