                               Psi4 1.3.2 release

  ==> Input File <==

--------------------------------------------------------------------------
#psi4
#
memory 32 gb

molecule  {
-1 1
  O        1.1365690     1.2999450     0.1428980
  O       -1.4424670    -1.1799650     0.1827610
  O       -1.3575130     1.0293890    -0.3577040
  C        0.6396440    -0.0155260     0.4104950
  C        1.4464200    -1.0470520    -0.3590510
  C       -0.8609500    -0.0719650     0.0469300
  H        0.7025947    -0.1940697     1.2941112
  H        1.3388480    -0.8658950    -1.4332610
  H        2.5070550    -0.9809740    -0.0983190
  H        1.0872750    -2.0528800    -0.1336960
  H        0.3068940     1.7456410    -0.1582790
units angstrom
no_reorient  #important for SAPT in psi4, default
symmetry c1  #important for SAPT in psi4, default
}

set PROPERTIES_ORIGIN ["COM"]
properties('MP2/aug-cc-pvtz', properties = ['dipole'])
--------------------------------------------------------------------------

    Molecular point group: c1
  Charge       = -1
  Multiplicity = 1
  Basis Set: AUG-CC-PVTZ
    Blend: AUG-CC-PVTZ
  Basis Set: (AUG-CC-PVTZ AUX)
    Blend: AUG-CC-PVTZ-JKFIT

    Orbital Energies [Eh]
    ---------------------

    Doubly Occupied:

       1A    -20.378091     2A    -20.316679     3A    -20.310226
       4A    -11.150786     5A    -11.089477     6A    -11.069918
       7A     -1.203135     8A     -1.161972     9A     -1.082621
      10A     -0.871068    11A     -0.719973    12A     -0.576992
      13A     -0.510971    14A     -0.480734    15A     -0.435095
      16A     -0.403277    17A     -0.399106    18A     -0.376638
      19A     -0.367437    20A     -0.349774    21A     -0.284970
      22A     -0.232900    23A     -0.214068    24A     -0.213198

  @DF-RHF Final Energy:  -341.24942107693795

   => Energetics <=

    Nuclear Repulsion Energy =            240.1148732469721665
    One-Electron Energy =                -954.3303751262876631
    Two-Electron Energy =                 372.9660808023775758
    Total Energy =                       -341.2494210769379492
  Basis Set: (AUG-CC-PVTZ AUX)
    Blend: AUG-CC-PVTZ-RI
    Molecular point group: c1

    Geometry (in Angstrom), charge = -1, multiplicity = 1:

       Center              X                  Y                   Z               Mass
    ------------   -----------------  -----------------  -----------------  -----------------
         O            1.203018377329     1.272952343068     0.141388918810    15.994914619570
         O           -1.376017622671    -1.206957656932     0.181251918810    15.994914619570
         O           -1.291063622671     1.002396343068    -0.359213081190    15.994914619570
         C            0.706093377329    -0.042518656932     0.408985918810    12.000000000000
         C            1.512869377329    -1.074044656932    -0.360560081190    12.000000000000
         C           -0.794500622671    -0.098957656932     0.045420918810    12.000000000000
         H            0.769044077329    -0.221062356932     1.292602118810     1.007825032230
         H            1.405297377329    -0.892887656932    -1.434770081190     1.007825032230
         H            2.573504377329    -1.007966656932    -0.099828081190     1.007825032230
         H            1.153724377329    -2.079872656932    -0.135205081190     1.007825032230
         H            0.373343377329     1.718648343068    -0.159788081190     1.007825032230

  Basis Set: AUG-CC-PVTZ
    Blend: AUG-CC-PVTZ
  Basis Set: (AUG-CC-PVTZ AUX)
    Blend: AUG-CC-PVTZ-JKFIT
	 Reference Energy          =    -341.2494210769379492 [Eh]
	 Singles Energy            =      -0.0000000000000000 [Eh]
	 Same-Spin Energy          =      -0.3363992712871605 [Eh]
	 Opposite-Spin Energy      =      -1.0182954570374820 [Eh]
	 Correlation Energy        =      -1.3546947283246427 [Eh]
	 Total Energy              =    -342.6041158052626088 [Eh]

	 ================> DF-SCS-MP2 Energies <==================
	-----------------------------------------------------------
	 SCS Same-Spin Scale       =       0.3333333333333333 [-]
	 SCS Opposite-Spin Scale   =       1.2000000000000000 [-]
	 SCS Same-Spin Energy      =      -0.1121330904290535 [Eh]
	 SCS Opposite-Spin Energy  =      -1.2219545484449783 [Eh]
	 SCS Correlation Energy    =      -1.3340876388740317 [Eh]
	 SCS Total Energy          =    -342.5835087158120018 [Eh]
	-----------------------------------------------------------

  Dipole Moment: [D]
     X:     3.7979      Y:    -0.5358      Z:     0.5084     Total:     3.8691

*** Psi4 exiting successfully. Buy a developer a beer!
