                               Psi4 1.3.2 release

  ==> Input File <==

--------------------------------------------------------------------------
#psi4
#
memory 32 gb

molecule  {
-1 1
  O        1.0839346     1.3270410     0.1888503
  O       -1.4424670    -1.1799650     0.1827610
  O       -1.3575130     1.0293890    -0.3577040
  C        0.6396440    -0.0155260     0.4104950
  C        1.4003928    -1.1036281    -0.3273597
  C       -0.8609500    -0.0719650     0.0469300
  H        0.7165270    -0.2335850     1.4896730
  H        1.3388480    -0.8658950    -1.4332610
  H        2.5070550    -0.9809740    -0.0983190
  H        1.0872750    -2.0528800    -0.1336960
  H        0.3068940     1.7456410    -0.1582790
units angstrom
no_reorient  #important for SAPT in psi4, default
symmetry c1  #important for SAPT in psi4, default
}

set PROPERTIES_ORIGIN ["COM"]
properties('MP2/aug-cc-pvtz', properties = ['dipole'])
--------------------------------------------------------------------------

    Molecular point group: c1
  Charge       = -1
  Multiplicity = 1
  Basis Set: AUG-CC-PVTZ
    Blend: AUG-CC-PVTZ
  Basis Set: (AUG-CC-PVTZ AUX)
    Blend: AUG-CC-PVTZ-JKFIT

    Orbital Energies [Eh]
    ---------------------

    Doubly Occupied:

       1A    -20.380931     2A    -20.315047     3A    -20.308745
       4A    -11.150454     5A    -11.117748     6A    -11.076410
       7A     -1.209300     8A     -1.165492     9A     -1.081405
      10A     -0.867377    11A     -0.703017    12A     -0.572609
      13A     -0.501782    14A     -0.479263    15A     -0.437179
      16A     -0.420504    17A     -0.398135    18A     -0.373742
      19A     -0.358805    20A     -0.348478    21A     -0.280386
      22A     -0.231497    23A     -0.213241    24A     -0.211617

  @DF-RHF Final Energy:  -341.27195891038247

   => Energetics <=

    Nuclear Repulsion Energy =            239.3292899692213211
    One-Electron Energy =                -952.7961692756898628
    Two-Electron Energy =                 372.1949203960860473
    Total Energy =                       -341.2719589103824660
  Basis Set: (AUG-CC-PVTZ AUX)
    Blend: AUG-CC-PVTZ-RI
    Molecular point group: c1

    Geometry (in Angstrom), charge = -1, multiplicity = 1:

       Center              X                  Y                   Z               Mass
    ------------   -----------------  -----------------  -----------------  -----------------
         O            1.165887322989     1.303253545281     0.172599208527    15.994914619570
         O           -1.360514277011    -1.203752454719     0.166509908527    15.994914619570
         O           -1.275560277011     1.005601545281    -0.373955091473    15.994914619570
         C            0.721596722989    -0.039313454719     0.394243908527    12.000000000000
         C            1.482345522989    -1.127415554719    -0.343610791473    12.000000000000
         C           -0.778997277011    -0.095752454719     0.030678908527    12.000000000000
         H            0.798479722989    -0.257372454719     1.473421908527     1.007825032230
         H            1.420800722989    -0.889682454719    -1.449512091473     1.007825032230
         H            2.589007722989    -1.004761454719    -0.114570091473     1.007825032230
         H            1.169227722989    -2.076667454719    -0.149947091473     1.007825032230
         H            0.388846722989     1.721853545281    -0.174530091473     1.007825032230

  Basis Set: AUG-CC-PVTZ
    Blend: AUG-CC-PVTZ
  Basis Set: (AUG-CC-PVTZ AUX)
    Blend: AUG-CC-PVTZ-JKFIT
	 Reference Energy          =    -341.2719589103824660 [Eh]
	 Singles Energy            =      -0.0000000000000000 [Eh]
	 Same-Spin Energy          =      -0.3358343617382971 [Eh]
	 Opposite-Spin Energy      =      -1.0177993861653236 [Eh]
	 Correlation Energy        =      -1.3536337479036207 [Eh]
	 Total Energy              =    -342.6255926582861093 [Eh]

	 ================> DF-SCS-MP2 Energies <==================
	-----------------------------------------------------------
	 SCS Same-Spin Scale       =       0.3333333333333333 [-]
	 SCS Opposite-Spin Scale   =       1.2000000000000000 [-]
	 SCS Same-Spin Energy      =      -0.1119447872460990 [Eh]
	 SCS Opposite-Spin Energy  =      -1.2213592633983883 [Eh]
	 SCS Correlation Energy    =      -1.3333040506444873 [Eh]
	 SCS Total Energy          =    -342.6052629610269378 [Eh]
	-----------------------------------------------------------

  Dipole Moment: [D]
     X:     3.8590      Y:    -0.5538      Z:     0.3543     Total:     3.9146

*** Psi4 exiting successfully. Buy a developer a beer!
