                               Psi4 1.3.2 release

  ==> Input File <==

--------------------------------------------------------------------------
#psi4
#
memory 32 gb

molecule  {
-1 1
  O        1.1365690     1.2999450     0.1428980
  O       -1.4424670    -1.1799650     0.1827610
  O       -1.3575130     1.0293890    -0.3577040
  C        0.5716668     0.0080149     0.3894924
  C        1.4464200    -1.0470520    -0.3590510
  C       -0.8609500    -0.0719650     0.0469300
  H        0.7165270    -0.2335850     1.4896730
  H        1.3388480    -0.8658950    -1.4332610
  H        2.5070550    -0.9809740    -0.0983190
  H        1.0872750    -2.0528800    -0.1336960
  H        0.2818278     1.7009500    -0.1509140
units angstrom
no_reorient  #important for SAPT in psi4, default
symmetry c1  #important for SAPT in psi4, default
}

set PROPERTIES_ORIGIN ["COM"]
properties('MP2/aug-cc-pvtz', properties = ['dipole'])
--------------------------------------------------------------------------

    Molecular point group: c1
  Charge       = -1
  Multiplicity = 1
  Basis Set: AUG-CC-PVTZ
    Blend: AUG-CC-PVTZ
  Basis Set: (AUG-CC-PVTZ AUX)
    Blend: AUG-CC-PVTZ-JKFIT

    Orbital Energies [Eh]
    ---------------------

    Doubly Occupied:

       1A    -20.383326     2A    -20.319905     3A    -20.311708
       4A    -11.151977     5A    -11.119407     6A    -11.073834
       7A     -1.211308     8A     -1.166565     9A     -1.086361
      10A     -0.855365    11A     -0.713956    12A     -0.569659
      13A     -0.498216    14A     -0.476355    15A     -0.441627
      16A     -0.404044    17A     -0.393837    18A     -0.380089
      19A     -0.365034    20A     -0.349181    21A     -0.269146
      22A     -0.238806    23A     -0.224229    24A     -0.215536

  @DF-RHF Final Energy:  -341.27247779927757

   => Energetics <=

    Nuclear Repulsion Energy =            239.8009474372715317
    One-Electron Energy =                -953.7079060784241165
    Two-Electron Energy =                 372.6344808418750745
    Total Energy =                       -341.2724777992775671
  Basis Set: (AUG-CC-PVTZ AUX)
    Blend: AUG-CC-PVTZ-RI
    Molecular point group: c1

    Geometry (in Angstrom), charge = -1, multiplicity = 1:

       Center              X                  Y                   Z               Mass
    ------------   -----------------  -----------------  -----------------  -----------------
         O            1.212307430167     1.270732426262     0.141922668823    15.994914619570
         O           -1.366728569833    -1.209177573738     0.181785668823    15.994914619570
         O           -1.281774569833     1.000176426262    -0.358679331177    15.994914619570
         C            0.647405230167    -0.021197673738     0.388517068823    12.000000000000
         C            1.522158430167    -1.076264573738    -0.360026331177    12.000000000000
         C           -0.785211569833    -0.101177573738     0.045954668823    12.000000000000
         H            0.792265430167    -0.262797573738     1.488697668823     1.007825032230
         H            1.414586430167    -0.895107573738    -1.434236331177     1.007825032230
         H            2.582793430167    -1.010186573738    -0.099294331177     1.007825032230
         H            1.163013430167    -2.082092573738    -0.134671331177     1.007825032230
         H            0.357566230167     1.671737426262    -0.151889331177     1.007825032230

  Basis Set: AUG-CC-PVTZ
    Blend: AUG-CC-PVTZ
  Basis Set: (AUG-CC-PVTZ AUX)
    Blend: AUG-CC-PVTZ-JKFIT
	 Reference Energy          =    -341.2724777992775671 [Eh]
	 Singles Energy            =      -0.0000000000000000 [Eh]
	 Same-Spin Energy          =      -0.3371136590091303 [Eh]
	 Opposite-Spin Energy      =      -1.0202344658157974 [Eh]
	 Correlation Energy        =      -1.3573481248249277 [Eh]
	 Total Energy              =    -342.6298259241024766 [Eh]

	 ================> DF-SCS-MP2 Energies <==================
	-----------------------------------------------------------
	 SCS Same-Spin Scale       =       0.3333333333333333 [-]
	 SCS Opposite-Spin Scale   =       1.2000000000000000 [-]
	 SCS Same-Spin Energy      =      -0.1123712196697101 [Eh]
	 SCS Opposite-Spin Energy  =      -1.2242813589789567 [Eh]
	 SCS Correlation Energy    =      -1.3366525786486667 [Eh]
	 SCS Total Energy          =    -342.6091303779262489 [Eh]
	-----------------------------------------------------------

  Dipole Moment: [D]
     X:     3.7077      Y:    -0.4647      Z:     0.3693     Total:     3.7549

*** Psi4 exiting successfully. Buy a developer a beer!
