                               Psi4 1.3.2 release

  ==> Input File <==

--------------------------------------------------------------------------
#psi4
#
memory 32 gb

molecule  {
-1 1
  O        1.1365690     1.2999450     0.1428980
  O       -1.4979658    -1.1514810     0.1615258
  O       -1.3575130     1.0293890    -0.3577040
  C        0.6393705     0.0628418     0.3904597
  C        1.4464200    -1.0470520    -0.3590510
  C       -0.8609500    -0.0719650     0.0469300
  H        0.7165270    -0.2335850     1.4896730
  H        1.3388480    -0.8658950    -1.4332610
  H        2.5070550    -0.9809740    -0.0983190
  H        1.0872750    -2.0528800    -0.1336960
  H        0.3068940     1.7456410    -0.1582790
units angstrom
no_reorient  #important for SAPT in psi4, default
symmetry c1  #important for SAPT in psi4, default
}

set PROPERTIES_ORIGIN ["COM"]
properties('MP2/aug-cc-pvtz', properties = ['dipole'])
--------------------------------------------------------------------------

    Molecular point group: c1
  Charge       = -1
  Multiplicity = 1
  Basis Set: AUG-CC-PVTZ
    Blend: AUG-CC-PVTZ
  Basis Set: (AUG-CC-PVTZ AUX)
    Blend: AUG-CC-PVTZ-JKFIT

    Orbital Energies [Eh]
    ---------------------

    Doubly Occupied:

       1A    -20.392933     2A    -20.313585     3A    -20.309034
       4A    -11.150546     5A    -11.122265     6A    -11.072083
       7A     -1.230408     8A     -1.174074     9A     -1.078032
      10A     -0.851685    11A     -0.700964    12A     -0.581559
      13A     -0.500306    14A     -0.483679    15A     -0.443486
      16A     -0.406365    17A     -0.397200    18A     -0.385153
      19A     -0.364072    20A     -0.352408    21A     -0.266978
      22A     -0.229640    23A     -0.215173    24A     -0.210566

  @DF-RHF Final Energy:  -341.27331085945451

   => Energetics <=

    Nuclear Repulsion Energy =            239.2675285836380965
    One-Electron Energy =                -952.6172903061633406
    Two-Electron Energy =                 372.0764508630707610
    Total Energy =                       -341.2733108594545115
  Basis Set: (AUG-CC-PVTZ AUX)
    Blend: AUG-CC-PVTZ-RI
    Molecular point group: c1

    Geometry (in Angstrom), charge = -1, multiplicity = 1:

       Center              X                  Y                   Z               Mass
    ------------   -----------------  -----------------  -----------------  -----------------
         O            1.212868985446     1.257718358582     0.145690986758    15.994914619570
         O           -1.421665814554    -1.193707641418     0.164318786758    15.994914619570
         O           -1.281213014554     0.987162358582    -0.354911013242    15.994914619570
         C            0.715670485446     0.020615158582     0.393252686758    12.000000000000
         C            1.522719985446    -1.089278641418    -0.356258013242    12.000000000000
         C           -0.784650014554    -0.114191641418     0.049722986758    12.000000000000
         H            0.792826985446    -0.275811641418     1.492465986758     1.007825032230
         H            1.415147985446    -0.908121641418    -1.430468013242     1.007825032230
         H            2.583354985446    -1.023200641418    -0.095526013242     1.007825032230
         H            1.163574985446    -2.095106641418    -0.130903013242     1.007825032230
         H            0.383193985446     1.703414358582    -0.155486013242     1.007825032230

  Basis Set: AUG-CC-PVTZ
    Blend: AUG-CC-PVTZ
  Basis Set: (AUG-CC-PVTZ AUX)
    Blend: AUG-CC-PVTZ-JKFIT
	 Reference Energy          =    -341.2733108594545115 [Eh]
	 Singles Energy            =      -0.0000000000000000 [Eh]
	 Same-Spin Energy          =      -0.3365473614676920 [Eh]
	 Opposite-Spin Energy      =      -1.0182198249120382 [Eh]
	 Correlation Energy        =      -1.3547671863797301 [Eh]
	 Total Energy              =    -342.6280780458342292 [Eh]

	 ================> DF-SCS-MP2 Energies <==================
	-----------------------------------------------------------
	 SCS Same-Spin Scale       =       0.3333333333333333 [-]
	 SCS Opposite-Spin Scale   =       1.2000000000000000 [-]
	 SCS Same-Spin Energy      =      -0.1121824538225640 [Eh]
	 SCS Opposite-Spin Energy  =      -1.2218637898944458 [Eh]
	 SCS Correlation Energy    =      -1.3340462437170097 [Eh]
	 SCS Total Energy          =    -342.6073571031715232 [Eh]
	-----------------------------------------------------------

  Dipole Moment: [D]
     X:     3.9654      Y:    -0.1607      Z:     0.3464     Total:     3.9838

*** Psi4 exiting successfully. Buy a developer a beer!
