                               Psi4 1.3.2 release

  ==> Input File <==

--------------------------------------------------------------------------
#psi4
#
memory 32 gb

molecule  {
-1 1
  O        1.1191685     1.3093815     0.1581401
  O       -1.4424670    -1.1799650     0.1827610
  O       -1.3575130     1.0293890    -0.3577040
  C        0.6396440    -0.0155260     0.4104950
  C        1.4313172    -1.0662327    -0.3487174
  C       -0.8609500    -0.0719650     0.0469300
  H        0.7165270    -0.2335850     1.4896730
  H        1.3388480    -0.8658950    -1.4332610
  H        2.5070550    -0.9809740    -0.0983190
  H        1.0872750    -2.0528800    -0.1336960
  H        0.3068940     1.7456410    -0.1582790
units angstrom
no_reorient  #important for SAPT in psi4, default
symmetry c1  #important for SAPT in psi4, default
}

set PROPERTIES_ORIGIN ["COM"]
properties('MP2/aug-cc-pvtz', properties = ['dipole'])
--------------------------------------------------------------------------

    Molecular point group: c1
  Charge       = -1
  Multiplicity = 1
  Basis Set: AUG-CC-PVTZ
    Blend: AUG-CC-PVTZ
  Basis Set: (AUG-CC-PVTZ AUX)
    Blend: AUG-CC-PVTZ-JKFIT

    Orbital Energies [Eh]
    ---------------------

    Doubly Occupied:

       1A    -20.381318     2A    -20.316907     3A    -20.309715
       4A    -11.151853     5A    -11.116649     6A    -11.073167
       7A     -1.205649     8A     -1.164212     9A     -1.082577
      10A     -0.863636    11A     -0.701353    12A     -0.568351
      13A     -0.500831    14A     -0.477433    15A     -0.436377
      16A     -0.409006    17A     -0.399206    18A     -0.373830
      19A     -0.364575    20A     -0.349313    21A     -0.279796
      22A     -0.232942    23A     -0.214379    24A     -0.212899

  @DF-RHF Final Energy:  -341.27959155234271

   => Energetics <=

    Nuclear Repulsion Energy =            239.0679827884553390
    One-Electron Energy =                -952.3232046931780133
    Two-Electron Energy =                 371.9756303523799943
    Total Energy =                       -341.2795915523427084
  Basis Set: (AUG-CC-PVTZ AUX)
    Blend: AUG-CC-PVTZ-RI
    Molecular point group: c1

    Geometry (in Angstrom), charge = -1, multiplicity = 1:

       Center              X                  Y                   Z               Mass
    ------------   -----------------  -----------------  -----------------  -----------------
         O            1.190622285653     1.283726202340     0.150285626594    15.994914619570
         O           -1.371013214347    -1.205620297660     0.174906526594    15.994914619570
         O           -1.286059214347     1.003733702340    -0.365558473406    15.994914619570
         C            0.711097785653    -0.041181297660     0.402640526594    12.000000000000
         C            1.502770985653    -1.091887997660    -0.356571873406    12.000000000000
         C           -0.789496214347    -0.097620297660     0.039075526594    12.000000000000
         H            0.787980785653    -0.259240297660     1.481818526594     1.007825032230
         H            1.410301785653    -0.891550297660    -1.441115473406     1.007825032230
         H            2.578508785653    -1.006629297660    -0.106173473406     1.007825032230
         H            1.158728785653    -2.078535297660    -0.141550473406     1.007825032230
         H            0.378347785653     1.719985702340    -0.166133473406     1.007825032230

  Basis Set: AUG-CC-PVTZ
    Blend: AUG-CC-PVTZ
  Basis Set: (AUG-CC-PVTZ AUX)
    Blend: AUG-CC-PVTZ-JKFIT
	 Reference Energy          =    -341.2795915523427084 [Eh]
	 Singles Energy            =      -0.0000000000000000 [Eh]
	 Same-Spin Energy          =      -0.3362050269120647 [Eh]
	 Opposite-Spin Energy      =      -1.0184703679745826 [Eh]
	 Correlation Energy        =      -1.3546753948866472 [Eh]
	 Total Energy              =    -342.6342669472293778 [Eh]

	 ================> DF-SCS-MP2 Energies <==================
	-----------------------------------------------------------
	 SCS Same-Spin Scale       =       0.3333333333333333 [-]
	 SCS Opposite-Spin Scale   =       1.2000000000000000 [-]
	 SCS Same-Spin Energy      =      -0.1120683423040215 [Eh]
	 SCS Opposite-Spin Energy  =      -1.2221644415694990 [Eh]
	 SCS Correlation Energy    =      -1.3342327838735206 [Eh]
	 SCS Total Energy          =    -342.6138243362162257 [Eh]
	-----------------------------------------------------------

  Dipole Moment: [D]
     X:     3.8173      Y:    -0.5079      Z:     0.3677     Total:     3.8685

*** Psi4 exiting successfully. Buy a developer a beer!
