                               Psi4 1.4a3.dev225

  ==> Input File <==

--------------------------------------------------------------------------
#psi4
#
memory 32 gb

molecule  {
-1 1
  O       -1.1681810     1.2683390    -0.1935740
  O        1.4902400    -1.1295240    -0.2243730
  O        1.3027740     1.0522020     0.4123420
  C       -0.6404390    -0.0405420    -0.4184120
  C       -1.4092810    -1.0711850     0.3952000
  C        0.8630350    -0.0522610    -0.0492080
  H       -0.7260590    -0.2876370    -1.4879020
  H       -1.3060210    -0.8470660     1.4617500
  H       -2.4733650    -1.0522610     0.1409170
  H       -1.0158520    -2.0724200     0.2054930
  H       -0.3981816     1.6926243     0.1413050
units angstrom
no_reorient  #important for SAPT in psi4, default
symmetry c1  #important for SAPT in psi4, default
}

set PROPERTIES_ORIGIN ["COM"]
properties('MP2/aug-cc-pvtz', properties = ['dipole'])
--------------------------------------------------------------------------

    Molecular point group: c1
  Charge       = -1
  Multiplicity = 1
  Basis Set: AUG-CC-PVTZ
    Blend: AUG-CC-PVTZ
  Basis Set: (AUG-CC-PVTZ AUX)
    Blend: AUG-CC-PVTZ-JKFIT

    Orbital Energies [Eh]
    ---------------------

    Doubly Occupied:

       1A    -20.379936     2A    -20.316760     3A    -20.310773
       4A    -11.153094     5A    -11.116762     6A    -11.072944
       7A     -1.211849     8A     -1.168226     9A     -1.082866
      10A     -0.863637    11A     -0.702042    12A     -0.574123
      13A     -0.500495    14A     -0.478168    15A     -0.437499
      16A     -0.408719    17A     -0.401821    18A     -0.373378
      19A     -0.369450    20A     -0.349790    21A     -0.281110
      22A     -0.233523    23A     -0.215053    24A     -0.213039

  @DF-RHF Final Energy:  -341.28058415661678

   => Energetics <=

    Nuclear Repulsion Energy =            239.2054425651674023
    One-Electron Energy =                -952.5419375355319289
    Two-Electron Energy =                 372.0559108137478006
    Total Energy =                       -341.2805841566167828
  Basis Set: (AUG-CC-PVTZ AUX)
    Blend: AUG-CC-PVTZ-RI
    Molecular point group: c1

    Geometry (in Angstrom), charge = -1, multiplicity = 1:

       Center              X                  Y                   Z               Mass
    ------------   -----------------  -----------------  -----------------  -----------------
         O           -1.233141627514     1.240307028625    -0.188030354722    15.994914619570
         O            1.425279372486    -1.157555971375    -0.218829354722    15.994914619570
         O            1.237813372486     1.024170028625     0.417885645278    15.994914619570
         C           -0.705399627514    -0.068573971375    -0.412868354722    12.000000000000
         C           -1.474241627514    -1.099216971375     0.400743645278    12.000000000000
         C            0.798074372486    -0.080292971375    -0.043664354722    12.000000000000
         H           -0.791019627514    -0.315668971375    -1.482358354722     1.007825032230
         H           -1.370981627514    -0.875097971375     1.467293645278     1.007825032230
         H           -2.538325627514    -1.080292971375     0.146460645278     1.007825032230
         H           -1.080812627514    -2.100451971375     0.211036645278     1.007825032230
         H           -0.463142227514     1.664592328625     0.146848645278     1.007825032230

  Basis Set: AUG-CC-PVTZ
    Blend: AUG-CC-PVTZ
  Basis Set: (AUG-CC-PVTZ AUX)
    Blend: AUG-CC-PVTZ-JKFIT
	 Reference Energy          =    -341.2805841566167828 [Eh]
	 Singles Energy            =      -0.0000000000000000 [Eh]
	 Same-Spin Energy          =      -0.3357663115617454 [Eh]
	 Opposite-Spin Energy      =      -1.0176643791365891 [Eh]
	 Correlation Energy        =      -1.3534306906983344 [Eh]
	 Total Energy              =    -342.6340148473151430 [Eh]

	 ================> DF-SCS-MP2 Energies <==================
	-----------------------------------------------------------
	 SCS Same-Spin Scale       =       0.3333333333333333 [-]
	 SCS Opposite-Spin Scale   =       1.2000000000000000 [-]
	 SCS Same-Spin Energy      =      -0.1119221038539151 [Eh]
	 SCS Opposite-Spin Energy  =      -1.2211972549639070 [Eh]
	 SCS Correlation Energy    =      -1.3331193588178221 [Eh]
	 SCS Total Energy          =    -342.6137035154346222 [Eh]
	-----------------------------------------------------------

  Dipole Moment: [D]
     X:    -3.8647      Y:    -0.6184      Z:    -0.3297     Total:     3.9277

*** Psi4 exiting successfully. Buy a developer a beer!
