                               Psi4 1.4a3.dev225

  ==> Input File <==

--------------------------------------------------------------------------
#psi4
#
memory 32 gb

molecule  {
-1 1
  O       -1.1681810     1.2683390    -0.1935740
  O        1.4902400    -1.1295240    -0.2243730
  O        1.3027740     1.0522020     0.4123420
  C       -0.6404390    -0.0405420    -0.4184120
  C       -1.4092810    -1.0711850     0.3952000
  C        0.8699316    -0.0349394    -0.0419694
  H       -0.7260590    -0.2876370    -1.4879020
  H       -1.3060210    -0.8470660     1.4617500
  H       -2.4733650    -1.0522610     0.1409170
  H       -1.0158520    -2.0724200     0.2054930
  H       -0.3572580     1.7151740     0.1591030
units angstrom
no_reorient  #important for SAPT in psi4, default
symmetry c1  #important for SAPT in psi4, default
}

set PROPERTIES_ORIGIN ["COM"]
properties('MP2/aug-cc-pvtz', properties = ['dipole'])
--------------------------------------------------------------------------

    Molecular point group: c1
  Charge       = -1
  Multiplicity = 1
  Basis Set: AUG-CC-PVTZ
    Blend: AUG-CC-PVTZ
  Basis Set: (AUG-CC-PVTZ AUX)
    Blend: AUG-CC-PVTZ-JKFIT

    Orbital Energies [Eh]
    ---------------------

    Doubly Occupied:

       1A    -20.380852     2A    -20.323590     3A    -20.307587
       4A    -11.153366     5A    -11.114959     6A    -11.071529
       7A     -1.207635     8A     -1.163953     9A     -1.085833
      10A     -0.859344    11A     -0.697954    12A     -0.567070
      13A     -0.500618    14A     -0.476912    15A     -0.436621
      16A     -0.405149    17A     -0.402917    18A     -0.371198
      19A     -0.364681    20A     -0.351907    21A     -0.278458
      22A     -0.237072    23A     -0.214699    24A     -0.212497

  @DF-RHF Final Energy:  -341.27976613978558

   => Energetics <=

    Nuclear Repulsion Energy =            238.9911870372314411
    One-Electron Energy =                -952.1691003936650759
    Two-Electron Energy =                 371.8981472166481126
    Total Energy =                       -341.2797661397855791
  Basis Set: (AUG-CC-PVTZ AUX)
    Blend: AUG-CC-PVTZ-RI
    Molecular point group: c1

    Geometry (in Angstrom), charge = -1, multiplicity = 1:

       Center              X                  Y                   Z               Mass
    ------------   -----------------  -----------------  -----------------  -----------------
         O           -1.234534546400     1.237716876628    -0.189207572373    15.994914619570
         O            1.423886453600    -1.160146123372    -0.220006572373    15.994914619570
         O            1.236420453600     1.021579876628     0.416708427627    15.994914619570
         C           -0.706792546400    -0.071164123372    -0.414045572373    12.000000000000
         C           -1.475634546400    -1.101807123372     0.399566427627    12.000000000000
         C            0.803578053600    -0.065561523372    -0.037602972373    12.000000000000
         H           -0.792412546400    -0.318259123372    -1.483535572373     1.007825032230
         H           -1.372374546400    -0.877688123372     1.466116427627     1.007825032230
         H           -2.539718546400    -1.082883123372     0.145283427627     1.007825032230
         H           -1.082205546400    -2.103042123372     0.209859427627     1.007825032230
         H           -0.423611546400     1.684551876628     0.163469427627     1.007825032230

  Basis Set: AUG-CC-PVTZ
    Blend: AUG-CC-PVTZ
  Basis Set: (AUG-CC-PVTZ AUX)
    Blend: AUG-CC-PVTZ-JKFIT
	 Reference Energy          =    -341.2797661397855791 [Eh]
	 Singles Energy            =      -0.0000000000000000 [Eh]
	 Same-Spin Energy          =      -0.3364601825637299 [Eh]
	 Opposite-Spin Energy      =      -1.0189092684023970 [Eh]
	 Correlation Energy        =      -1.3553694509661269 [Eh]
	 Total Energy              =    -342.6351355907517018 [Eh]

	 ================> DF-SCS-MP2 Energies <==================
	-----------------------------------------------------------
	 SCS Same-Spin Scale       =       0.3333333333333333 [-]
	 SCS Opposite-Spin Scale   =       1.2000000000000000 [-]
	 SCS Same-Spin Energy      =      -0.1121533941879100 [Eh]
	 SCS Opposite-Spin Energy  =      -1.2226911220828764 [Eh]
	 SCS Correlation Energy    =      -1.3348445162707865 [Eh]
	 SCS Total Energy          =    -342.6146106560563567 [Eh]
	-----------------------------------------------------------

  Dipole Moment: [D]
     X:    -3.7184      Y:    -0.4287      Z:    -0.2397     Total:     3.7507

*** Psi4 exiting successfully. Buy a developer a beer!
