                               Psi4 1.3.2 release

  ==> Input File <==

--------------------------------------------------------------------------
#psi4
#
memory 32 gb

molecule  {
-1 1
  O        1.1365690     1.2999450     0.1428980
  O       -1.4424670    -1.1799650     0.1827610
  O       -1.2974955     1.0573719    -0.3496935
  C        0.6393544     0.0628581     0.3905238
  C        1.4464200    -1.0470520    -0.3590510
  C       -0.8609500    -0.0719650     0.0469300
  H        0.7165270    -0.2335850     1.4896730
  H        1.3388480    -0.8658950    -1.4332610
  H        2.5070550    -0.9809740    -0.0983190
  H        1.0872750    -2.0528800    -0.1336960
  H        0.3068940     1.7456410    -0.1582790
units angstrom
no_reorient  #important for SAPT in psi4, default
symmetry c1  #important for SAPT in psi4, default
}

set PROPERTIES_ORIGIN ["COM"]
properties('MP2/aug-cc-pvtz', properties = ['dipole'])
--------------------------------------------------------------------------

    Molecular point group: c1
  Charge       = -1
  Multiplicity = 1
  Basis Set: AUG-CC-PVTZ
    Blend: AUG-CC-PVTZ
  Basis Set: (AUG-CC-PVTZ AUX)
    Blend: AUG-CC-PVTZ-JKFIT

    Orbital Energies [Eh]
    ---------------------

    Doubly Occupied:

       1A    -20.385615     2A    -20.319879     3A    -20.315237
       4A    -11.153935     5A    -11.114524     6A    -11.067952
       7A     -1.227410     8A     -1.172905     9A     -1.089646
      10A     -0.846655    11A     -0.696385    12A     -0.576764
      13A     -0.502928    14A     -0.481944    15A     -0.441931
      16A     -0.403818    17A     -0.400299    18A     -0.382549
      19A     -0.360429    20A     -0.352579    21A     -0.262523
      22A     -0.237949    23A     -0.218223    24A     -0.212082

  @DF-RHF Final Energy:  -341.27369441557863

   => Energetics <=

    Nuclear Repulsion Energy =            240.0444578994388962
    One-Electron Energy =                -954.1879818985876227
    Two-Electron Energy =                 372.8698295835701515
    Total Energy =                       -341.2736944155786318
  Basis Set: (AUG-CC-PVTZ AUX)
    Blend: AUG-CC-PVTZ-RI
    Molecular point group: c1

    Geometry (in Angstrom), charge = -1, multiplicity = 1:

       Center              X                  Y                   Z               Mass
    ------------   -----------------  -----------------  -----------------  -----------------
         O            1.192116347126     1.257806194034     0.140427772750    15.994914619570
         O           -1.386919652874    -1.222103805966     0.180290772750    15.994914619570
         O           -1.241948152874     1.015233094034    -0.352163727250    15.994914619570
         C            0.694901747126     0.020719294034     0.388053572750    12.000000000000
         C            1.501967347126    -1.089190805966    -0.361521227250    12.000000000000
         C           -0.805402652874    -0.114103805966     0.044459772750    12.000000000000
         H            0.772074347126    -0.275723805966     1.487202772750     1.007825032230
         H            1.394395347126    -0.908033805966    -1.435731227250     1.007825032230
         H            2.562602347126    -1.023112805966    -0.100789227250     1.007825032230
         H            1.142822347126    -2.095018805966    -0.136166227250     1.007825032230
         H            0.362441347126     1.703502194034    -0.160749227250     1.007825032230

  Basis Set: AUG-CC-PVTZ
    Blend: AUG-CC-PVTZ
  Basis Set: (AUG-CC-PVTZ AUX)
    Blend: AUG-CC-PVTZ-JKFIT
	 Reference Energy          =    -341.2736944155786318 [Eh]
	 Singles Energy            =      -0.0000000000000000 [Eh]
	 Same-Spin Energy          =      -0.3369007382246416 [Eh]
	 Opposite-Spin Energy      =      -1.0184987346974419 [Eh]
	 Correlation Energy        =      -1.3553994729220835 [Eh]
	 Total Energy              =    -342.6290938885007336 [Eh]

	 ================> DF-SCS-MP2 Energies <==================
	-----------------------------------------------------------
	 SCS Same-Spin Scale       =       0.3333333333333333 [-]
	 SCS Opposite-Spin Scale   =       1.2000000000000000 [-]
	 SCS Same-Spin Energy      =      -0.1123002460748805 [Eh]
	 SCS Opposite-Spin Energy  =      -1.2221984816369302 [Eh]
	 SCS Correlation Energy    =      -1.3344987277118108 [Eh]
	 SCS Total Energy          =    -342.6081931432904639 [Eh]
	-----------------------------------------------------------

  Dipole Moment: [D]
     X:     3.5977      Y:    -0.1630      Z:     0.2833     Total:     3.6125

*** Psi4 exiting successfully. Buy a developer a beer!
