                               Psi4 1.3.2 release

  ==> Input File <==

--------------------------------------------------------------------------
#psi4
#
memory 32 gb

molecule  {
-1 1
  O        1.1365690     1.2999450     0.1428980
  O       -1.4424670    -1.1799650     0.1827610
  O       -1.3575130     1.0293890    -0.3577040
  C        0.6639235    -0.0499279     0.4779539
  C        1.4464200    -1.0470520    -0.3590510
  C       -0.8609500    -0.0719650     0.0469300
  H        0.7165270    -0.2335850     1.4896730
  H        1.3732477    -0.9107426    -1.4427402
  H        2.5070550    -0.9809740    -0.0983190
  H        1.0872750    -2.0528800    -0.1336960
  H        0.3068940     1.7456410    -0.1582790
units angstrom
no_reorient  #important for SAPT in psi4, default
symmetry c1  #important for SAPT in psi4, default
}

set PROPERTIES_ORIGIN ["COM"]
properties('MP2/aug-cc-pvtz', properties = ['dipole'])
--------------------------------------------------------------------------

    Molecular point group: c1
  Charge       = -1
  Multiplicity = 1
  Basis Set: AUG-CC-PVTZ
    Blend: AUG-CC-PVTZ
  Basis Set: (AUG-CC-PVTZ AUX)
    Blend: AUG-CC-PVTZ-JKFIT

    Orbital Energies [Eh]
    ---------------------

    Doubly Occupied:

       1A    -20.375973     2A    -20.318488     3A    -20.310084
       4A    -11.154390     5A    -11.114587     6A    -11.072972
       7A     -1.195383     8A     -1.154096     9A     -1.082632
      10A     -0.863010    11A     -0.703449    12A     -0.561557
      13A     -0.502818    14A     -0.474579    15A     -0.431737
      16A     -0.405891    17A     -0.403034    18A     -0.368338
      19A     -0.360508    20A     -0.348522    21A     -0.286021
      22A     -0.232822    23A     -0.213395    24A     -0.209528

  @DF-RHF Final Energy:  -341.27136480213420

   => Energetics <=

    Nuclear Repulsion Energy =            237.9455129417083299
    One-Electron Energy =                -950.1461245783760887
    Two-Electron Energy =                 370.9292468345335578
    Total Energy =                       -341.2713648021342010
  Basis Set: (AUG-CC-PVTZ AUX)
    Blend: AUG-CC-PVTZ-RI
    Molecular point group: c1

    Geometry (in Angstrom), charge = -1, multiplicity = 1:

       Center              X                  Y                   Z               Mass
    ------------   -----------------  -----------------  -----------------  -----------------
         O            1.199198455737     1.278544616780     0.130189164033    15.994914619570
         O           -1.379837544263    -1.201365383220     0.170052164033    15.994914619570
         O           -1.294883544263     1.007988616780    -0.370412835967    15.994914619570
         C            0.726552955737    -0.071328283220     0.465245064033    12.000000000000
         C            1.509049455737    -1.068452383220    -0.371759835967    12.000000000000
         C           -0.798320544263    -0.093365383220     0.034221164033    12.000000000000
         H            0.779156455737    -0.254985383220     1.476964164033     1.007825032230
         H            1.435877155737    -0.932142983220    -1.455449035967     1.007825032230
         H            2.569684455737    -1.002374383220    -0.111027835967     1.007825032230
         H            1.149904455737    -2.074280383220    -0.146404835967     1.007825032230
         H            0.369523455737     1.724240616780    -0.170987835967     1.007825032230

  Basis Set: AUG-CC-PVTZ
    Blend: AUG-CC-PVTZ
  Basis Set: (AUG-CC-PVTZ AUX)
    Blend: AUG-CC-PVTZ-JKFIT
	 Reference Energy          =    -341.2713648021342010 [Eh]
	 Singles Energy            =      -0.0000000000000000 [Eh]
	 Same-Spin Energy          =      -0.3364468603747139 [Eh]
	 Opposite-Spin Energy      =      -1.0196395377946539 [Eh]
	 Correlation Energy        =      -1.3560863981693678 [Eh]
	 Total Energy              =    -342.6274512003035966 [Eh]

	 ================> DF-SCS-MP2 Energies <==================
	-----------------------------------------------------------
	 SCS Same-Spin Scale       =       0.3333333333333333 [-]
	 SCS Opposite-Spin Scale   =       1.2000000000000000 [-]
	 SCS Same-Spin Energy      =      -0.1121489534582380 [Eh]
	 SCS Opposite-Spin Energy  =      -1.2235674453535845 [Eh]
	 SCS Correlation Energy    =      -1.3357163988118226 [Eh]
	 SCS Total Energy          =    -342.6070812009460269 [Eh]
	-----------------------------------------------------------

  Dipole Moment: [D]
     X:     3.7424      Y:    -0.6336      Z:     0.5022     Total:     3.8287

*** Psi4 exiting successfully. Buy a developer a beer!
