                               Psi4 1.3.2 release

  ==> Input File <==

--------------------------------------------------------------------------
#psi4
#
memory 32 gb

molecule  {
-1 1
  O        1.1209300     1.2889768     0.0704321
  O       -1.4424670    -1.1799650     0.1827610
  O       -1.3575130     1.0293890    -0.3577040
  C        0.6396440    -0.0155260     0.4104950
  C        1.4464200    -1.0470520    -0.3590510
  C       -0.8609500    -0.0719650     0.0469300
  H        0.6936422    -0.2856065     1.4792450
  H        1.3388480    -0.8658950    -1.4332610
  H        2.5070550    -0.9809740    -0.0983190
  H        1.0872750    -2.0528800    -0.1336960
  H        0.3068940     1.7456410    -0.1582790
units angstrom
no_reorient  #important for SAPT in psi4, default
symmetry c1  #important for SAPT in psi4, default
}

set PROPERTIES_ORIGIN ["COM"]
properties('MP2/aug-cc-pvtz', properties = ['dipole'])
--------------------------------------------------------------------------

    Molecular point group: c1
  Charge       = -1
  Multiplicity = 1
  Basis Set: AUG-CC-PVTZ
    Blend: AUG-CC-PVTZ
  Basis Set: (AUG-CC-PVTZ AUX)
    Blend: AUG-CC-PVTZ-JKFIT

    Orbital Energies [Eh]
    ---------------------

    Doubly Occupied:

       1A    -20.381242     2A    -20.315807     3A    -20.308988
       4A    -11.150924     5A    -11.117149     6A    -11.070905
       7A     -1.207850     8A     -1.164937     9A     -1.081784
      10A     -0.863395    11A     -0.701913    12A     -0.567273
      13A     -0.506977    14A     -0.477650    15A     -0.436087
      16A     -0.402995    17A     -0.398324    18A     -0.373825
      19A     -0.367248    20A     -0.347524    21A     -0.281930
      22A     -0.232075    23A     -0.213708    24A     -0.211691

  @DF-RHF Final Energy:  -341.27870278354618

   => Energetics <=

    Nuclear Repulsion Energy =            239.4956275775006986
    One-Electron Energy =                -953.1842578881639838
    Two-Electron Energy =                 372.4099275271170768
    Total Energy =                       -341.2787027835461799
  Basis Set: (AUG-CC-PVTZ AUX)
    Blend: AUG-CC-PVTZ-RI
    Molecular point group: c1

    Geometry (in Angstrom), charge = -1, multiplicity = 1:

       Center              X                  Y                   Z               Mass
    ------------   -----------------  -----------------  -----------------  -----------------
         O            1.190290585595     1.264991072602     0.079847093624    15.994914619570
         O           -1.373106414405    -1.203950727398     0.192175993624    15.994914619570
         O           -1.288152414405     1.005403272602    -0.348289006376    15.994914619570
         C            0.709004585595    -0.039511727398     0.419909993624    12.000000000000
         C            1.515780585595    -1.071037727398    -0.349636006376    12.000000000000
         C           -0.791589414405    -0.095950727398     0.056344993624    12.000000000000
         H            0.763002785595    -0.309592227398     1.488659993624     1.007825032230
         H            1.408208585595    -0.889880727398    -1.423846006376     1.007825032230
         H            2.576415585595    -1.004959727398    -0.088904006376     1.007825032230
         H            1.156635585595    -2.076865727398    -0.124281006376     1.007825032230
         H            0.376254585595     1.721655272602    -0.148864006376     1.007825032230

  Basis Set: AUG-CC-PVTZ
    Blend: AUG-CC-PVTZ
  Basis Set: (AUG-CC-PVTZ AUX)
    Blend: AUG-CC-PVTZ-JKFIT
	 Reference Energy          =    -341.2787027835461799 [Eh]
	 Singles Energy            =      -0.0000000000000000 [Eh]
	 Same-Spin Energy          =      -0.3361443700698720 [Eh]
	 Opposite-Spin Energy      =      -1.0181464429769780 [Eh]
	 Correlation Energy        =      -1.3542908130468501 [Eh]
	 Total Energy              =    -342.6329935965930531 [Eh]

	 ================> DF-SCS-MP2 Energies <==================
	-----------------------------------------------------------
	 SCS Same-Spin Scale       =       0.3333333333333333 [-]
	 SCS Opposite-Spin Scale   =       1.2000000000000000 [-]
	 SCS Same-Spin Energy      =      -0.1120481233566240 [Eh]
	 SCS Opposite-Spin Energy  =      -1.2217757315723736 [Eh]
	 SCS Correlation Energy    =      -1.3338238549289976 [Eh]
	 SCS Total Energy          =    -342.6125266384751740 [Eh]
	-----------------------------------------------------------

  Dipole Moment: [D]
     X:     3.8453      Y:    -0.4225      Z:     0.4709     Total:     3.8970

*** Psi4 exiting successfully. Buy a developer a beer!
