                               Psi4 1.3.2 release

  ==> Input File <==

--------------------------------------------------------------------------
#psi4
#
memory 32 gb

molecule  {
-1 1
  O        1.1365690     1.2999450     0.1428980
  O       -1.4424670    -1.1799650     0.1827610
  O       -1.3575130     1.0293890    -0.3577040
  C        0.6396440    -0.0155260     0.4104950
  C        1.4464200    -1.0470520    -0.3590510
  C       -1.0551967    -0.0792708    -0.0001322
  H        0.7165270    -0.2335850     1.4896730
  H        1.3388480    -0.8658950    -1.4332610
  H        2.5070550    -0.9809740    -0.0983190
  H        1.0872750    -2.0528800    -0.1336960
  H        0.3068940     1.7456410    -0.1582790
units angstrom
no_reorient  #important for SAPT in psi4, default
symmetry c1  #important for SAPT in psi4, default
}

set PROPERTIES_ORIGIN ["COM"]
properties('MP2/aug-cc-pvtz', properties = ['dipole'])
--------------------------------------------------------------------------

    Molecular point group: c1
  Charge       = -1
  Multiplicity = 1
  Basis Set: AUG-CC-PVTZ
    Blend: AUG-CC-PVTZ
  Basis Set: (AUG-CC-PVTZ AUX)
    Blend: AUG-CC-PVTZ-JKFIT

    Orbital Energies [Eh]
    ---------------------

    Doubly Occupied:

       1A    -20.367616     2A    -20.331519     3A    -20.326340
       4A    -11.157616     5A    -11.084167     6A    -11.055809
       7A     -1.236122     8A     -1.168787     9A     -1.145838
      10A     -0.834625    11A     -0.654404    12A     -0.540620
      13A     -0.516304    14A     -0.463894    15A     -0.452716
      16A     -0.416395    17A     -0.393300    18A     -0.381132
      19A     -0.377378    20A     -0.353681    21A     -0.265617
      22A     -0.261488    23A     -0.243082    24A     -0.158713

  @DF-RHF Final Energy:  -341.25705307287558

   => Energetics <=

    Nuclear Repulsion Energy =            238.5546896976484845
    One-Electron Energy =                -951.2491615091034873
    Two-Electron Energy =                 371.4374187385794812
    Total Energy =                       -341.2570530728755784
  Basis Set: (AUG-CC-PVTZ AUX)
    Blend: AUG-CC-PVTZ-RI
    Molecular point group: c1

    Geometry (in Angstrom), charge = -1, multiplicity = 1:

       Center              X                  Y                   Z               Mass
    ------------   -----------------  -----------------  -----------------  -----------------
         O            1.229044196076     1.274384477055     0.145518758668    15.994914619570
         O           -1.349991803924    -1.205525522945     0.185381758668    15.994914619570
         O           -1.265037803924     1.003828477055    -0.355083241332    15.994914619570
         C            0.732119196076    -0.041086522945     0.413115758668    12.000000000000
         C            1.538895196076    -1.072612522945    -0.356430241332    12.000000000000
         C           -0.962721503924    -0.104831322945     0.002488558668    12.000000000000
         H            0.809002196076    -0.259145522945     1.492293758668     1.007825032230
         H            1.431323196076    -0.891455522945    -1.430640241332     1.007825032230
         H            2.599530196076    -1.006534522945    -0.095698241332     1.007825032230
         H            1.179750196076    -2.078440522945    -0.131075241332     1.007825032230
         H            0.399369196076     1.720080477055    -0.155658241332     1.007825032230

  Basis Set: AUG-CC-PVTZ
    Blend: AUG-CC-PVTZ
  Basis Set: (AUG-CC-PVTZ AUX)
    Blend: AUG-CC-PVTZ-JKFIT
	 Reference Energy          =    -341.2570530728755784 [Eh]
	 Singles Energy            =      -0.0000000000000000 [Eh]
	 Same-Spin Energy          =      -0.3353225261553490 [Eh]
	 Opposite-Spin Energy      =      -1.0156156831056014 [Eh]
	 Correlation Energy        =      -1.3509382092609503 [Eh]
	 Total Energy              =    -342.6079912821365383 [Eh]

	 ================> DF-SCS-MP2 Energies <==================
	-----------------------------------------------------------
	 SCS Same-Spin Scale       =       0.3333333333333333 [-]
	 SCS Opposite-Spin Scale   =       1.2000000000000000 [-]
	 SCS Same-Spin Energy      =      -0.1117741753851163 [Eh]
	 SCS Opposite-Spin Energy  =      -1.2187388197267215 [Eh]
	 SCS Correlation Energy    =      -1.3305129951118377 [Eh]
	 SCS Total Energy          =    -342.5875660679874386 [Eh]
	-----------------------------------------------------------

  Dipole Moment: [D]
     X:     2.3031      Y:    -0.4635      Z:     0.1168     Total:     2.3521

*** Psi4 exiting successfully. Buy a developer a beer!
