                               Psi4 1.3.2 release

  ==> Input File <==

--------------------------------------------------------------------------
#psi4
#
memory 32 gb

molecule  {
-1 1
  O        1.0909249     1.3130846     0.1273943
  O       -1.4424670    -1.1799650     0.1827610
  O       -1.3575130     1.0293890    -0.3577040
  C        0.6396440    -0.0155260     0.4104950
  C        1.4464200    -1.0470520    -0.3590510
  C       -0.8583354    -0.0201810     0.0320993
  H        0.7165270    -0.2335850     1.4896730
  H        1.3388480    -0.8658950    -1.4332610
  H        2.5070550    -0.9809740    -0.0983190
  H        1.0872750    -2.0528800    -0.1336960
  H        0.3068940     1.7456410    -0.1582790
units angstrom
no_reorient  #important for SAPT in psi4, default
symmetry c1  #important for SAPT in psi4, default
}

set PROPERTIES_ORIGIN ["COM"]
properties('MP2/aug-cc-pvtz', properties = ['dipole'])
--------------------------------------------------------------------------

    Molecular point group: c1
  Charge       = -1
  Multiplicity = 1
  Basis Set: AUG-CC-PVTZ
    Blend: AUG-CC-PVTZ
  Basis Set: (AUG-CC-PVTZ AUX)
    Blend: AUG-CC-PVTZ-JKFIT

    Orbital Energies [Eh]
    ---------------------

    Doubly Occupied:

       1A    -20.378926     2A    -20.327498     3A    -20.295986
       4A    -11.150053     5A    -11.117585     6A    -11.072654
       7A     -1.219682     8A     -1.170707     9A     -1.070395
      10A     -0.863305    11A     -0.702848    12A     -0.574324
      13A     -0.507995    14A     -0.479364    15A     -0.437611
      16A     -0.407374    17A     -0.400962    18A     -0.373846
      19A     -0.363831    20A     -0.351504    21A     -0.283723
      22A     -0.234379    23A     -0.207327    24A     -0.206706

  @DF-RHF Final Energy:  -341.27535208411820

   => Energetics <=

    Nuclear Repulsion Energy =            239.6405142647975026
    One-Electron Energy =                -953.4345627357328112
    Two-Electron Energy =                 372.5186963868171119
    Total Energy =                       -341.2753520841181967
  Basis Set: (AUG-CC-PVTZ AUX)
    Blend: AUG-CC-PVTZ-RI
    Molecular point group: c1

    Geometry (in Angstrom), charge = -1, multiplicity = 1:

       Center              X                  Y                   Z               Mass
    ------------   -----------------  -----------------  -----------------  -----------------
         O            1.165064989598     1.277198257809     0.128455952737    15.994914619570
         O           -1.368326910402    -1.215851342191     0.183822652737    15.994914619570
         O           -1.283372910402     0.993502657809    -0.356642347263    15.994914619570
         C            0.713784089598    -0.051412342191     0.411556652737    12.000000000000
         C            1.520560089598    -1.082938342191    -0.357989347263    12.000000000000
         C           -0.784195310402    -0.056067342191     0.033160952737    12.000000000000
         H            0.790667089598    -0.269471342191     1.490734652737     1.007825032230
         H            1.412988089598    -0.901781342191    -1.432199347263     1.007825032230
         H            2.581195089598    -1.016860342191    -0.097257347263     1.007825032230
         H            1.161415089598    -2.088766342191    -0.132634347263     1.007825032230
         H            0.381034089598     1.709754657809    -0.157217347263     1.007825032230

  Basis Set: AUG-CC-PVTZ
    Blend: AUG-CC-PVTZ
  Basis Set: (AUG-CC-PVTZ AUX)
    Blend: AUG-CC-PVTZ-JKFIT
	 Reference Energy          =    -341.2753520841181967 [Eh]
	 Singles Energy            =      -0.0000000000000000 [Eh]
	 Same-Spin Energy          =      -0.3355888137799251 [Eh]
	 Opposite-Spin Energy      =      -1.0172630995083916 [Eh]
	 Correlation Energy        =      -1.3528519132883166 [Eh]
	 Total Energy              =    -342.6282039974065015 [Eh]

	 ================> DF-SCS-MP2 Energies <==================
	-----------------------------------------------------------
	 SCS Same-Spin Scale       =       0.3333333333333333 [-]
	 SCS Opposite-Spin Scale   =       1.2000000000000000 [-]
	 SCS Same-Spin Energy      =      -0.1118629379266417 [Eh]
	 SCS Opposite-Spin Energy  =      -1.2207157194100697 [Eh]
	 SCS Correlation Energy    =      -1.3325786573367113 [Eh]
	 SCS Total Energy          =    -342.6079307414549362 [Eh]
	-----------------------------------------------------------

  Dipole Moment: [D]
     X:     3.9616      Y:     0.0666      Z:     0.2679     Total:     3.9712

*** Psi4 exiting successfully. Buy a developer a beer!
