                               Psi4 1.3.2 release

  ==> Input File <==

--------------------------------------------------------------------------
#psi4
#
memory 32 gb

molecule  {
-1 1
  O        1.1365690     1.2999450     0.1428980
  O       -1.4424670    -1.1799650     0.1827610
  O       -1.3575130     1.0293890    -0.3577040
  C        0.6396440    -0.0155260     0.4104950
  C        1.3933051    -0.9791404    -0.3083872
  C       -0.8609500    -0.0719650     0.0469300
  H        0.7165270    -0.2335850     1.4896730
  H        1.3388480    -0.8658950    -1.4332610
  H        2.5070550    -0.9809740    -0.0983190
  H        1.0872750    -2.0528800    -0.1336960
  H        0.3068940     1.7456410    -0.1582790
units angstrom
no_reorient  #important for SAPT in psi4, default
symmetry c1  #important for SAPT in psi4, default
}

set PROPERTIES_ORIGIN ["COM"]
properties('MP2/aug-cc-pvtz', properties = ['dipole'])
--------------------------------------------------------------------------

    Molecular point group: c1
  Charge       = -1
  Multiplicity = 1
  Basis Set: AUG-CC-PVTZ
    Blend: AUG-CC-PVTZ
  Basis Set: (AUG-CC-PVTZ AUX)
    Blend: AUG-CC-PVTZ-JKFIT

    Orbital Energies [Eh]
    ---------------------

    Doubly Occupied:

       1A    -20.381567     2A    -20.318576     3A    -20.310868
       4A    -11.153500     5A    -11.110839     6A    -11.077711
       7A     -1.206108     8A     -1.164596     9A     -1.084105
      10A     -0.879943    11A     -0.693698    12A     -0.571089
      13A     -0.502989    14A     -0.483298    15A     -0.446092
      16A     -0.405662    17A     -0.393538    18A     -0.365908
      19A     -0.357570    20A     -0.343340    21A     -0.287267
      22A     -0.233167    23A     -0.215050    24A     -0.214008

  @DF-RHF Final Energy:  -341.26799950646085

   => Energetics <=

    Nuclear Repulsion Energy =            240.6045457389096782
    One-Electron Energy =                -955.3441090476623003
    Two-Electron Energy =                 373.4715638022917688
    Total Energy =                       -341.2679995064608534
  Basis Set: (AUG-CC-PVTZ AUX)
    Blend: AUG-CC-PVTZ-RI
    Molecular point group: c1

    Geometry (in Angstrom), charge = -1, multiplicity = 1:

       Center              X                  Y                   Z               Mass
    ------------   -----------------  -----------------  -----------------  -----------------
         O            1.210020291379     1.264245524324     0.132345752227    15.994914619570
         O           -1.369015708621    -1.215664475676     0.172208752227    15.994914619570
         O           -1.284061708621     0.993689524324    -0.368256247773    15.994914619570
         C            0.713095291379    -0.051225475676     0.399942752227    12.000000000000
         C            1.466756391379    -1.014839875676    -0.318939447773    12.000000000000
         C           -0.787498708621    -0.107664475676     0.036377752227    12.000000000000
         H            0.789978291379    -0.269284475676     1.479120752227     1.007825032230
         H            1.412299291379    -0.901594475676    -1.443813247773     1.007825032230
         H            2.580506291379    -1.016673475676    -0.108871247773     1.007825032230
         H            1.160726291379    -2.088579475676    -0.144248247773     1.007825032230
         H            0.380345291379     1.709941524324    -0.168831247773     1.007825032230

  Basis Set: AUG-CC-PVTZ
    Blend: AUG-CC-PVTZ
  Basis Set: (AUG-CC-PVTZ AUX)
    Blend: AUG-CC-PVTZ-JKFIT
	 Reference Energy          =    -341.2679995064608534 [Eh]
	 Singles Energy            =      -0.0000000000000000 [Eh]
	 Same-Spin Energy          =      -0.3374632441038312 [Eh]
	 Opposite-Spin Energy      =      -1.0202551547600192 [Eh]
	 Correlation Energy        =      -1.3577183988638504 [Eh]
	 Total Energy              =    -342.6257179053246773 [Eh]

	 ================> DF-SCS-MP2 Energies <==================
	-----------------------------------------------------------
	 SCS Same-Spin Scale       =       0.3333333333333333 [-]
	 SCS Opposite-Spin Scale   =       1.2000000000000000 [-]
	 SCS Same-Spin Energy      =      -0.1124877480346104 [Eh]
	 SCS Opposite-Spin Energy  =      -1.2243061857120230 [Eh]
	 SCS Correlation Energy    =      -1.3367939337466335 [Eh]
	 SCS Total Energy          =    -342.6047934402074588 [Eh]
	-----------------------------------------------------------

  Dipole Moment: [D]
     X:     3.7238      Y:    -0.4801      Z:     0.3971     Total:     3.7756

*** Psi4 exiting successfully. Buy a developer a beer!
