                               Psi4 1.3.2 release

  ==> Input File <==

--------------------------------------------------------------------------
#psi4
#
memory 32 gb

molecule  {
-1 1
  O        1.1016219     1.3184144     0.1734591
  O       -1.4424670    -1.1799650     0.1827610
  O       -1.3575130     1.0293890    -0.3577040
  C        0.6396440    -0.0155260     0.4104950
  C        1.4159732    -1.0850933    -0.3381526
  C       -0.8609500    -0.0719650     0.0469300
  H        0.7165270    -0.2335850     1.4896730
  H        1.3388480    -0.8658950    -1.4332610
  H        2.5070550    -0.9809740    -0.0983190
  H        1.0872750    -2.0528800    -0.1336960
  H        0.3068940     1.7456410    -0.1582790
units angstrom
no_reorient  #important for SAPT in psi4, default
symmetry c1  #important for SAPT in psi4, default
}

set PROPERTIES_ORIGIN ["COM"]
properties('MP2/aug-cc-pvtz', properties = ['dipole'])
--------------------------------------------------------------------------

    Molecular point group: c1
  Charge       = -1
  Multiplicity = 1
  Basis Set: AUG-CC-PVTZ
    Blend: AUG-CC-PVTZ
  Basis Set: (AUG-CC-PVTZ AUX)
    Blend: AUG-CC-PVTZ-JKFIT

    Orbital Energies [Eh]
    ---------------------

    Doubly Occupied:

       1A    -20.381080     2A    -20.315952     3A    -20.309214
       4A    -11.151136     5A    -11.117130     6A    -11.074659
       7A     -1.207358     8A     -1.164884     9A     -1.081970
      10A     -0.865460    11A     -0.701973    12A     -0.570433
      13A     -0.501335    14A     -0.478022    15A     -0.436345
      16A     -0.414871    17A     -0.398623    18A     -0.374116
      19A     -0.362007    20A     -0.348991    21A     -0.280167
      22A     -0.232214    23A     -0.213767    24A     -0.212284

  @DF-RHF Final Energy:  -341.27700868242079

   => Energetics <=

    Nuclear Repulsion Energy =            239.1932110189569869
    One-Electron Energy =                -952.5524521111115064
    Two-Electron Energy =                 372.0822324097337628
    Total Energy =                       -341.2770086824207851
  Basis Set: (AUG-CC-PVTZ AUX)
    Blend: AUG-CC-PVTZ-RI
    Molecular point group: c1

    Geometry (in Angstrom), charge = -1, multiplicity = 1:

       Center              X                  Y                   Z               Mass
    ------------   -----------------  -----------------  -----------------  -----------------
         O            1.178296581734     1.293678482015     0.161428177051    15.994914619570
         O           -1.365792318266    -1.204700917985     0.170730077051    15.994914619570
         O           -1.280838318266     1.004653082015    -0.369734922949    15.994914619570
         C            0.716318681734    -0.040261917985     0.398464077051    12.000000000000
         C            1.492647881734    -1.109829217985    -0.350183522949    12.000000000000
         C           -0.784275318266    -0.096700917985     0.034899077051    12.000000000000
         H            0.793201681734    -0.258320917985     1.477642077051     1.007825032230
         H            1.415522681734    -0.890630917985    -1.445291922949     1.007825032230
         H            2.583729681734    -1.005709917985    -0.110349922949     1.007825032230
         H            1.163949681734    -2.077615917985    -0.145726922949     1.007825032230
         H            0.383568681734     1.720905082015    -0.170309922949     1.007825032230

  Basis Set: AUG-CC-PVTZ
    Blend: AUG-CC-PVTZ
  Basis Set: (AUG-CC-PVTZ AUX)
    Blend: AUG-CC-PVTZ-JKFIT
	 Reference Energy          =    -341.2770086824207851 [Eh]
	 Singles Energy            =      -0.0000000000000000 [Eh]
	 Same-Spin Energy          =      -0.3359940227887713 [Eh]
	 Opposite-Spin Energy      =      -1.0180704311774160 [Eh]
	 Correlation Energy        =      -1.3540644539661875 [Eh]
	 Total Energy              =    -342.6310731363869877 [Eh]

	 ================> DF-SCS-MP2 Energies <==================
	-----------------------------------------------------------
	 SCS Same-Spin Scale       =       0.3333333333333333 [-]
	 SCS Opposite-Spin Scale   =       1.2000000000000000 [-]
	 SCS Same-Spin Energy      =      -0.1119980075962571 [Eh]
	 SCS Opposite-Spin Energy  =      -1.2216845174128992 [Eh]
	 SCS Correlation Energy    =      -1.3336825250091562 [Eh]
	 SCS Total Energy          =    -342.6106912074299657 [Eh]
	-----------------------------------------------------------

  Dipole Moment: [D]
     X:     3.8394      Y:    -0.5335      Z:     0.3607     Total:     3.8931

*** Psi4 exiting successfully. Buy a developer a beer!
