                               Psi4 1.3.2 release

  ==> Input File <==

--------------------------------------------------------------------------
#psi4
#
memory 32 gb

molecule  {
-1 1
  O        1.1365690     1.2999450     0.1428980
  O       -1.4518342    -1.1754240     0.1792561
  O       -1.3673905     1.0244320    -0.3589219
  C        0.6396440    -0.0155260     0.4104950
  C        1.4464200    -1.0470520    -0.3590510
  C       -0.8609500    -0.0719650     0.0469300
  H        0.7165270    -0.2335850     1.4896730
  H        1.3388480    -0.8658950    -1.4332610
  H        2.5070550    -0.9809740    -0.0983190
  H        1.0872750    -2.0528800    -0.1336960
  H        0.3068940     1.7456410    -0.1582790
units angstrom
no_reorient  #important for SAPT in psi4, default
symmetry c1  #important for SAPT in psi4, default
}

set PROPERTIES_ORIGIN ["COM"]
properties('MP2/aug-cc-pvtz', properties = ['dipole'])
--------------------------------------------------------------------------

    Molecular point group: c1
  Charge       = -1
  Multiplicity = 1
  Basis Set: AUG-CC-PVTZ
    Blend: AUG-CC-PVTZ
  Basis Set: (AUG-CC-PVTZ AUX)
    Blend: AUG-CC-PVTZ-JKFIT

    Orbital Energies [Eh]
    ---------------------

    Doubly Occupied:

       1A    -20.382849     2A    -20.316863     3A    -20.309213
       4A    -11.152049     5A    -11.117592     6A    -11.072620
       7A     -1.204287     8A     -1.164089     9A     -1.081303
      10A     -0.862750    11A     -0.701885    12A     -0.567141
      13A     -0.499956    14A     -0.477638    15A     -0.436748
      16A     -0.404719    17A     -0.399864    18A     -0.372478
      19A     -0.367010    20A     -0.349382    21A     -0.280059
      22A     -0.232465    23A     -0.215336    24A     -0.212220

  @DF-RHF Final Energy:  -341.27963057211366

   => Energetics <=

    Nuclear Repulsion Energy =            238.8279207965503588
    One-Electron Energy =                -951.8540731232121743
    Two-Electron Energy =                 371.7465217545480982
    Total Energy =                       -341.2796305721136605
  Basis Set: (AUG-CC-PVTZ AUX)
    Blend: AUG-CC-PVTZ-RI
    Molecular point group: c1

    Geometry (in Angstrom), charge = -1, multiplicity = 1:

       Center              X                  Y                   Z               Mass
    ------------   -----------------  -----------------  -----------------  -----------------
         O            1.206318346381     1.273474432183     0.140023540109    15.994914619570
         O           -1.382084853619    -1.201894567817     0.176381640109    15.994914619570
         O           -1.297641153619     0.997961432183    -0.361796359891    15.994914619570
         C            0.709393346381    -0.041996567817     0.407620540109    12.000000000000
         C            1.516169346381    -1.073522567817    -0.361925459891    12.000000000000
         C           -0.791200653619    -0.098435567817     0.044055540109    12.000000000000
         H            0.786276346381    -0.260055567817     1.486798540109     1.007825032230
         H            1.408597346381    -0.892365567817    -1.436135459891     1.007825032230
         H            2.576804346381    -1.007444567817    -0.101193459891     1.007825032230
         H            1.157024346381    -2.079350567817    -0.136570459891     1.007825032230
         H            0.376643346381     1.719170432183    -0.161153459891     1.007825032230

  Basis Set: AUG-CC-PVTZ
    Blend: AUG-CC-PVTZ
  Basis Set: (AUG-CC-PVTZ AUX)
    Blend: AUG-CC-PVTZ-JKFIT
	 Reference Energy          =    -341.2796305721136605 [Eh]
	 Singles Energy            =      -0.0000000000000000 [Eh]
	 Same-Spin Energy          =      -0.3364134368116563 [Eh]
	 Opposite-Spin Energy      =      -1.0189553611552142 [Eh]
	 Correlation Energy        =      -1.3553687979668705 [Eh]
	 Total Energy              =    -342.6349993700805499 [Eh]

	 ================> DF-SCS-MP2 Energies <==================
	-----------------------------------------------------------
	 SCS Same-Spin Scale       =       0.3333333333333333 [-]
	 SCS Opposite-Spin Scale   =       1.2000000000000000 [-]
	 SCS Same-Spin Energy      =      -0.1121378122705521 [Eh]
	 SCS Opposite-Spin Energy  =      -1.2227464333862570 [Eh]
	 SCS Correlation Energy    =      -1.3348842456568091 [Eh]
	 SCS Total Energy          =    -342.6145148177704414 [Eh]
	-----------------------------------------------------------

  Dipole Moment: [D]
     X:     3.8536      Y:    -0.4751      Z:     0.3853     Total:     3.9019

*** Psi4 exiting successfully. Buy a developer a beer!
