                               Psi4 1.4a3.dev225

  ==> Input File <==

--------------------------------------------------------------------------
#psi4
#
memory 32 gb

molecule  {
-1 1
  O       -1.1681810     1.2683390    -0.1935740
  O        1.4902400    -1.1295240    -0.2243730
  O        1.3027740     1.0522020     0.4123420
  C       -0.6404390    -0.0405420    -0.4184120
  C       -1.4092810    -1.0711850     0.3952000
  C        0.8630350    -0.0522610    -0.0492080
  H       -0.7221707    -0.2764156    -1.4393329
  H       -1.3060210    -0.8470660     1.4617500
  H       -2.4733650    -1.0522610     0.1409170
  H       -1.0158520    -2.0724200     0.2054930
  H       -0.3572580     1.7151740     0.1591030
units angstrom
no_reorient  #important for SAPT in psi4, default
symmetry c1  #important for SAPT in psi4, default
}

set PROPERTIES_ORIGIN ["COM"]
properties('MP2/aug-cc-pvtz', properties = ['dipole'])
--------------------------------------------------------------------------

    Molecular point group: c1
  Charge       = -1
  Multiplicity = 1
  Basis Set: AUG-CC-PVTZ
    Blend: AUG-CC-PVTZ
  Basis Set: (AUG-CC-PVTZ AUX)
    Blend: AUG-CC-PVTZ-JKFIT

    Orbital Energies [Eh]
    ---------------------

    Doubly Occupied:

       1A    -20.379693     2A    -20.318619     3A    -20.311421
       4A    -11.153108     5A    -11.109052     6A    -11.071674
       7A     -1.204158     8A     -1.163032     9A     -1.083972
      10A     -0.862448    11A     -0.703874    12A     -0.569556
      13A     -0.500781    14A     -0.478792    15A     -0.436156
      16A     -0.405598    17A     -0.401394    18A     -0.372021
      19A     -0.366082    20A     -0.350172    21A     -0.279912
      22A     -0.234727    23A     -0.215166    24A     -0.214128

  @DF-RHF Final Energy:  -341.27899191134429

   => Energetics <=

    Nuclear Repulsion Energy =            239.2390540656484177
    One-Electron Energy =                -952.6650178594846921
    Two-Electron Energy =                 372.1469718824919255
    Total Energy =                       -341.2789919113442920
  Basis Set: (AUG-CC-PVTZ AUX)
    Blend: AUG-CC-PVTZ-RI
    Molecular point group: c1

    Geometry (in Angstrom), charge = -1, multiplicity = 1:

       Center              X                  Y                   Z               Mass
    ------------   -----------------  -----------------  -----------------  -----------------
         O           -1.233648935891     1.239924711384    -0.188781686084    15.994914619570
         O            1.424772064109    -1.157938288616    -0.219580686084    15.994914619570
         O            1.237306064109     1.023787711384     0.417134313916    15.994914619570
         C           -0.705906935891    -0.068956288616    -0.413619686084    12.000000000000
         C           -1.474748935891    -1.099599288616     0.399992313916    12.000000000000
         C            0.797567064109    -0.080675288616    -0.044415686084    12.000000000000
         H           -0.787638635891    -0.304829888616    -1.434540586084     1.007825032230
         H           -1.371488935891    -0.875480288616     1.466542313916     1.007825032230
         H           -2.538832935891    -1.080675288616     0.145709313916     1.007825032230
         H           -1.081319935891    -2.100834288616     0.210285313916     1.007825032230
         H           -0.422725935891     1.686759711384     0.163895313916     1.007825032230

  Basis Set: AUG-CC-PVTZ
    Blend: AUG-CC-PVTZ
  Basis Set: (AUG-CC-PVTZ AUX)
    Blend: AUG-CC-PVTZ-JKFIT
	 Reference Energy          =    -341.2789919113442920 [Eh]
	 Singles Energy            =      -0.0000000000000000 [Eh]
	 Same-Spin Energy          =      -0.3365787009605318 [Eh]
	 Opposite-Spin Energy      =      -1.0189299379598644 [Eh]
	 Correlation Energy        =      -1.3555086389203963 [Eh]
	 Total Energy              =    -342.6345005502647041 [Eh]

	 ================> DF-SCS-MP2 Energies <==================
	-----------------------------------------------------------
	 SCS Same-Spin Scale       =       0.3333333333333333 [-]
	 SCS Opposite-Spin Scale   =       1.2000000000000000 [-]
	 SCS Same-Spin Energy      =      -0.1121929003201773 [Eh]
	 SCS Opposite-Spin Energy  =      -1.2227159255518372 [Eh]
	 SCS Correlation Energy    =      -1.3349088258720145 [Eh]
	 SCS Total Energy          =    -342.6139007372162837 [Eh]
	-----------------------------------------------------------

  Dipole Moment: [D]
     X:    -3.7467      Y:    -0.6307      Z:    -0.3436     Total:     3.8149

*** Psi4 exiting successfully. Buy a developer a beer!
