                               Psi4 1.3.2 release

  ==> Input File <==

--------------------------------------------------------------------------
#psi4
#
memory 32 gb

molecule  {
-1 1
  O        1.1365690     1.2999450     0.1428980
  O       -1.4424670    -1.1799650     0.1827610
  O       -1.3575130     1.0293890    -0.3577040
  C        0.6396440    -0.0155260     0.4104950
  C        1.4464200    -1.0470520    -0.3590510
  C       -0.8147495     0.0160637     0.0361385
  H        0.7165270    -0.2335850     1.4896730
  H        1.3388480    -0.8658950    -1.4332610
  H        2.5070550    -0.9809740    -0.0983190
  H        1.0872750    -2.0528800    -0.1336960
  H        0.3068940     1.7456410    -0.1582790
units angstrom
no_reorient  #important for SAPT in psi4, default
symmetry c1  #important for SAPT in psi4, default
}

set PROPERTIES_ORIGIN ["COM"]
properties('MP2/aug-cc-pvtz', properties = ['dipole'])
--------------------------------------------------------------------------

    Molecular point group: c1
  Charge       = -1
  Multiplicity = 1
  Basis Set: AUG-CC-PVTZ
    Blend: AUG-CC-PVTZ
  Basis Set: (AUG-CC-PVTZ AUX)
    Blend: AUG-CC-PVTZ-JKFIT

    Orbital Energies [Eh]
    ---------------------

    Doubly Occupied:

       1A    -20.386717     2A    -20.337664     3A    -20.288202
       4A    -11.152934     5A    -11.120850     6A    -11.074318
       7A     -1.222967     8A     -1.171653     9A     -1.045039
      10A     -0.865347    11A     -0.713210    12A     -0.577228
      13A     -0.507677    14A     -0.483184    15A     -0.440606
      16A     -0.407175    17A     -0.397900    18A     -0.371347
      19A     -0.363567    20A     -0.351835    21A     -0.285574
      22A     -0.235335    23A     -0.204488    24A     -0.197884

  @DF-RHF Final Energy:  -341.26224075265856

   => Energetics <=

    Nuclear Repulsion Energy =            239.2829373810994866
    One-Electron Energy =                -952.6849507574029303
    Two-Electron Energy =                 372.1397726236448875
    Total Energy =                       -341.2622407526585562
  Basis Set: (AUG-CC-PVTZ AUX)
    Blend: AUG-CC-PVTZ-RI
    Molecular point group: c1

    Geometry (in Angstrom), charge = -1, multiplicity = 1:

       Center              X                  Y                   Z               Mass
    ------------   -----------------  -----------------  -----------------  -----------------
         O            1.196633041273     1.261533833598     0.140629638427    15.994914619570
         O           -1.382402958727    -1.218376166402     0.180492638427    15.994914619570
         O           -1.297448958727     0.990977833598    -0.359972361573    15.994914619570
         C            0.699708041273    -0.053937166402     0.408226638427    12.000000000000
         C            1.506484041273    -1.085463166402    -0.361319361573    12.000000000000
         C           -0.754685458727    -0.022347466402     0.033870138427    12.000000000000
         H            0.776591041273    -0.271996166402     1.487404638427     1.007825032230
         H            1.398912041273    -0.904306166402    -1.435529361573     1.007825032230
         H            2.567119041273    -1.019385166402    -0.100587361573     1.007825032230
         H            1.147339041273    -2.091291166402    -0.135964361573     1.007825032230
         H            0.366958041273     1.707229833598    -0.160547361573     1.007825032230

  Basis Set: AUG-CC-PVTZ
    Blend: AUG-CC-PVTZ
  Basis Set: (AUG-CC-PVTZ AUX)
    Blend: AUG-CC-PVTZ-JKFIT
	 Reference Energy          =    -341.2622407526585562 [Eh]
	 Singles Energy            =      -0.0000000000000000 [Eh]
	 Same-Spin Energy          =      -0.3372193627760345 [Eh]
	 Opposite-Spin Energy      =      -1.0208986461838185 [Eh]
	 Correlation Energy        =      -1.3581180089598530 [Eh]
	 Total Energy              =    -342.6203587616184336 [Eh]

	 ================> DF-SCS-MP2 Energies <==================
	-----------------------------------------------------------
	 SCS Same-Spin Scale       =       0.3333333333333333 [-]
	 SCS Opposite-Spin Scale   =       1.2000000000000000 [-]
	 SCS Same-Spin Energy      =      -0.1124064542586782 [Eh]
	 SCS Opposite-Spin Energy  =      -1.2250783754205823 [Eh]
	 SCS Correlation Energy    =      -1.3374848296792605 [Eh]
	 SCS Total Energy          =    -342.5997255823378396 [Eh]
	-----------------------------------------------------------

  Dipole Moment: [D]
     X:     4.1380      Y:     0.4047      Z:     0.2153     Total:     4.1633

*** Psi4 exiting successfully. Buy a developer a beer!
