                               Psi4 1.3.2 release

  ==> Input File <==

--------------------------------------------------------------------------
#psi4
#
memory 32 gb

molecule  {
-1 1
  O        1.1365690     1.2999450     0.1428980
  O       -1.4424670    -1.1799650     0.1827610
  O       -1.3575130     1.0293890    -0.3577040
  C        0.6396440    -0.0155260     0.4104950
  C        1.4464200    -1.0470520    -0.3590510
  C       -0.6667033    -0.0646592     0.0939922
  H        0.7165270    -0.2335850     1.4896730
  H        1.3388480    -0.8658950    -1.4332610
  H        2.5070550    -0.9809740    -0.0983190
  H        1.0872750    -2.0528800    -0.1336960
  H        0.3068940     1.7456410    -0.1582790
units angstrom
no_reorient  #important for SAPT in psi4, default
symmetry c1  #important for SAPT in psi4, default
}

set PROPERTIES_ORIGIN ["COM"]
properties('MP2/aug-cc-pvtz', properties = ['dipole'])
--------------------------------------------------------------------------

    Molecular point group: c1
  Charge       = -1
  Multiplicity = 1
  Basis Set: AUG-CC-PVTZ
    Blend: AUG-CC-PVTZ
  Basis Set: (AUG-CC-PVTZ AUX)
    Blend: AUG-CC-PVTZ-JKFIT

    Orbital Energies [Eh]
    ---------------------

    Doubly Occupied:

       1A    -20.392386     2A    -20.316189     3A    -20.305679
       4A    -11.163126     5A    -11.126639     6A    -11.086695
       7A     -1.212322     8A     -1.122298     9A     -1.023819
      10A     -0.898443    11A     -0.760132    12A     -0.592653
      13A     -0.511924    14A     -0.467597    15A     -0.453368
      16A     -0.415711    17A     -0.396483    18A     -0.371002
      19A     -0.342810    20A     -0.320092    21A     -0.283306
      22A     -0.246586    23A     -0.199975    24A     -0.190604

  @DF-RHF Final Energy:  -341.20876357081340

   => Energetics <=

    Nuclear Repulsion Energy =            239.4900309835284418
    One-Electron Energy =                -952.9979062699078440
    Two-Electron Energy =                 372.2991117155660277
    Total Energy =                       -341.2087635708134030
  Basis Set: (AUG-CC-PVTZ AUX)
    Blend: AUG-CC-PVTZ-RI
    Molecular point group: c1

    Geometry (in Angstrom), charge = -1, multiplicity = 1:

       Center              X                  Y                   Z               Mass
    ------------   -----------------  -----------------  -----------------  -----------------
         O            1.176677107886     1.272414901907     0.132831231015    15.994914619570
         O           -1.402358892114    -1.207495098093     0.172694231015    15.994914619570
         O           -1.317404892114     1.001858901907    -0.367770768985    15.994914619570
         C            0.679752107886    -0.043056098093     0.400428231015    12.000000000000
         C            1.486528107886    -1.074582098093    -0.369117768985    12.000000000000
         C           -0.626595192114    -0.092189298093     0.083925431015    12.000000000000
         H            0.756635107886    -0.261115098093     1.479606231015     1.007825032230
         H            1.378956107886    -0.893425098093    -1.443327768985     1.007825032230
         H            2.547163107886    -1.008504098093    -0.108385768985     1.007825032230
         H            1.127383107886    -2.080410098093    -0.143762768985     1.007825032230
         H            0.347002107886     1.718110901907    -0.168345768985     1.007825032230

  Basis Set: AUG-CC-PVTZ
    Blend: AUG-CC-PVTZ
  Basis Set: (AUG-CC-PVTZ AUX)
    Blend: AUG-CC-PVTZ-JKFIT
	 Reference Energy          =    -341.2087635708134030 [Eh]
	 Singles Energy            =      -0.0000000000000000 [Eh]
	 Same-Spin Energy          =      -0.3424459430034184 [Eh]
	 Opposite-Spin Energy      =      -1.0311495833715383 [Eh]
	 Correlation Energy        =      -1.3735955263749566 [Eh]
	 Total Energy              =    -342.5823590971883732 [Eh]

	 ================> DF-SCS-MP2 Energies <==================
	-----------------------------------------------------------
	 SCS Same-Spin Scale       =       0.3333333333333333 [-]
	 SCS Opposite-Spin Scale   =       1.2000000000000000 [-]
	 SCS Same-Spin Energy      =      -0.1141486476678061 [Eh]
	 SCS Opposite-Spin Energy  =      -1.2373795000458458 [Eh]
	 SCS Correlation Energy    =      -1.3515281477136520 [Eh]
	 SCS Total Energy          =    -342.5602917185270826 [Eh]
	-----------------------------------------------------------

  Dipole Moment: [D]
     X:     4.7838      Y:    -0.4897      Z:     0.5462     Total:     4.8397

*** Psi4 exiting successfully. Buy a developer a beer!
