                               Psi4 1.3.2 release

  ==> Input File <==

--------------------------------------------------------------------------
#psi4
#
memory 32 gb

molecule  {
-1 1
  O        1.1365690     1.2999450     0.1428980
  O       -1.4330581    -1.1844191     0.1862656
  O       -1.3575130     1.0293890    -0.3577040
  C        0.6392896    -0.0286082     0.4137388
  C        1.4464200    -1.0470520    -0.3590510
  C       -0.8609500    -0.0719650     0.0469300
  H        0.7165270    -0.2335850     1.4896730
  H        1.3388480    -0.8658950    -1.4332610
  H        2.5070550    -0.9809740    -0.0983190
  H        1.0872750    -2.0528800    -0.1336960
  H        0.3068940     1.7456410    -0.1582790
units angstrom
no_reorient  #important for SAPT in psi4, default
symmetry c1  #important for SAPT in psi4, default
}

set PROPERTIES_ORIGIN ["COM"]
properties('MP2/aug-cc-pvtz', properties = ['dipole'])
--------------------------------------------------------------------------

    Molecular point group: c1
  Charge       = -1
  Multiplicity = 1
  Basis Set: AUG-CC-PVTZ
    Blend: AUG-CC-PVTZ
  Basis Set: (AUG-CC-PVTZ AUX)
    Blend: AUG-CC-PVTZ-JKFIT

    Orbital Energies [Eh]
    ---------------------

    Doubly Occupied:

       1A    -20.379722     2A    -20.318677     3A    -20.310508
       4A    -11.153049     5A    -11.115584     6A    -11.071896
       7A     -1.201520     8A     -1.160701     9A     -1.084150
      10A     -0.863598    11A     -0.701169    12A     -0.564612
      13A     -0.500059    14A     -0.476762    15A     -0.436176
      16A     -0.404318    17A     -0.400775    18A     -0.369680
      19A     -0.366085    20A     -0.349001    21A     -0.280526
      22A     -0.234379    23A     -0.214857    24A     -0.213980

  @DF-RHF Final Energy:  -341.27929261837153

   => Energetics <=

    Nuclear Repulsion Energy =            238.9163284119698005
    One-Electron Energy =                -952.0476762058520990
    Two-Electron Energy =                 371.8520551755107135
    Total Energy =                       -341.2792926183715281
  Basis Set: (AUG-CC-PVTZ AUX)
    Blend: AUG-CC-PVTZ-RI
    Molecular point group: c1

    Geometry (in Angstrom), charge = -1, multiplicity = 1:

       Center              X                  Y                   Z               Mass
    ------------   -----------------  -----------------  -----------------  -----------------
         O            1.201217926791     1.275963376633     0.138108074488    15.994914619570
         O           -1.368409173209    -1.208400723367     0.181475674488    15.994914619570
         O           -1.292864073209     1.005407376633    -0.362493925512    15.994914619570
         C            0.703938526791    -0.052589823367     0.408948874488    12.000000000000
         C            1.511068926791    -1.071033623367    -0.363840925512    12.000000000000
         C           -0.796301073209    -0.095946623367     0.042140074488    12.000000000000
         H            0.781175926791    -0.257566623367     1.484883074488     1.007825032230
         H            1.403496926791    -0.889876623367    -1.438050925512     1.007825032230
         H            2.571703926791    -1.004955623367    -0.103108925512     1.007825032230
         H            1.151923926791    -2.076861623367    -0.138485925512     1.007825032230
         H            0.371542926791     1.721659376633    -0.163068925512     1.007825032230

  Basis Set: AUG-CC-PVTZ
    Blend: AUG-CC-PVTZ
  Basis Set: (AUG-CC-PVTZ AUX)
    Blend: AUG-CC-PVTZ-JKFIT
	 Reference Energy          =    -341.2792926183715281 [Eh]
	 Singles Energy            =      -0.0000000000000000 [Eh]
	 Same-Spin Energy          =      -0.3365183351551302 [Eh]
	 Opposite-Spin Energy      =      -1.0192430257771767 [Eh]
	 Correlation Energy        =      -1.3557613609323069 [Eh]
	 Total Energy              =    -342.6350539793038479 [Eh]

	 ================> DF-SCS-MP2 Energies <==================
	-----------------------------------------------------------
	 SCS Same-Spin Scale       =       0.3333333333333333 [-]
	 SCS Opposite-Spin Scale   =       1.2000000000000000 [-]
	 SCS Same-Spin Energy      =      -0.1121727783850434 [Eh]
	 SCS Opposite-Spin Energy  =      -1.2230916309326121 [Eh]
	 SCS Correlation Energy    =      -1.3352644093176556 [Eh]
	 SCS Total Energy          =    -342.6145570276891590 [Eh]
	-----------------------------------------------------------

  Dipole Moment: [D]
     X:     3.7607      Y:    -0.5281      Z:     0.3779     Total:     3.8164

*** Psi4 exiting successfully. Buy a developer a beer!
