                               Psi4 1.4a3.dev225

  ==> Input File <==

--------------------------------------------------------------------------
#psi4
#
memory 32 gb

molecule  {
-1 1
  O       -1.1681810     1.2683390    -0.1935740
  O        1.4902400    -1.1295240    -0.2243730
  O        1.3027740     1.0522020     0.4123420
  C       -0.6404390    -0.0405420    -0.4184120
  C       -1.4092810    -1.0711850     0.3952000
  C        0.9115910    -0.0526395    -0.0372842
  H       -0.7260590    -0.2876370    -1.4879020
  H       -1.3060210    -0.8470660     1.4617500
  H       -2.4733650    -1.0522610     0.1409170
  H       -1.0158520    -2.0724200     0.2054930
  H       -0.3572580     1.7151740     0.1591030
units angstrom
no_reorient  #important for SAPT in psi4, default
symmetry c1  #important for SAPT in psi4, default
}

set PROPERTIES_ORIGIN ["COM"]
properties('MP2/aug-cc-pvtz', properties = ['dipole'])
--------------------------------------------------------------------------

    Molecular point group: c1
  Charge       = -1
  Multiplicity = 1
  Basis Set: AUG-CC-PVTZ
    Blend: AUG-CC-PVTZ
  Basis Set: (AUG-CC-PVTZ AUX)
    Blend: AUG-CC-PVTZ-JKFIT

    Orbital Energies [Eh]
    ---------------------

    Doubly Occupied:

       1A    -20.377713     2A    -20.320795     3A    -20.313931
       4A    -11.152695     5A    -11.110033     6A    -11.068596
       7A     -1.208399     8A     -1.168052     9A     -1.100263
      10A     -0.853978    11A     -0.687398    12A     -0.560149
      13A     -0.501856    14A     -0.474263    15A     -0.435844
      16A     -0.409215    17A     -0.400705    18A     -0.372968
      19A     -0.366601    20A     -0.356766    21A     -0.274812
      22A     -0.240496    23A     -0.221419    24A     -0.204923

  @DF-RHF Final Energy:  -341.28090736150438

   => Energetics <=

    Nuclear Repulsion Energy =            238.8803202735156788
    One-Electron Energy =                -951.9587171158138972
    Two-Electron Energy =                 371.7974894807937858
    Total Energy =                       -341.2809073615043758
  Basis Set: (AUG-CC-PVTZ AUX)
    Blend: AUG-CC-PVTZ-RI
    Molecular point group: c1

    Geometry (in Angstrom), charge = -1, multiplicity = 1:

       Center              X                  Y                   Z               Mass
    ------------   -----------------  -----------------  -----------------  -----------------
         O           -1.240150038127     1.240102767090    -0.189839115358    15.994914619570
         O            1.418270961873    -1.157760232910    -0.220638115358    15.994914619570
         O            1.230804961873     1.023965767090     0.416076884642    15.994914619570
         C           -0.712408038127    -0.068778232910    -0.414677115358    12.000000000000
         C           -1.481250038127    -1.099421232910     0.398934884642    12.000000000000
         C            0.839621961873    -0.080875732910    -0.033549315358    12.000000000000
         H           -0.798028038127    -0.315873232910    -1.484167115358     1.007825032230
         H           -1.377990038127    -0.875302232910     1.465484884642     1.007825032230
         H           -2.545334038127    -1.080497232910     0.144651884642     1.007825032230
         H           -1.087821038127    -2.100656232910     0.209227884642     1.007825032230
         H           -0.429227038127     1.686937767090     0.162837884642     1.007825032230

  Basis Set: AUG-CC-PVTZ
    Blend: AUG-CC-PVTZ
  Basis Set: (AUG-CC-PVTZ AUX)
    Blend: AUG-CC-PVTZ-JKFIT
	 Reference Energy          =    -341.2809073615043758 [Eh]
	 Singles Energy            =      -0.0000000000000000 [Eh]
	 Same-Spin Energy          =      -0.3359131424349228 [Eh]
	 Opposite-Spin Energy      =      -1.0176211732695650 [Eh]
	 Correlation Energy        =      -1.3535343157044877 [Eh]
	 Total Energy              =    -342.6344416772088834 [Eh]

	 ================> DF-SCS-MP2 Energies <==================
	-----------------------------------------------------------
	 SCS Same-Spin Scale       =       0.3333333333333333 [-]
	 SCS Opposite-Spin Scale   =       1.2000000000000000 [-]
	 SCS Same-Spin Energy      =      -0.1119710474783076 [Eh]
	 SCS Opposite-Spin Energy  =      -1.2211454079234780 [Eh]
	 SCS Correlation Energy    =      -1.3331164554017856 [Eh]
	 SCS Total Energy          =    -342.6140238169061831 [Eh]
	-----------------------------------------------------------

  Dipole Moment: [D]
     X:    -3.4303      Y:    -0.6021      Z:    -0.2464     Total:     3.4914

*** Psi4 exiting successfully. Buy a developer a beer!
