                               Psi4 1.3.2 release

  ==> Input File <==

--------------------------------------------------------------------------
#psi4
#
memory 32 gb

molecule  {
-1 1
  O        1.1252126     1.3033808     0.1389908
  O       -1.4424670    -1.1799650     0.1827610
  O       -1.3575130     1.0293890    -0.3577040
  C        0.6396440    -0.0155260     0.4104950
  C        1.4464200    -1.0470520    -0.3590510
  C       -0.8604677    -0.0590230     0.0431801
  H        0.7165270    -0.2335850     1.4896730
  H        1.3388480    -0.8658950    -1.4332610
  H        2.5070550    -0.9809740    -0.0983190
  H        1.0872750    -2.0528800    -0.1336960
  H        0.3068940     1.7456410    -0.1582790
units angstrom
no_reorient  #important for SAPT in psi4, default
symmetry c1  #important for SAPT in psi4, default
}

set PROPERTIES_ORIGIN ["COM"]
properties('MP2/aug-cc-pvtz', properties = ['dipole'])
--------------------------------------------------------------------------

    Molecular point group: c1
  Charge       = -1
  Multiplicity = 1
  Basis Set: AUG-CC-PVTZ
    Blend: AUG-CC-PVTZ
  Basis Set: (AUG-CC-PVTZ AUX)
    Blend: AUG-CC-PVTZ-JKFIT

    Orbital Energies [Eh]
    ---------------------

    Doubly Occupied:

       1A    -20.381034     2A    -20.320297     3A    -20.306681
       4A    -11.152060     5A    -11.116582     6A    -11.072116
       7A     -1.207126     8A     -1.163489     9A     -1.082196
      10A     -0.862219    11A     -0.701449    12A     -0.568278
      13A     -0.501950    14A     -0.477514    15A     -0.436880
      16A     -0.404675    17A     -0.400656    18A     -0.372080
      19A     -0.365885    20A     -0.349359    21A     -0.280367
      22A     -0.234338    23A     -0.213575    24A     -0.212218

  @DF-RHF Final Energy:  -341.28005136291648

   => Energetics <=

    Nuclear Repulsion Energy =            239.1115007904673746
    One-Electron Energy =                -952.4170579034182538
    Two-Electron Energy =                 372.0255057500343696
    Total Energy =                       -341.2800513629164811
  Basis Set: (AUG-CC-PVTZ AUX)
    Blend: AUG-CC-PVTZ-RI
    Molecular point group: c1

    Geometry (in Angstrom), charge = -1, multiplicity = 1:

       Center              X                  Y                   Z               Mass
    ------------   -----------------  -----------------  -----------------  -----------------
         O            1.193479644090     1.274473658548     0.136475270225    15.994914619570
         O           -1.374199955910    -1.208872141452     0.180245470225    15.994914619570
         O           -1.289245955910     1.000481858548    -0.360219529775    15.994914619570
         C            0.707911044090    -0.044433141452     0.407979470225    12.000000000000
         C            1.514687044090    -1.075959141452    -0.361566529775    12.000000000000
         C           -0.792200655910    -0.087930141452     0.040664570225    12.000000000000
         H            0.784794044090    -0.262492141452     1.487157470225     1.007825032230
         H            1.407115044090    -0.894802141452    -1.435776529775     1.007825032230
         H            2.575322044090    -1.009881141452    -0.100834529775     1.007825032230
         H            1.155542044090    -2.081787141452    -0.136211529775     1.007825032230
         H            0.375161044090     1.716733858548    -0.160794529775     1.007825032230

  Basis Set: AUG-CC-PVTZ
    Blend: AUG-CC-PVTZ
  Basis Set: (AUG-CC-PVTZ AUX)
    Blend: AUG-CC-PVTZ-JKFIT
	 Reference Energy          =    -341.2800513629164811 [Eh]
	 Singles Energy            =      -0.0000000000000000 [Eh]
	 Same-Spin Energy          =      -0.3362397270224092 [Eh]
	 Opposite-Spin Energy      =      -1.0185366032311316 [Eh]
	 Correlation Energy        =      -1.3547763302535407 [Eh]
	 Total Energy              =    -342.6348276931699957 [Eh]

	 ================> DF-SCS-MP2 Energies <==================
	-----------------------------------------------------------
	 SCS Same-Spin Scale       =       0.3333333333333333 [-]
	 SCS Opposite-Spin Scale   =       1.2000000000000000 [-]
	 SCS Same-Spin Energy      =      -0.1120799090074697 [Eh]
	 SCS Opposite-Spin Energy  =      -1.2222439238773579 [Eh]
	 SCS Correlation Energy    =      -1.3343238328848277 [Eh]
	 SCS Total Energy          =    -342.6143751958013013 [Eh]
	-----------------------------------------------------------

  Dipole Moment: [D]
     X:     3.8339      Y:    -0.3412      Z:     0.3482     Total:     3.8648

*** Psi4 exiting successfully. Buy a developer a beer!
