                               Psi4 1.3.2 release

  ==> Input File <==

--------------------------------------------------------------------------
#psi4
#
memory 32 gb

molecule  {
-1 1
  O        1.1365690     1.2999450     0.1428980
  O       -1.4424670    -1.1799650     0.1827610
  O       -1.3575130     1.0293890    -0.3577040
  C        0.6396440    -0.0155260     0.4104950
  C        1.4464200    -1.0470520    -0.3590510
  C       -0.8609500    -0.0719650     0.0469300
  H        0.7095609    -0.2138274     1.3918921
  H        1.3388480    -0.8658950    -1.4332610
  H        2.5070550    -0.9809740    -0.0983190
  H        1.0872750    -2.0528800    -0.1336960
  H        0.3068940     1.7456410    -0.1582790
units angstrom
no_reorient  #important for SAPT in psi4, default
symmetry c1  #important for SAPT in psi4, default
}

set PROPERTIES_ORIGIN ["COM"]
properties('MP2/aug-cc-pvtz', properties = ['dipole'])
--------------------------------------------------------------------------

    Molecular point group: c1
  Charge       = -1
  Multiplicity = 1
  Basis Set: AUG-CC-PVTZ
    Blend: AUG-CC-PVTZ
  Basis Set: (AUG-CC-PVTZ AUX)
    Blend: AUG-CC-PVTZ-JKFIT

    Orbital Energies [Eh]
    ---------------------

    Doubly Occupied:

       1A    -20.379562     2A    -20.317167     3A    -20.310130
       4A    -11.151505     5A    -11.102830     6A    -11.070749
       7A     -1.203391     8A     -1.162539     9A     -1.082799
      10A     -0.865235    11A     -0.708952    12A     -0.570760
      13A     -0.505525    14A     -0.479595    15A     -0.435704
      16A     -0.403722    17A     -0.399402    18A     -0.373650
      19A     -0.367386    20A     -0.349648    21A     -0.282446
      22A     -0.233181    23A     -0.214401    24A     -0.213284

  @DF-RHF Final Energy:  -341.27488586638555

   => Energetics <=

    Nuclear Repulsion Energy =            239.4990629074405888
    One-Electron Energy =                -953.1807702049117097
    Two-Electron Energy =                 372.4068214310855751
    Total Energy =                       -341.2748858663855458
  Basis Set: (AUG-CC-PVTZ AUX)
    Blend: AUG-CC-PVTZ-RI
    Molecular point group: c1

    Geometry (in Angstrom), charge = -1, multiplicity = 1:

       Center              X                  Y                   Z               Mass
    ------------   -----------------  -----------------  -----------------  -----------------
         O            1.202939514089     1.273176016841     0.140281956826    15.994914619570
         O           -1.376096485911    -1.206733983159     0.180144956826    15.994914619570
         O           -1.291142485911     1.002620016841    -0.360320043174    15.994914619570
         C            0.706014514089    -0.042294983159     0.407878956826    12.000000000000
         C            1.512790514089    -1.073820983159    -0.361667043174    12.000000000000
         C           -0.794579485911    -0.098733983159     0.044313956826    12.000000000000
         H            0.775931414089    -0.240596383159     1.389276056826     1.007825032230
         H            1.405218514089    -0.892663983159    -1.435877043174     1.007825032230
         H            2.573425514089    -1.007742983159    -0.100935043174     1.007825032230
         H            1.153645514089    -2.079648983159    -0.136312043174     1.007825032230
         H            0.373264514089     1.718872016841    -0.160895043174     1.007825032230

  Basis Set: AUG-CC-PVTZ
    Blend: AUG-CC-PVTZ
  Basis Set: (AUG-CC-PVTZ AUX)
    Blend: AUG-CC-PVTZ-JKFIT
	 Reference Energy          =    -341.2748858663855458 [Eh]
	 Singles Energy            =      -0.0000000000000000 [Eh]
	 Same-Spin Energy          =      -0.3363962867783303 [Eh]
	 Opposite-Spin Energy      =      -1.0184511377175212 [Eh]
	 Correlation Energy        =      -1.3548474244958515 [Eh]
	 Total Energy              =    -342.6297332908814042 [Eh]

	 ================> DF-SCS-MP2 Energies <==================
	-----------------------------------------------------------
	 SCS Same-Spin Scale       =       0.3333333333333333 [-]
	 SCS Opposite-Spin Scale   =       1.2000000000000000 [-]
	 SCS Same-Spin Energy      =      -0.1121320955927768 [Eh]
	 SCS Opposite-Spin Energy  =      -1.2221413652610253 [Eh]
	 SCS Correlation Energy    =      -1.3342734608538021 [Eh]
	 SCS Total Energy          =    -342.6091593272393538 [Eh]
	-----------------------------------------------------------

  Dipole Moment: [D]
     X:     3.7975      Y:    -0.5098      Z:     0.4586     Total:     3.8589

*** Psi4 exiting successfully. Buy a developer a beer!
