                               Psi4 1.3.2 release

  ==> Input File <==

--------------------------------------------------------------------------
#psi4
#
memory 32 gb

molecule  {
-1 1
  O        1.1365690     1.2999450     0.1428980
  O       -1.4424670    -1.1799650     0.1827610
  O       -1.3575130     1.0293890    -0.3577040
  C        0.6396440    -0.0155260     0.4104950
  C        1.3401902    -0.9112289    -0.2577233
  C       -0.8609500    -0.0719650     0.0469300
  H        0.7165270    -0.2335850     1.4896730
  H        1.3388480    -0.8658950    -1.4332610
  H        2.5070550    -0.9809740    -0.0983190
  H        1.0872750    -2.0528800    -0.1336960
  H        0.3068940     1.7456410    -0.1582790
units angstrom
no_reorient  #important for SAPT in psi4, default
symmetry c1  #important for SAPT in psi4, default
}

set PROPERTIES_ORIGIN ["COM"]
properties('MP2/aug-cc-pvtz', properties = ['dipole'])
--------------------------------------------------------------------------

    Molecular point group: c1
  Charge       = -1
  Multiplicity = 1
  Basis Set: AUG-CC-PVTZ
    Blend: AUG-CC-PVTZ
  Basis Set: (AUG-CC-PVTZ AUX)
    Blend: AUG-CC-PVTZ-JKFIT

    Orbital Energies [Eh]
    ---------------------

    Doubly Occupied:

       1A    -20.382276     2A    -20.319916     3A    -20.312016
       4A    -11.155426     5A    -11.104778     6A    -11.085477
       7A     -1.209379     8A     -1.166547     9A     -1.085676
      10A     -0.904764    11A     -0.684579    12A     -0.577466
      13A     -0.508316    14A     -0.493094    15A     -0.457769
      16A     -0.411106    17A     -0.388808    18A     -0.363363
      19A     -0.345859    20A     -0.325635    21A     -0.292073
      22A     -0.232480    23A     -0.215107    24A     -0.214248

  @DF-RHF Final Energy:  -341.22900541831160

   => Energetics <=

    Nuclear Repulsion Energy =            242.4029372042837736
    One-Electron Energy =                -958.7915729015352326
    Two-Electron Energy =                 375.1596302789398010
    Total Energy =                       -341.2290054183116013
  Basis Set: (AUG-CC-PVTZ AUX)
    Blend: AUG-CC-PVTZ-RI
    Molecular point group: c1

    Geometry (in Angstrom), charge = -1, multiplicity = 1:

       Center              X                  Y                   Z               Mass
    ------------   -----------------  -----------------  -----------------  -----------------
         O            1.217179930777     1.255091372645     0.125516496133    15.994914619570
         O           -1.361856069223    -1.224818627355     0.165379496133    15.994914619570
         O           -1.276902069223     0.984535372645    -0.375085503867    15.994914619570
         C            0.720254930777    -0.060379627355     0.393113496133    12.000000000000
         C            1.420801130777    -0.956082527355    -0.275104803867    12.000000000000
         C           -0.780339069223    -0.116818627355     0.029548496133    12.000000000000
         H            0.797137930777    -0.278438627355     1.472291496133     1.007825032230
         H            1.419458930777    -0.910748627355    -1.450642503867     1.007825032230
         H            2.587665930777    -1.025827627355    -0.115700503867     1.007825032230
         H            1.167885930777    -2.097733627355    -0.151077503867     1.007825032230
         H            0.387504930777     1.700787372645    -0.175660503867     1.007825032230

  Basis Set: AUG-CC-PVTZ
    Blend: AUG-CC-PVTZ
  Basis Set: (AUG-CC-PVTZ AUX)
    Blend: AUG-CC-PVTZ-JKFIT
	 Reference Energy          =    -341.2290054183116013 [Eh]
	 Singles Energy            =      -0.0000000000000000 [Eh]
	 Same-Spin Energy          =      -0.3394509657282582 [Eh]
	 Opposite-Spin Energy      =      -1.0231476923707923 [Eh]
	 Correlation Energy        =      -1.3625986580990506 [Eh]
	 Total Energy              =    -342.5916040764106469 [Eh]

	 ================> DF-SCS-MP2 Energies <==================
	-----------------------------------------------------------
	 SCS Same-Spin Scale       =       0.3333333333333333 [-]
	 SCS Opposite-Spin Scale   =       1.2000000000000000 [-]
	 SCS Same-Spin Energy      =      -0.1131503219094194 [Eh]
	 SCS Opposite-Spin Energy  =      -1.2277772308449506 [Eh]
	 SCS Correlation Energy    =      -1.3409275527543700 [Eh]
	 SCS Total Energy          =    -342.5699329710659526 [Eh]
	-----------------------------------------------------------

  Dipole Moment: [D]
     X:     3.5928      Y:    -0.4437      Z:     0.4484     Total:     3.6478

*** Psi4 exiting successfully. Buy a developer a beer!
