                               Psi4 1.4a3.dev225

  ==> Input File <==

--------------------------------------------------------------------------
#psi4
#
memory 32 gb

molecule  {
-1 1
  O       -1.1681810     1.2683390    -0.1935740
  O        1.4902400    -1.1295240    -0.2243730
  O        1.3027740     1.0522020     0.4123420
  C       -0.6404390    -0.0405420    -0.4184120
  C       -1.4092810    -1.0711850     0.3952000
  C        0.8381221    -0.0094715    -0.0422504
  H       -0.7260590    -0.2876370    -1.4879020
  H       -1.3060210    -0.8470660     1.4617500
  H       -2.4733650    -1.0522610     0.1409170
  H       -1.0158520    -2.0724200     0.2054930
  H       -0.3572580     1.7151740     0.1591030
units angstrom
no_reorient  #important for SAPT in psi4, default
symmetry c1  #important for SAPT in psi4, default
}

set PROPERTIES_ORIGIN ["COM"]
properties('MP2/aug-cc-pvtz', properties = ['dipole'])
--------------------------------------------------------------------------

    Molecular point group: c1
  Charge       = -1
  Multiplicity = 1
  Basis Set: AUG-CC-PVTZ
    Blend: AUG-CC-PVTZ
  Basis Set: (AUG-CC-PVTZ AUX)
    Blend: AUG-CC-PVTZ-JKFIT

    Orbital Energies [Eh]
    ---------------------

    Doubly Occupied:

       1A    -20.383418     2A    -20.328958     3A    -20.300308
       4A    -11.154064     5A    -11.118066     6A    -11.073559
       7A     -1.211751     8A     -1.163524     9A     -1.069763
      10A     -0.863032    11A     -0.706178    12A     -0.572936
      13A     -0.501820    14A     -0.479009    15A     -0.438539
      16A     -0.406360    17A     -0.400610    18A     -0.370130
      19A     -0.363454    20A     -0.349237    21A     -0.281507
      22A     -0.237269    23A     -0.212570    24A     -0.207976

  @DF-RHF Final Energy:  -341.27427192599976

   => Energetics <=

    Nuclear Repulsion Energy =            239.1187157960919478
    One-Electron Energy =                -952.3978996876224983
    Two-Electron Energy =                 372.0049119655308232
    Total Energy =                       -341.2742719259997557
  Basis Set: (AUG-CC-PVTZ AUX)
    Blend: AUG-CC-PVTZ-RI
    Molecular point group: c1

    Geometry (in Angstrom), charge = -1, multiplicity = 1:

       Center              X                  Y                   Z               Mass
    ------------   -----------------  -----------------  -----------------  -----------------
         O           -1.230246774994     1.234283923158    -0.189169694891    15.994914619570
         O            1.428174225006    -1.163579076842    -0.219968694891    15.994914619570
         O            1.240708225006     1.018146923158     0.416746305109    15.994914619570
         C           -0.702504774994    -0.074597076842    -0.414007694891    12.000000000000
         C           -1.471346774994    -1.105240076842     0.399604305109    12.000000000000
         C            0.776056325006    -0.043526576842    -0.037846094891    12.000000000000
         H           -0.788124774994    -0.321692076842    -1.483497694891     1.007825032230
         H           -1.368086774994    -0.881121076842     1.466154305109     1.007825032230
         H           -2.535430774994    -1.086316076842     0.145321305109     1.007825032230
         H           -1.077917774994    -2.106475076842     0.209897305109     1.007825032230
         H           -0.419323774994     1.681118923158     0.163507305109     1.007825032230

  Basis Set: AUG-CC-PVTZ
    Blend: AUG-CC-PVTZ
  Basis Set: (AUG-CC-PVTZ AUX)
    Blend: AUG-CC-PVTZ-JKFIT
	 Reference Energy          =    -341.2742719259997557 [Eh]
	 Singles Energy            =      -0.0000000000000000 [Eh]
	 Same-Spin Energy          =      -0.3369750409102067 [Eh]
	 Opposite-Spin Energy      =      -1.0201044392993781 [Eh]
	 Correlation Energy        =      -1.3570794802095847 [Eh]
	 Total Energy              =    -342.6313514062093191 [Eh]

	 ================> DF-SCS-MP2 Energies <==================
	-----------------------------------------------------------
	 SCS Same-Spin Scale       =       0.3333333333333333 [-]
	 SCS Opposite-Spin Scale   =       1.2000000000000000 [-]
	 SCS Same-Spin Energy      =      -0.1123250136367356 [Eh]
	 SCS Opposite-Spin Energy  =      -1.2241253271592536 [Eh]
	 SCS Correlation Energy    =      -1.3364503407959891 [Eh]
	 SCS Total Energy          =    -342.6107222667957330 [Eh]
	-----------------------------------------------------------

  Dipole Moment: [D]
     X:    -3.9366      Y:    -0.1791      Z:    -0.1988     Total:     3.9457

*** Psi4 exiting successfully. Buy a developer a beer!
