                               Psi4 1.3.2 release

  ==> Input File <==

--------------------------------------------------------------------------
#psi4
#
memory 32 gb

molecule  {
-1 1
  O        1.1365690     1.2999450     0.1428980
  O       -1.4424670    -1.1799650     0.1827610
  O       -1.3376504     1.0390560    -0.3551560
  C        0.6400047     0.0106299     0.4039460
  C        1.4464200    -1.0470520    -0.3590510
  C       -0.8609500    -0.0719650     0.0469300
  H        0.7165270    -0.2335850     1.4896730
  H        1.3388480    -0.8658950    -1.4332610
  H        2.5070550    -0.9809740    -0.0983190
  H        1.0872750    -2.0528800    -0.1336960
  H        0.3068940     1.7456410    -0.1582790
units angstrom
no_reorient  #important for SAPT in psi4, default
symmetry c1  #important for SAPT in psi4, default
}

set PROPERTIES_ORIGIN ["COM"]
properties('MP2/aug-cc-pvtz', properties = ['dipole'])
--------------------------------------------------------------------------

    Molecular point group: c1
  Charge       = -1
  Multiplicity = 1
  Basis Set: AUG-CC-PVTZ
    Blend: AUG-CC-PVTZ
  Basis Set: (AUG-CC-PVTZ AUX)
    Blend: AUG-CC-PVTZ-JKFIT

    Orbital Energies [Eh]
    ---------------------

    Doubly Occupied:

       1A    -20.382999     2A    -20.318507     3A    -20.311837
       4A    -11.152920     5A    -11.115389     6A    -11.070670
       7A     -1.210565     8A     -1.167196     9A     -1.085252
      10A     -0.856810    11A     -0.699477    12A     -0.569164
      13A     -0.501261    14A     -0.478500    15A     -0.437992
      16A     -0.404290    17A     -0.398906    18A     -0.376719
      19A     -0.364655    20A     -0.350368    21A     -0.274418
      22A     -0.234899    23A     -0.215219    24A     -0.214269

  @DF-RHF Final Energy:  -341.27968548711260

   => Energetics <=

    Nuclear Repulsion Energy =            239.2976839688827226
    One-Electron Energy =                -952.7701739374830368
    Two-Electron Energy =                 372.1928044814876557
    Total Energy =                       -341.2796854871126015
  Basis Set: (AUG-CC-PVTZ AUX)
    Blend: AUG-CC-PVTZ-RI
    Molecular point group: c1

    Geometry (in Angstrom), charge = -1, multiplicity = 1:

       Center              X                  Y                   Z               Mass
    ------------   -----------------  -----------------  -----------------  -----------------
         O            1.199243318847     1.268137127375     0.139599970277    15.994914619570
         O           -1.379792681153    -1.211772872625     0.179462970277    15.994914619570
         O           -1.274976081153     1.007248127375    -0.358454029723    15.994914619570
         C            0.702679018847    -0.021177972625     0.400647970277    12.000000000000
         C            1.509094318847    -1.078859872625    -0.362349029723    12.000000000000
         C           -0.798275681153    -0.103772872625     0.043631970277    12.000000000000
         H            0.779201318847    -0.265392872625     1.486374970277     1.007825032230
         H            1.401522318847    -0.897702872625    -1.436559029723     1.007825032230
         H            2.569729318847    -1.012781872625    -0.101617029723     1.007825032230
         H            1.149949318847    -2.084687872625    -0.136994029723     1.007825032230
         H            0.369568318847     1.713833127375    -0.161577029723     1.007825032230

  Basis Set: AUG-CC-PVTZ
    Blend: AUG-CC-PVTZ
  Basis Set: (AUG-CC-PVTZ AUX)
    Blend: AUG-CC-PVTZ-JKFIT
	 Reference Energy          =    -341.2796854871126015 [Eh]
	 Singles Energy            =      -0.0000000000000000 [Eh]
	 Same-Spin Energy          =      -0.3365350686391054 [Eh]
	 Opposite-Spin Energy      =      -1.0186986328774199 [Eh]
	 Correlation Energy        =      -1.3552337015165254 [Eh]
	 Total Energy              =    -342.6349191886291123 [Eh]

	 ================> DF-SCS-MP2 Energies <==================
	-----------------------------------------------------------
	 SCS Same-Spin Scale       =       0.3333333333333333 [-]
	 SCS Opposite-Spin Scale   =       1.2000000000000000 [-]
	 SCS Same-Spin Energy      =      -0.1121783562130351 [Eh]
	 SCS Opposite-Spin Energy  =      -1.2224383594529038 [Eh]
	 SCS Correlation Energy    =      -1.3346167156659390 [Eh]
	 SCS Total Energy          =    -342.6143022027785605 [Eh]
	-----------------------------------------------------------

  Dipole Moment: [D]
     X:     3.7317      Y:    -0.3767      Z:     0.3476     Total:     3.7667

*** Psi4 exiting successfully. Buy a developer a beer!
