                               Psi4 1.3.2 release

  ==> Input File <==

--------------------------------------------------------------------------
#psi4
#
memory 32 gb

molecule  {
-1 1
  O        1.1365690     1.2999450     0.1428980
  O       -1.4796528    -1.1613084     0.1686420
  O       -1.3575130     1.0293890    -0.3577040
  C        0.6399189     0.0367497     0.3972455
  C        1.4464200    -1.0470520    -0.3590510
  C       -0.8609500    -0.0719650     0.0469300
  H        0.7165270    -0.2335850     1.4896730
  H        1.3388480    -0.8658950    -1.4332610
  H        2.5070550    -0.9809740    -0.0983190
  H        1.0872750    -2.0528800    -0.1336960
  H        0.3068940     1.7456410    -0.1582790
units angstrom
no_reorient  #important for SAPT in psi4, default
symmetry c1  #important for SAPT in psi4, default
}

set PROPERTIES_ORIGIN ["COM"]
properties('MP2/aug-cc-pvtz', properties = ['dipole'])
--------------------------------------------------------------------------

    Molecular point group: c1
  Charge       = -1
  Multiplicity = 1
  Basis Set: AUG-CC-PVTZ
    Blend: AUG-CC-PVTZ
  Basis Set: (AUG-CC-PVTZ AUX)
    Blend: AUG-CC-PVTZ-JKFIT

    Orbital Energies [Eh]
    ---------------------

    Doubly Occupied:

       1A    -20.389176     2A    -20.314974     3A    -20.309376
       4A    -11.151115     5A    -11.119966     6A    -11.072085
       7A     -1.219863     8A     -1.171543     9A     -1.079691
      10A     -0.855096    11A     -0.700971    12A     -0.575731
      13A     -0.500472    14A     -0.481083    15A     -0.440425
      16A     -0.405646    17A     -0.397524    18A     -0.381866
      19A     -0.365144    20A     -0.351329    21A     -0.271866
      22A     -0.230958    23A     -0.215370    24A     -0.211481

  @DF-RHF Final Energy:  -341.27738010519982

   => Energetics <=

    Nuclear Repulsion Energy =            239.1456608451074430
    One-Electron Energy =                -952.4205802166433159
    Two-Electron Energy =                 371.9975392663359912
    Total Energy =                       -341.2773801051998248
  Basis Set: (AUG-CC-PVTZ AUX)
    Blend: AUG-CC-PVTZ-RI
    Molecular point group: c1

    Geometry (in Angstrom), charge = -1, multiplicity = 1:

       Center              X                  Y                   Z               Mass
    ------------   -----------------  -----------------  -----------------  -----------------
         O            1.209504767796     1.263001139808     0.143497725405    15.994914619570
         O           -1.406717032204    -1.198252260192     0.169241725405    15.994914619570
         O           -1.284577232204     0.992445139808    -0.357104274595    15.994914619570
         C            0.712854667796    -0.000194160192     0.397845225405    12.000000000000
         C            1.519355767796    -1.083995860192    -0.358451274595    12.000000000000
         C           -0.788014232204    -0.108908860192     0.047529725405    12.000000000000
         H            0.789462767796    -0.270528860192     1.490272725405     1.007825032230
         H            1.411783767796    -0.902838860192    -1.432661274595     1.007825032230
         H            2.579990767796    -1.017917860192    -0.097719274595     1.007825032230
         H            1.160210767796    -2.089823860192    -0.133096274595     1.007825032230
         H            0.379829767796     1.708697139808    -0.157679274595     1.007825032230

  Basis Set: AUG-CC-PVTZ
    Blend: AUG-CC-PVTZ
  Basis Set: (AUG-CC-PVTZ AUX)
    Blend: AUG-CC-PVTZ-JKFIT
	 Reference Energy          =    -341.2773801051998248 [Eh]
	 Singles Energy            =      -0.0000000000000000 [Eh]
	 Same-Spin Energy          =      -0.3364465385100928 [Eh]
	 Opposite-Spin Energy      =      -1.0183434519875079 [Eh]
	 Correlation Energy        =      -1.3547899904976006 [Eh]
	 Total Energy              =    -342.6321700956974041 [Eh]

	 ================> DF-SCS-MP2 Energies <==================
	-----------------------------------------------------------
	 SCS Same-Spin Scale       =       0.3333333333333333 [-]
	 SCS Opposite-Spin Scale   =       1.2000000000000000 [-]
	 SCS Same-Spin Energy      =      -0.1121488461700309 [Eh]
	 SCS Opposite-Spin Energy  =      -1.2220121423850094 [Eh]
	 SCS Correlation Energy    =      -1.3341609885550403 [Eh]
	 SCS Total Energy          =    -342.6115410937548518 [Eh]
	-----------------------------------------------------------

  Dipole Moment: [D]
     X:     3.9116      Y:    -0.2687      Z:     0.3585     Total:     3.9371

*** Psi4 exiting successfully. Buy a developer a beer!
