                               Psi4 1.3.2 release

  ==> Input File <==

--------------------------------------------------------------------------
#psi4
#
memory 32 gb

molecule  {
-1 1
  O        1.1365690     1.2999450     0.1428980
  O       -1.4424670    -1.1799650     0.1827610
  O       -1.3575130     1.0293890    -0.3577040
  C        0.6743592     0.0763727     0.3918007
  C        1.4464200    -1.0470520    -0.3590510
  C       -0.8609500    -0.0719650     0.0469300
  H        0.7165270    -0.2335850     1.4896730
  H        1.3388480    -0.8658950    -1.4332610
  H        2.5070550    -0.9809740    -0.0983190
  H        1.0872750    -2.0528800    -0.1336960
  H        0.3068940     1.7456410    -0.1582790
units angstrom
no_reorient  #important for SAPT in psi4, default
symmetry c1  #important for SAPT in psi4, default
}

set PROPERTIES_ORIGIN ["COM"]
properties('MP2/aug-cc-pvtz', properties = ['dipole'])
--------------------------------------------------------------------------

    Molecular point group: c1
  Charge       = -1
  Multiplicity = 1
  Basis Set: AUG-CC-PVTZ
    Blend: AUG-CC-PVTZ
  Basis Set: (AUG-CC-PVTZ AUX)
    Blend: AUG-CC-PVTZ-JKFIT

    Orbital Energies [Eh]
    ---------------------

    Doubly Occupied:

       1A    -20.393061     2A    -20.317490     3A    -20.310823
       4A    -11.152019     5A    -11.118249     6A    -11.068637
       7A     -1.237844     8A     -1.174358     9A     -1.082963
      10A     -0.848386    11A     -0.692621    12A     -0.583700
      13A     -0.502271    14A     -0.485201    15A     -0.445282
      16A     -0.407779    17A     -0.400288    18A     -0.384107
      19A     -0.360679    20A     -0.353014    21A     -0.265090
      22A     -0.232656    23A     -0.213766    24A     -0.207665

  @DF-RHF Final Energy:  -341.27196783352957

   => Energetics <=

    Nuclear Repulsion Energy =            239.3801357761576583
    One-Electron Energy =                -952.8283096886973453
    Two-Electron Energy =                 372.1762060790101145
    Total Energy =                       -341.2719678335295725
  Basis Set: (AUG-CC-PVTZ AUX)
    Blend: AUG-CC-PVTZ-RI
    Molecular point group: c1

    Geometry (in Angstrom), charge = -1, multiplicity = 1:

       Center              X                  Y                   Z               Mass
    ------------   -----------------  -----------------  -----------------  -----------------
         O            1.198181205844     1.261012175749     0.141694898800    15.994914619570
         O           -1.380854794156    -1.218897824251     0.181557898800    15.994914619570
         O           -1.295900794156     0.990456175749    -0.358907101200    15.994914619570
         C            0.735971405844     0.037439875749     0.390597598800    12.000000000000
         C            1.508032205844    -1.085984824251    -0.360254101200    12.000000000000
         C           -0.799337794156    -0.110897824251     0.045726898800    12.000000000000
         H            0.778139205844    -0.272517824251     1.488469898800     1.007825032230
         H            1.400460205844    -0.904827824251    -1.434464101200     1.007825032230
         H            2.568667205844    -1.019906824251    -0.099522101200     1.007825032230
         H            1.148887205844    -2.091812824251    -0.134899101200     1.007825032230
         H            0.368506205844     1.706708175749    -0.159482101200     1.007825032230

  Basis Set: AUG-CC-PVTZ
    Blend: AUG-CC-PVTZ
  Basis Set: (AUG-CC-PVTZ AUX)
    Blend: AUG-CC-PVTZ-JKFIT
	 Reference Energy          =    -341.2719678335295725 [Eh]
	 Singles Energy            =      -0.0000000000000000 [Eh]
	 Same-Spin Energy          =      -0.3366635272606938 [Eh]
	 Opposite-Spin Energy      =      -1.0179593228946004 [Eh]
	 Correlation Energy        =      -1.3546228501552942 [Eh]
	 Total Energy              =    -342.6265906836848671 [Eh]

	 ================> DF-SCS-MP2 Energies <==================
	-----------------------------------------------------------
	 SCS Same-Spin Scale       =       0.3333333333333333 [-]
	 SCS Opposite-Spin Scale   =       1.2000000000000000 [-]
	 SCS Same-Spin Energy      =      -0.1122211757535646 [Eh]
	 SCS Opposite-Spin Energy  =      -1.2215511874735205 [Eh]
	 SCS Correlation Energy    =      -1.3337723632270850 [Eh]
	 SCS Total Energy          =    -342.6057401967566420 [Eh]
	-----------------------------------------------------------

  Dipole Moment: [D]
     X:     3.8256      Y:    -0.0404      Z:     0.2855     Total:     3.8364

*** Psi4 exiting successfully. Buy a developer a beer!
