                               Psi4 1.3.2 release

  ==> Input File <==

--------------------------------------------------------------------------
#psi4
#
memory 32 gb

molecule  {
-1 1
  O        1.1591675     1.2927731     0.1507733
  O       -1.4424670    -1.1799650     0.1827610
  O       -1.3575130     1.0293890    -0.3577040
  C        0.6396440    -0.0155260     0.4104950
  C        1.4464200    -1.0470520    -0.3590510
  C       -0.8615718    -0.0978352     0.0545126
  H        0.7165270    -0.2335850     1.4896730
  H        1.3388480    -0.8658950    -1.4332610
  H        2.5070550    -0.9809740    -0.0983190
  H        1.0872750    -2.0528800    -0.1336960
  H        0.3068940     1.7456410    -0.1582790
units angstrom
no_reorient  #important for SAPT in psi4, default
symmetry c1  #important for SAPT in psi4, default
}

set PROPERTIES_ORIGIN ["COM"]
properties('MP2/aug-cc-pvtz', properties = ['dipole'])
--------------------------------------------------------------------------

    Molecular point group: c1
  Charge       = -1
  Multiplicity = 1
  Basis Set: AUG-CC-PVTZ
    Blend: AUG-CC-PVTZ
  Basis Set: (AUG-CC-PVTZ AUX)
    Blend: AUG-CC-PVTZ-JKFIT

    Orbital Energies [Eh]
    ---------------------

    Doubly Occupied:

       1A    -20.382717     2A    -20.317360     3A    -20.313190
       4A    -11.153501     5A    -11.115826     6A    -11.071616
       7A     -1.201286     8A     -1.166375     9A     -1.080514
      10A     -0.861338    11A     -0.700600    12A     -0.562977
      13A     -0.497668    14A     -0.477871    15A     -0.436292
      16A     -0.404415    17A     -0.398304    18A     -0.373890
      19A     -0.366317    20A     -0.350688    21A     -0.277088
      22A     -0.231636    23A     -0.216952    24A     -0.215018

  @DF-RHF Final Energy:  -341.27674029247947

   => Energetics <=

    Nuclear Repulsion Energy =            238.6657348928397084
    One-Electron Energy =                -951.5380737568519862
    Two-Electron Energy =                 371.5955985715327756
    Total Energy =                       -341.2767402924794737
  Basis Set: (AUG-CC-PVTZ AUX)
    Blend: AUG-CC-PVTZ-RI
    Molecular point group: c1

    Geometry (in Angstrom), charge = -1, multiplicity = 1:

       Center              X                  Y                   Z               Mass
    ------------   -----------------  -----------------  -----------------  -----------------
         O            1.221482696207     1.271003546060     0.144613241122    15.994914619570
         O           -1.380151803793    -1.201734553940     0.176600941122    15.994914619570
         O           -1.295197803793     1.007619446060    -0.363864058878    15.994914619570
         C            0.701959196207    -0.037295553940     0.404334941122    12.000000000000
         C            1.508735196207    -1.068821553940    -0.365211058878    12.000000000000
         C           -0.799256603793    -0.119604753940     0.048352541122    12.000000000000
         H            0.778842196207    -0.255354553940     1.483512941122     1.007825032230
         H            1.401163196207    -0.887664553940    -1.439421058878     1.007825032230
         H            2.569370196207    -1.002743553940    -0.104479058878     1.007825032230
         H            1.149590196207    -2.074649553940    -0.139856058878     1.007825032230
         H            0.369209196207     1.723871446060    -0.164439058878     1.007825032230

  Basis Set: AUG-CC-PVTZ
    Blend: AUG-CC-PVTZ
  Basis Set: (AUG-CC-PVTZ AUX)
    Blend: AUG-CC-PVTZ-JKFIT
	 Reference Energy          =    -341.2767402924794737 [Eh]
	 Singles Energy            =      -0.0000000000000000 [Eh]
	 Same-Spin Energy          =      -0.3369367093035202 [Eh]
	 Opposite-Spin Energy      =      -1.0199712313825715 [Eh]
	 Correlation Energy        =      -1.3569079406860918 [Eh]
	 Total Energy              =    -342.6336482331655588 [Eh]

	 ================> DF-SCS-MP2 Energies <==================
	-----------------------------------------------------------
	 SCS Same-Spin Scale       =       0.3333333333333333 [-]
	 SCS Opposite-Spin Scale   =       1.2000000000000000 [-]
	 SCS Same-Spin Energy      =      -0.1123122364345067 [Eh]
	 SCS Opposite-Spin Energy  =      -1.2239654776590858 [Eh]
	 SCS Correlation Energy    =      -1.3362777140935926 [Eh]
	 SCS Total Energy          =    -342.6130180065730428 [Eh]
	-----------------------------------------------------------

  Dipole Moment: [D]
     X:     3.7121      Y:    -0.7493      Z:     0.4295     Total:     3.8112

*** Psi4 exiting successfully. Buy a developer a beer!
