                               Psi4 1.3.2 release

  ==> Input File <==

--------------------------------------------------------------------------
#psi4
#
memory 32 gb

molecule  {
-1 1
  O        1.1365690     1.2999450     0.1428980
  O       -1.4424670    -1.1799650     0.1827610
  O       -1.3575130     1.0293890    -0.3577040
  C        0.6555886    -0.0381521     0.4557135
  C        1.4464200    -1.0470520    -0.3590510
  C       -0.8609500    -0.0719650     0.0469300
  H        0.7165270    -0.2335850     1.4896730
  H        1.3617542    -0.8957458    -1.4399094
  H        2.5070550    -0.9809740    -0.0983190
  H        1.0872750    -2.0528800    -0.1336960
  H        0.3068940     1.7456410    -0.1582790
units angstrom
no_reorient  #important for SAPT in psi4, default
symmetry c1  #important for SAPT in psi4, default
}

set PROPERTIES_ORIGIN ["COM"]
properties('MP2/aug-cc-pvtz', properties = ['dipole'])
--------------------------------------------------------------------------

    Molecular point group: c1
  Charge       = -1
  Multiplicity = 1
  Basis Set: AUG-CC-PVTZ
    Blend: AUG-CC-PVTZ
  Basis Set: (AUG-CC-PVTZ AUX)
    Blend: AUG-CC-PVTZ-JKFIT

    Orbital Energies [Eh]
    ---------------------

    Doubly Occupied:

       1A    -20.377816     2A    -20.318239     3A    -20.310104
       4A    -11.153678     5A    -11.114954     6A    -11.072498
       7A     -1.197919     8A     -1.157510     9A     -1.082786
      10A     -0.862458    11A     -0.702180    12A     -0.562992
      13A     -0.502143    14A     -0.475320    15A     -0.433069
      16A     -0.404730    17A     -0.402568    18A     -0.368614
      19A     -0.363248    20A     -0.349022    21A     -0.284559
      22A     -0.233092    23A     -0.213412    24A     -0.211484

  @DF-RHF Final Energy:  -341.27609530102217

   => Energetics <=

    Nuclear Repulsion Energy =            238.2852438934454256
    One-Electron Energy =                -950.8138920658055895
    Two-Electron Energy =                 371.2525528713379686
    Total Energy =                       -341.2760953010221670
  Basis Set: (AUG-CC-PVTZ AUX)
    Blend: AUG-CC-PVTZ-RI
    Molecular point group: c1

    Geometry (in Angstrom), charge = -1, multiplicity = 1:

       Center              X                  Y                   Z               Mass
    ------------   -----------------  -----------------  -----------------  -----------------
         O            1.200452077246     1.276787517788     0.133155018604    15.994914619570
         O           -1.378583922754    -1.203122482212     0.173018018604    15.994914619570
         O           -1.293629922754     1.006231517788    -0.367446981396    15.994914619570
         C            0.719471677246    -0.061309582212     0.445970518604    12.000000000000
         C            1.510303077246    -1.070209482212    -0.368793981396    12.000000000000
         C           -0.797066922754    -0.095122482212     0.037187018604    12.000000000000
         H            0.780410077246    -0.256742482212     1.479930018604     1.007825032230
         H            1.425637277246    -0.918903282212    -1.449652381396     1.007825032230
         H            2.570938077246    -1.004131482212    -0.108061981396     1.007825032230
         H            1.151158077246    -2.076037482212    -0.143438981396     1.007825032230
         H            0.370777077246     1.722483517788    -0.168021981396     1.007825032230

  Basis Set: AUG-CC-PVTZ
    Blend: AUG-CC-PVTZ
  Basis Set: (AUG-CC-PVTZ AUX)
    Blend: AUG-CC-PVTZ-JKFIT
	 Reference Energy          =    -341.2760953010221670 [Eh]
	 Singles Energy            =      -0.0000000000000000 [Eh]
	 Same-Spin Energy          =      -0.3364024448567868 [Eh]
	 Opposite-Spin Energy      =      -1.0193018134050118 [Eh]
	 Correlation Energy        =      -1.3557042582617986 [Eh]
	 Total Energy              =    -342.6317995592839907 [Eh]

	 ================> DF-SCS-MP2 Energies <==================
	-----------------------------------------------------------
	 SCS Same-Spin Scale       =       0.3333333333333333 [-]
	 SCS Opposite-Spin Scale   =       1.2000000000000000 [-]
	 SCS Same-Spin Energy      =      -0.1121341482855956 [Eh]
	 SCS Opposite-Spin Energy  =      -1.2231621760860141 [Eh]
	 SCS Correlation Energy    =      -1.3352963243716096 [Eh]
	 SCS Total Energy          =    -342.6113916253937646 [Eh]
	-----------------------------------------------------------

  Dipole Moment: [D]
     X:     3.7606      Y:    -0.5815      Z:     0.4640     Total:     3.8335

*** Psi4 exiting successfully. Buy a developer a beer!
