                               Psi4 1.3.2 release

  ==> Input File <==

--------------------------------------------------------------------------
#psi4
#
memory 32 gb

molecule  {
-1 1
  O        1.1365690     1.2999450     0.1428980
  O       -1.4236056    -1.1887884     0.1897595
  O       -1.3575130     1.0293890    -0.3577040
  C        0.6388209    -0.0416936     0.4169546
  C        1.4464200    -1.0470520    -0.3590510
  C       -0.8609500    -0.0719650     0.0469300
  H        0.7165270    -0.2335850     1.4896730
  H        1.3388480    -0.8658950    -1.4332610
  H        2.5070550    -0.9809740    -0.0983190
  H        1.0872750    -2.0528800    -0.1336960
  H        0.3068940     1.7456410    -0.1582790
units angstrom
no_reorient  #important for SAPT in psi4, default
symmetry c1  #important for SAPT in psi4, default
}

set PROPERTIES_ORIGIN ["COM"]
properties('MP2/aug-cc-pvtz', properties = ['dipole'])
--------------------------------------------------------------------------

    Molecular point group: c1
  Charge       = -1
  Multiplicity = 1
  Basis Set: AUG-CC-PVTZ
    Blend: AUG-CC-PVTZ
  Basis Set: (AUG-CC-PVTZ AUX)
    Blend: AUG-CC-PVTZ-JKFIT

    Orbital Energies [Eh]
    ---------------------

    Doubly Occupied:

       1A    -20.377775     2A    -20.319453     3A    -20.310789
       4A    -11.153522     5A    -11.114945     6A    -11.071845
       7A     -1.199326     8A     -1.157622     9A     -1.085088
      10A     -0.865288    11A     -0.701240    12A     -0.563017
      13A     -0.499761    14A     -0.476204    15A     -0.435805
      16A     -0.404460    17A     -0.401430    18A     -0.368319
      19A     -0.364570    20A     -0.348578    21A     -0.281553
      22A     -0.235088    23A     -0.214792    24A     -0.214296

  @DF-RHF Final Energy:  -341.27835943319366

   => Energetics <=

    Nuclear Repulsion Energy =            238.8829731716488141
    One-Electron Energy =                -951.9931302565306623
    Two-Electron Energy =                 371.8317976516881913
    Total Energy =                       -341.2783594331936570
  Basis Set: (AUG-CC-PVTZ AUX)
    Blend: AUG-CC-PVTZ-RI
    Molecular point group: c1

    Geometry (in Angstrom), charge = -1, multiplicity = 1:

       Center              X                  Y                   Z               Mass
    ------------   -----------------  -----------------  -----------------  -----------------
         O            1.199582775095     1.278512259118     0.137046850872    15.994914619570
         O           -1.360591824905    -1.210221140882     0.183908350872    15.994914619570
         O           -1.294499224905     1.007956259118    -0.363555149128    15.994914619570
         C            0.701834675095    -0.063126340882     0.411103450872    12.000000000000
         C            1.509433775095    -1.068484740882    -0.364902149128    12.000000000000
         C           -0.797936224905    -0.093397740882     0.041078850872    12.000000000000
         H            0.779540775095    -0.255017740882     1.483821850872     1.007825032230
         H            1.401861775095    -0.887327740882    -1.439112149128     1.007825032230
         H            2.570068775095    -1.002406740882    -0.104170149128     1.007825032230
         H            1.150288775095    -2.074312740882    -0.139547149128     1.007825032230
         H            0.369907775095     1.724208259118    -0.164130149128     1.007825032230

  Basis Set: AUG-CC-PVTZ
    Blend: AUG-CC-PVTZ
  Basis Set: (AUG-CC-PVTZ AUX)
    Blend: AUG-CC-PVTZ-JKFIT
	 Reference Energy          =    -341.2783594331936570 [Eh]
	 Singles Energy            =      -0.0000000000000000 [Eh]
	 Same-Spin Energy          =      -0.3365877510594507 [Eh]
	 Opposite-Spin Energy      =      -1.0195204293729452 [Eh]
	 Correlation Energy        =      -1.3561081804323960 [Eh]
	 Total Energy              =    -342.6344676136260432 [Eh]

	 ================> DF-SCS-MP2 Energies <==================
	-----------------------------------------------------------
	 SCS Same-Spin Scale       =       0.3333333333333333 [-]
	 SCS Opposite-Spin Scale   =       1.2000000000000000 [-]
	 SCS Same-Spin Energy      =      -0.1121959170198169 [Eh]
	 SCS Opposite-Spin Energy  =      -1.2234245152475343 [Eh]
	 SCS Correlation Energy    =      -1.3356204322673513 [Eh]
	 SCS Total Energy          =    -342.6139798654610331 [Eh]
	-----------------------------------------------------------

  Dipole Moment: [D]
     X:     3.7277      Y:    -0.5791      Z:     0.3802     Total:     3.7916

*** Psi4 exiting successfully. Buy a developer a beer!
