                               Psi4 1.4a3.dev225

  ==> Input File <==

--------------------------------------------------------------------------
#psi4
#
memory 32 gb

molecule  {
-1 1
  O       -1.1681810     1.2683390    -0.1935740
  O        1.4902400    -1.1295240    -0.2243730
  O        1.3027740     1.0522020     0.4123420
  C       -0.6219744    -0.0863369    -0.4262786
  C       -1.4092810    -1.0711850     0.3952000
  C        0.8630350    -0.0522610    -0.0492080
  H       -0.7260590    -0.2876370    -1.4879020
  H       -1.3060210    -0.8470660     1.4617500
  H       -2.4733650    -1.0522610     0.1409170
  H       -1.0158520    -2.0724200     0.2054930
  H       -0.3572580     1.7151740     0.1591030
units angstrom
no_reorient  #important for SAPT in psi4, default
symmetry c1  #important for SAPT in psi4, default
}

set PROPERTIES_ORIGIN ["COM"]
properties('MP2/aug-cc-pvtz', properties = ['dipole'])
--------------------------------------------------------------------------

    Molecular point group: c1
  Charge       = -1
  Multiplicity = 1
  Basis Set: AUG-CC-PVTZ
    Blend: AUG-CC-PVTZ
  Basis Set: (AUG-CC-PVTZ AUX)
    Blend: AUG-CC-PVTZ-JKFIT

    Orbital Energies [Eh]
    ---------------------

    Doubly Occupied:

       1A    -20.375053     2A    -20.319531     3A    -20.311515
       4A    -11.154289     5A    -11.116190     6A    -11.074021
       7A     -1.197574     8A     -1.152497     9A     -1.084513
      10A     -0.867711    11A     -0.704616    12A     -0.563726
      13A     -0.496807    14A     -0.475022    15A     -0.436158
      16A     -0.406328    17A     -0.402764    18A     -0.368208
      19A     -0.359700    20A     -0.348471    21A     -0.281494
      22A     -0.235805    23A     -0.217517    24A     -0.214623

  @DF-RHF Final Energy:  -341.27628469246849

   => Energetics <=

    Nuclear Repulsion Energy =            238.7927961570501907
    One-Electron Energy =                -951.8098944328035032
    Two-Electron Energy =                 371.7408135832848757
    Total Energy =                       -341.2762846924684936
  Basis Set: (AUG-CC-PVTZ AUX)
    Blend: AUG-CC-PVTZ-RI
    Molecular point group: c1

    Geometry (in Angstrom), charge = -1, multiplicity = 1:

       Center              X                  Y                   Z               Mass
    ------------   -----------------  -----------------  -----------------  -----------------
         O           -1.236093858543     1.246224684796    -0.187171462260    15.994914619570
         O            1.422327141457    -1.151638315204    -0.217970462260    15.994914619570
         O            1.234861141457     1.030087684796     0.418744537740    15.994914619570
         C           -0.689887258543    -0.108451215204    -0.419876062260    12.000000000000
         C           -1.477193858543    -1.093299315204     0.401602537740    12.000000000000
         C            0.795122141457    -0.074375315204    -0.042805462260    12.000000000000
         H           -0.793971858543    -0.309751315204    -1.481499462260     1.007825032230
         H           -1.373933858543    -0.869180315204     1.468152537740     1.007825032230
         H           -2.541277858543    -1.074375315204     0.147319537740     1.007825032230
         H           -1.083764858543    -2.094534315204     0.211895537740     1.007825032230
         H           -0.425170858543     1.693059684796     0.165505537740     1.007825032230

  Basis Set: AUG-CC-PVTZ
    Blend: AUG-CC-PVTZ
  Basis Set: (AUG-CC-PVTZ AUX)
    Blend: AUG-CC-PVTZ-JKFIT
	 Reference Energy          =    -341.2762846924684936 [Eh]
	 Singles Energy            =      -0.0000000000000000 [Eh]
	 Same-Spin Energy          =      -0.3368230136961365 [Eh]
	 Opposite-Spin Energy      =      -1.0202699376576252 [Eh]
	 Correlation Energy        =      -1.3570929513537617 [Eh]
	 Total Energy              =    -342.6333776438222571 [Eh]

	 ================> DF-SCS-MP2 Energies <==================
	-----------------------------------------------------------
	 SCS Same-Spin Scale       =       0.3333333333333333 [-]
	 SCS Opposite-Spin Scale   =       1.2000000000000000 [-]
	 SCS Same-Spin Energy      =      -0.1122743378987122 [Eh]
	 SCS Opposite-Spin Energy  =      -1.2243239251891502 [Eh]
	 SCS Correlation Energy    =      -1.3365982630878623 [Eh]
	 SCS Total Energy          =    -342.6128829555563584 [Eh]
	-----------------------------------------------------------

  Dipole Moment: [D]
     X:    -3.7109      Y:    -0.8148      Z:    -0.3209     Total:     3.8129

*** Psi4 exiting successfully. Buy a developer a beer!
